Title
81352
    1CHL1    C3    1   1.611   6.472  10.196 -0.3123 -0.1727  0.6294
    1CHL1    H3    2   1.520   6.532  10.220 -1.3348 -1.9014  1.2540
    1CHL1    O3    3   1.679   6.438  10.319 -0.8039  0.4635  0.5250
    1CHL1   H3'    4   1.720   6.520  10.347  0.9034  0.2426 -1.1013
    1CHL1    C4    5   1.581   6.340  10.109  0.5479 -0.1854 -0.5429
    1CHL1   H4A    6   1.663   6.266  10.120 -0.7150 -1.7224 -1.1024
    1CHL1   H4B    7   1.502   6.289  10.168  1.3396 -1.7082 -0.7480
    1CHL1    C5    8   1.549   6.365   9.963 -0.2266  0.1919  0.4775
    1CHL1    C6    9   1.439   6.316   9.904  0.0040 -0.3133 -0.7934
    1CHL1    H6   10   1.373   6.254   9.966  2.1786 -2.1447 -0.1668
    1CHL1    C7   11   1.397   6.335   9.760  0.1152  0.4295  0.5007
    1CHL1   H7A   12   1.357   6.242   9.715 -3.8718  1.3521  1.7326
    1CHL1   H7B   13   1.309   6.403   9.761 -0.1379  0.1182  1.7747
    1CHL1    C8   14   1.507   6.393   9.671  0.2188 -0.0250 -0.4618
    1CHL1    H8   15   1.580   6.315   9.639 -2.6421 -1.8233 -3.2067
    1CHL1   C14   16   1.442   6.441   9.544 -0.1631  0.1697  0.3116
    1CHL1   H14   17   1.373   6.518   9.584 -1.5515 -0.1151 -1.4184
    1CHL1   C15   18   1.348   6.345   9.460  0.7527  0.0768  0.0053
    1CHL1  H15A   19   1.400   6.247   9.461 -2.2185 -1.6292  0.6768
    1CHL1  H15B   20   1.244   6.337   9.499  0.3973  0.6487 -0.8057
    1CHL1   C16   21   1.351   6.414   9.327  0.8239 -0.5071  0.2993
    1CHL1  H16A   22   1.380   6.343   9.247  0.1456 -0.0697 -0.3464
    1CHL1  H16B   23   1.252   6.436   9.282  1.5488 -1.2614 -1.7775
    1CHL1   C17   24   1.442   6.543   9.332 -0.1206 -0.0946  0.1301
    1CHL1   H17   25   1.370   6.620   9.366  1.2251  1.0236  0.5590
    1CHL1   C13   26   1.540   6.507   9.448  0.0605  0.3593 -0.0458
    1CHL1   C18   27   1.642   6.393   9.401  0.1554  0.6301 -0.2623
    1CHL1  H18A   28   1.700   6.368   9.492  1.0157 -1.6318 -1.3350
    1CHL1  H18B   29   1.592   6.297   9.371  2.4691 -1.1095  1.1588
    1CHL1  H18C   30   1.708   6.440   9.325  2.0445  1.4678  1.8003
    1CHL1   C12   31   1.623   6.625   9.514  0.5564  0.1785 -0.3371
    1CHL1  H12A   32   1.703   6.661   9.446  0.1414  3.0112  0.5408
    1CHL1  H12B   33   1.541   6.700   9.524 -0.3703 -1.0199  1.6922
    1CHL1   C11   34   1.672   6.589   9.657 -0.0979  0.1403  0.6553
    1CHL1  H11A   35   1.772   6.543   9.649 -0.6375 -1.2504  1.5114
    1CHL1  H11B   36   1.692   6.688   9.705 -0.0368  1.6173 -2.1879
    1CHL1    C9   37   1.575   6.509   9.745 -0.4861 -0.1567  0.0825
    1CHL1    H9   38   1.496   6.584   9.768 -0.7775 -0.1835 -0.7869
    1CHL1   C10   39   1.638   6.465   9.884  0.7097  0.1437 -0.5624
    1CHL1   C19   40   1.773   6.388   9.862  0.0152  0.0651 -0.2690
    1CHL1  H19A   41   1.762   6.296   9.800 -2.2770 -0.6785  1.1454
    1CHL1  H19B   42   1.844   6.449   9.802 -0.3901 -0.1366 -0.9627
    1CHL1  H19C   43   1.829   6.356   9.952  0.0846  0.2232 -0.2560
    1CHL1    C1   44   1.653   6.588   9.973 -0.6052 -0.2531 -0.4107
    1CHL1   H1A   45   1.738   6.646   9.931  1.5961 -1.3641  2.2121
    1CHL1   H1B   46   1.558   6.645   9.985  0.0751  0.6260  0.8586
    1CHL1    C2   47   1.706   6.562  10.114  0.1008  0.2251  0.1174
    1CHL1   H2A   48   1.725   6.659  10.164  1.2886 -0.8323  1.8476
    1CHL1   H2B   49   1.804   6.512  10.099  0.2359 -0.3745  2.5373
    1CHL1   C20   50   1.494   6.598   9.202  1.0016 -0.1458  0.7947
    1CHL1   H20   51   1.594   6.552   9.184  1.2525 -0.0616  1.8901
    1CHL1   C21   52   1.517   6.749   9.215 -0.6490 -0.1721  0.7474
    1CHL1  H21A   53   1.559   6.790   9.121 -1.1513  0.5152  0.8171
    1CHL1  H21B   54   1.591   6.764   9.296 -0.2420 -0.6720  0.4725
    1CHL1  H21C   55   1.419   6.796   9.241 -0.3450  0.5480  0.6014
    1CHL1   C22   56   1.404   6.565   9.083 -0.2929 -0.3573 -0.0096
    1CHL1  H22A   57   1.387   6.456   9.070  1.8741 -0.8630  1.0253
    1CHL1  H22B   58   1.305   6.612   9.101 -0.7171 -0.8032 -1.0606
    1CHL1   C23   59   1.473   6.607   8.953  0.5152 -1.0442 -0.3100
    1CHL1  H23A   60   1.472   6.718   8.960  1.4663 -1.0290 -0.2674
    1CHL1  H23B   61   1.574   6.560   8.959 -0.2854 -2.7230  1.1361
    1CHL1   C24   62   1.400   6.573   8.826  0.0091  0.0399 -0.1204
    1CHL1  H24A   63   1.393   6.462   8.831 -0.7885 -0.0177 -1.8932
    1CHL1  H24B   64   1.292   6.602   8.827 -0.2307 -0.5293 -2.7864
    1CHL1   C25   65   1.452   6.644   8.698 -0.6953 -0.1985 -0.0663
    1CHL1   H25   66   1.442   6.752   8.720  1.2819  0.1620 -0.7763
    1CHL1   C26   67   1.605   6.616   8.672 -0.0743  0.4384  0.5612
    1CHL1  H26A   68   1.631   6.648   8.569 -0.2895 -0.3746  0.2456
    1CHL1  H26B   69   1.661   6.672   8.749  0.4678 -1.0825  1.3224
    1CHL1  H26C   70   1.634   6.511   8.694  0.2702  0.5409  0.6012
    1CHL1   C27   71   1.367   6.607   8.575 -0.1900  0.0490  0.0239
    1CHL1  H27A   72   1.371   6.496   8.567  0.7995 -0.1069  1.9072
    1CHL1  H27B   73   1.260   6.637   8.568 -0.6426 -0.7673  2.3939
    1CHL1  H27C   74   1.409   6.641   8.478  0.7266 -1.2794 -0.0671
    2CHL1    C3   75   5.339   2.625  10.159  0.1217 -0.3693 -0.4680
    2CHL1    H3   76   5.446   2.656  10.165  0.0624 -0.3823  0.9184
    2CHL1    O3   77   5.304   2.563  10.284 -0.7472  0.3407 -0.0991
    2CHL1   H3'   78   5.313   2.468  10.274  0.4631  0.5374 -1.2545
    2CHL1    C4   79   5.241   2.750  10.145  0.6795  0.0683  0.3478
    2CHL1   H4A   80   5.135   2.717  10.153  0.0360  1.9309  0.1149
    2CHL1   H4B   81   5.260   2.824  10.226  2.3879 -1.8129  1.7710
    2CHL1    C5   82   5.242   2.814  10.011  0.6299 -0.2716  0.2169
    2CHL1    C6   83   5.269   2.945   9.990  0.0946  0.4555  0.2351
    2CHL1    H6   84   5.294   3.011  10.074  1.3177  1.7823 -1.1237
    2CHL1    C7   85   5.287   3.012   9.859  0.2172  0.6523 -0.0323
    2CHL1   H7A   86   5.239   3.111   9.845  2.3169  1.9823  1.5265
    2CHL1   H7B   87   5.394   3.029   9.833  0.3399  1.1744  0.7741
    2CHL1    C8   88   5.224   2.926   9.749  0.0478 -0.7675  0.1089
    2CHL1    H8   89   5.114   2.937   9.757 -0.0600  1.0811 -2.4910
    2CHL1   C14   90   5.267   2.981   9.615  0.2575  0.0643  0.3295
    2CHL1   H14   91   5.377   2.968   9.612  0.2802  0.3227 -0.1564
    2CHL1   C15   92   5.262   3.132   9.594  0.0371 -0.5074 -0.1782
    2CHL1  H15A   93   5.166   3.175   9.628  0.2443 -0.6752  0.6470
    2CHL1  H15B   94   5.337   3.188   9.654 -1.5997 -0.7501  2.2340
    2CHL1   C16   95   5.263   3.151   9.442 -0.1668  0.1414  1.1156
    2CHL1  H16A   96   5.169   3.208   9.423  1.2298  1.8825 -0.9349
    2CHL1  H16B   97   5.358   3.202   9.417 -1.0657  1.0318 -0.6371
    2CHL1   C17   98   5.263   3.010   9.379  0.0533 -0.3090  0.2571
    2CHL1   H17   99   5.369   2.981   9.362 -0.4255 -1.0905 -1.7141
    2CHL1   C13  100   5.211   2.911   9.485  0.3324  0.6610  0.2472
    2CHL1   C18  101   5.053   2.929   9.482  0.4762  0.1457 -0.0976
    2CHL1  H18A  102   4.994   2.889   9.568 -1.4083 -0.7626 -1.7238
    2CHL1  H18B  103   5.025   3.032   9.453  0.0823  0.1330  0.2221
    2CHL1  H18C  104   5.013   2.868   9.397  1.4704 -1.4588  0.5379
    2CHL1   C12  105   5.267   2.766   9.492 -0.1978 -1.6345 -0.2653
    2CHL1  H12A  106   5.223   2.703   9.412  0.6649  0.0057 -2.0795
    2CHL1  H12B  107   5.375   2.776   9.469 -0.6515  0.1440 -1.7877
    2CHL1   C11  108   5.230   2.696   9.628  0.4454 -0.0889  0.0455
    2CHL1  H11A  109   5.119   2.686   9.633  0.3997 -0.1412 -0.8974
    2CHL1  H11B  110   5.295   2.606   9.634  0.5778 -0.2975 -2.8797
    2CHL1    C9  111   5.270   2.778   9.752 -0.2548  0.0120  1.3744
    2CHL1    H9  112   5.381   2.779   9.751 -0.2567  0.0772  1.2018
    2CHL1   C10  113   5.226   2.715   9.891  0.0858 -0.2667  0.2599
    2CHL1   C19  114   5.075   2.669   9.893 -0.0378  0.0096  1.3018
    2CHL1  H19A  115   5.059   2.590   9.816  0.2198  0.3276  0.9194
    2CHL1  H19B  116   5.045   2.634   9.994  0.5634  1.8728  2.1582
    2CHL1  H19C  117   5.014   2.758   9.869 -0.0382 -0.5918 -1.3013
    2CHL1    C1  118   5.316   2.588   9.911  0.5491  0.2195 -0.3810
    2CHL1   H1A  119   5.277   2.517   9.836 -1.9431 -0.7941  1.7343
    2CHL1   H1B  120   5.419   2.630   9.904  0.3156  0.9504  0.3679
    2CHL1    C2  121   5.314   2.527  10.050  0.6666  0.4274  0.3223
    2CHL1   H2A  122   5.386   2.442  10.057 -1.2490 -1.3113  0.0733
    2CHL1   H2B  123   5.215   2.477  10.062  1.0771 -0.4109  0.3058
    2CHL1   C20  124   5.198   2.996   9.238  0.4134 -0.3644 -0.3744
    2CHL1   H20  125   5.089   3.012   9.248  0.6925  1.5318  0.0589
    2CHL1   C21  126   5.206   2.857   9.181 -0.3009 -0.0306  0.0351
    2CHL1  H21A  127   5.154   2.787   9.249  1.1281  0.2915  1.5229
    2CHL1  H21B  128   5.311   2.821   9.173  0.1460  1.1554  0.3315
    2CHL1  H21C  129   5.160   2.846   9.081 -1.8954 -1.0319  0.8430
    2CHL1   C22  130   5.254   3.096   9.136  0.4320  0.2900  0.0830
    2CHL1  H22A  131   5.247   3.198   9.181 -1.2094  0.5289 -0.6614
    2CHL1  H22B  132   5.363   3.075   9.122  0.1059 -0.6550 -1.1946
    2CHL1   C23  133   5.187   3.091   9.002  0.5710 -0.5161  0.3283
    2CHL1  H23A  134   5.217   3.000   8.946 -0.2130 -0.9606  0.6155
    2CHL1  H23B  135   5.076   3.090   9.015  0.8641 -1.2308  3.4471
    2CHL1   C24  136   5.232   3.209   8.910  0.4207 -0.0820 -0.1494
    2CHL1  H24A  137   5.212   3.298   8.973  0.6286  0.7391 -1.2227
    2CHL1  H24B  138   5.341   3.205   8.888  0.3457 -1.4553 -0.3401
    2CHL1   C25  139   5.148   3.227   8.782 -0.5258  0.3229 -0.1718
    2CHL1   H25  140   5.046   3.255   8.816 -0.2560  0.8012  0.2589
    2CHL1   C26  141   5.194   3.351   8.704  1.0820  0.1136 -0.4223
    2CHL1  H26A  142   5.185   3.444   8.764 -1.1303  2.1936 -3.6552
    2CHL1  H26B  143   5.293   3.346   8.653  1.6633  1.0913  0.5685
    2CHL1  H26C  144   5.129   3.372   8.617 -0.7991 -0.0664  0.8773
    2CHL1   C27  145   5.146   3.102   8.695  0.6385 -0.5291  0.0504
    2CHL1  H27A  146   5.085   3.123   8.604  0.6717 -0.9706 -0.0712
    2CHL1  H27B  147   5.246   3.072   8.659 -0.3934 -2.2906 -1.5387
    2CHL1  H27C  148   5.095   3.023   8.754  0.8680 -1.4631 -0.9691
    3CHL1    C3  149   5.089   4.612  10.136 -0.2577  0.1587 -0.0798
    3CHL1    H3  150   5.138   4.515  10.157  0.1214  0.3545 -0.0554
    3CHL1    O3  151   5.089   4.674  10.266 -0.0635 -0.1224  0.0477
    3CHL1   H3'  152   5.179   4.708  10.262 -0.4497  0.8387 -3.0794
    3CHL1    C4  153   5.184   4.690  10.043 -1.0471 -0.0077  0.0209
    3CHL1   H4A  154   5.155   4.798  10.045  0.6542  0.4847 -0.2860
    3CHL1   H4B  155   5.286   4.674  10.083 -0.8647 -4.1090 -1.6716
    3CHL1    C5  156   5.176   4.642   9.897 -0.0216  0.5873 -0.1003
    3CHL1    C6  157   5.290   4.599   9.839  0.6064  0.8866  0.2843
    3CHL1    H6  158   5.388   4.601   9.890  0.8675 -1.5352  0.0027
    3CHL1    C7  159   5.297   4.558   9.698  1.2180 -0.5398  1.0856
    3CHL1   H7A  160   5.394   4.584   9.650  1.2272  0.0254  1.4024
    3CHL1   H7B  161   5.278   4.449   9.688 -0.0435 -0.2936  0.5415
    3CHL1    C8  162   5.181   4.601   9.610  1.0247 -0.1479 -1.1828
    3CHL1    H8  163   5.181   4.710   9.588 -3.1065  0.2153 -0.1660
    3CHL1   C14  164   5.172   4.531   9.474  0.1696 -0.1002 -0.9693
    3CHL1   H14  165   5.147   4.426   9.500  1.8268 -0.3328 -0.1329
    3CHL1   C15  166   5.294   4.533   9.390 -0.6273 -0.0346  0.6911
    3CHL1  H15A  167   5.331   4.637   9.378 -1.0516 -0.1637 -2.8710
    3CHL1  H15B  168   5.378   4.474   9.431  1.0407  0.9576 -1.0796
    3CHL1   C16  169   5.237   4.487   9.251 -0.8582  0.3081 -1.3343
    3CHL1  H16A  170   5.286   4.553   9.177  0.5101  1.6912  0.6933
    3CHL1  H16B  171   5.269   4.384   9.223  0.6067  0.5224 -0.5333
    3CHL1   C17  172   5.084   4.492   9.258  0.2077 -0.0135 -0.3693
    3CHL1   H17  173   5.046   4.391   9.283 -1.3811 -0.0590 -2.6637
    3CHL1   C13  174   5.053   4.580   9.387 -0.6218 -0.0106  0.8397
    3CHL1   C18  175   5.062   4.734   9.353 -0.0840 -0.0588  0.1092
    3CHL1  H18A  176   5.141   4.754   9.278 -0.4702 -2.5604 -1.0748
    3CHL1  H18B  177   4.973   4.770   9.297 -0.9640 -2.1863  0.0508
    3CHL1  H18C  178   5.057   4.802   9.440 -1.7409  0.0095 -0.0000
    3CHL1   C12  179   4.926   4.537   9.465 -0.2302  0.1406  0.0222
    3CHL1  H12A  180   4.831   4.555   9.410 -0.5051 -0.1640  0.3932
    3CHL1  H12B  181   4.919   4.428   9.484 -1.2353  0.3972  1.2697
    3CHL1   C11  182   4.914   4.605   9.597  0.0941 -0.0650  0.4288
    3CHL1  H11A  183   4.911   4.715   9.578 -2.2246 -0.0285  0.7870
    3CHL1  H11B  184   4.822   4.574   9.651 -0.4383 -0.6378 -0.7539
    3CHL1    C9  185   5.041   4.582   9.680 -0.2254 -0.1933 -0.5716
    3CHL1    H9  186   5.037   4.473   9.701 -0.7915 -0.0811 -0.0880
    3CHL1   C10  187   5.044   4.643   9.830  0.5044 -0.6539  0.0924
    3CHL1   C19  188   4.993   4.790   9.818 -0.9020  0.0529  0.2909
    3CHL1  H19A  189   5.039   4.827   9.724 -1.0715 -1.9179 -0.6098
    3CHL1  H19B  190   4.882   4.786   9.807 -0.7300 -0.9922 -1.3537
    3CHL1  H19C  191   5.030   4.863   9.893 -1.5643  0.4464  0.2490
    3CHL1    C1  192   4.947   4.561   9.922  0.5764  0.0371 -0.2967
    3CHL1   H1A  193   4.844   4.575   9.885  0.9372  2.4022 -0.5848
    3CHL1   H1B  194   4.967   4.452   9.909 -1.1775 -0.2190 -0.9953
    3CHL1    C2  195   4.949   4.599  10.073 -0.0676 -1.0982  0.4539
    3CHL1   H2A  196   4.888   4.522  10.125 -1.6500 -1.2579 -1.5320
    3CHL1   H2B  197   4.905   4.700  10.090 -0.8601 -1.1241 -1.2904
    3CHL1   C20  198   5.024   4.523   9.122 -0.1189 -0.4220  0.1874
    3CHL1   H20  199   5.054   4.627   9.101 -3.5272  0.6654  0.1270
    3CHL1   C21  200   4.868   4.505   9.134 -0.2559 -0.9425  0.2594
    3CHL1  H21A  201   4.826   4.508   9.031  2.3466  1.2545 -0.8686
    3CHL1  H21B  202   4.836   4.596   9.189 -0.2318 -0.7806  0.0087
    3CHL1  H21C  203   4.845   4.410   9.187 -0.9505 -1.6997 -1.3237
    3CHL1   C22  204   5.091   4.436   9.004 -0.6912  0.9000  0.3202
    3CHL1  H22A  205   5.199   4.459   8.999 -0.5244  0.1206  0.2209
    3CHL1  H22B  206   5.077   4.327   9.022 -0.2421  0.4646 -1.7143
    3CHL1   C23  207   5.028   4.462   8.866  0.4367  0.5389  0.0592
    3CHL1  H23A  208   4.924   4.423   8.870  0.3486  0.9026  1.7830
    3CHL1  H23B  209   5.028   4.570   8.837  1.3234  0.1694 -1.4330
    3CHL1   C24  210   5.104   4.396   8.752 -0.8248 -0.6415  0.0164
    3CHL1  H24A  211   5.211   4.423   8.767 -0.6241 -1.4633  0.0953
    3CHL1  H24B  212   5.106   4.286   8.766 -2.3879 -0.4274  2.6996
    3CHL1   C25  213   5.065   4.423   8.606 -0.2481 -0.0209 -0.2801
    3CHL1   H25  214   5.077   4.531   8.582  2.3310 -0.6306 -2.1207
    3CHL1   C26  215   5.162   4.352   8.505  0.1307 -0.0749 -0.2003
    3CHL1  H26A  216   5.134   4.245   8.494  2.1688 -0.5611 -1.1254
    3CHL1  H26B  217   5.160   4.406   8.408  1.7457 -1.2081 -0.9085
    3CHL1  H26C  218   5.265   4.354   8.545  0.1679  2.8348 -0.2435
    3CHL1   C27  219   4.915   4.382   8.580  0.2525 -0.6371 -0.5039
    3CHL1  H27A  220   4.860   4.442   8.656 -1.2754 -1.4476 -0.9234
    3CHL1  H27B  221   4.889   4.403   8.474  2.5011 -0.4467 -1.0663
    3CHL1  H27C  222   4.891   4.275   8.597  0.8087 -0.6608  0.1926
    4CHL1    C3  223   0.114   5.137  10.458  0.1700 -0.1762 -0.4144
    4CHL1    H3  224   0.180   5.213  10.506  2.8565 -1.6670 -1.5560
    4CHL1    O3  225   0.029   5.080  10.555  0.3348 -0.3829 -0.0953
    4CHL1   H3'  226  -0.012   5.006  10.509 -2.0202  0.7612 -0.0049
    4CHL1    C4  227   0.026   5.211  10.351 -0.3491  0.4686  0.1252
    4CHL1   H4A  228  -0.055   5.144  10.314 -1.3027 -0.1243  2.9596
    4CHL1   H4B  229  -0.031   5.283  10.413 -1.4474  1.3518 -1.8343
    4CHL1    C5  230   0.114   5.266  10.239 -0.1385 -0.3440  0.2181
    4CHL1    C6  231   0.131   5.399  10.207 -0.2732  0.4971  0.1063
    4CHL1    H6  232   0.095   5.481  10.270 -0.8380  1.3792 -1.3288
    4CHL1    C7  233   0.223   5.436  10.093  0.0579  0.0931  0.3799
    4CHL1   H7A  234   0.181   5.527  10.046  0.6226  0.1580 -0.0118
    4CHL1   H7B  235   0.320   5.477  10.130 -0.9439  1.9079  1.1098
    4CHL1    C8  236   0.250   5.329   9.990 -0.6228  0.3267 -0.3986
    4CHL1    H8  237   0.160   5.303   9.929 -0.2446 -2.0732 -0.0302
    4CHL1   C14  238   0.370   5.370   9.902 -0.0974  0.3808  0.5782
    4CHL1   H14  239   0.452   5.369   9.977  1.3474 -1.4366 -0.9114
    4CHL1   C15  240   0.373   5.508   9.823  0.0183 -0.1505  0.2385
    4CHL1  H15A  241   0.273   5.528   9.777 -0.6246 -1.3142  1.0896
    4CHL1  H15B  242   0.403   5.596   9.884 -0.6772  1.1424 -1.1877
    4CHL1   C16  243   0.472   5.485   9.704  0.0540  0.4536  0.1729
    4CHL1  H16A  244   0.408   5.483   9.614 -0.2575  2.8834  0.2705
    4CHL1  H16B  245   0.552   5.563   9.703  1.3807 -0.7197 -4.2253
    4CHL1   C17  246   0.531   5.333   9.724  0.8667 -0.2608 -0.0213
    4CHL1   H17  247   0.607   5.349   9.804  1.3748  0.3368 -0.6134
    4CHL1   C13  248   0.420   5.257   9.802  0.2142 -0.0112 -0.6956
    4CHL1   C18  249   0.304   5.221   9.703 -0.1887  0.5389  0.2511
    4CHL1  H18A  250   0.275   5.309   9.643 -1.0636 -0.8069 -1.4040
    4CHL1  H18B  251   0.329   5.144   9.626 -2.4198  0.3074 -0.3302
    4CHL1  H18C  252   0.215   5.181   9.757 -2.2046 -1.1373 -3.8601
    4CHL1   C12  253   0.477   5.135   9.892  0.2211 -0.9895  0.3260
    4CHL1  H12A  254   0.520   5.054   9.829  2.2733  0.0369  0.3097
    4CHL1  H12B  255   0.560   5.181   9.949  1.7995 -1.3279 -1.5713
    4CHL1   C11  256   0.366   5.080   9.984 -0.6080  0.4642 -0.0007
    4CHL1  H11A  257   0.300   5.020   9.918  0.4846  0.3937 -1.0566
    4CHL1  H11B  258   0.421   5.017  10.058 -1.1213 -1.3432 -1.1067
    4CHL1    C9  259   0.297   5.196  10.064  0.2612  0.0296 -0.2684
    4CHL1    H9  260   0.376   5.242  10.127 -1.3106  1.0870  1.0172
    4CHL1   C10  261   0.190   5.148  10.165  0.0988  0.3804 -0.2630
    4CHL1   C19  262   0.086   5.063  10.080  0.0913  0.6885 -0.6345
    4CHL1  H19A  263   0.124   4.972  10.030 -0.6806  0.5950 -1.0607
    4CHL1  H19B  264   0.002   5.039  10.148  0.3867 -1.7083 -1.0420
    4CHL1  H19C  265   0.049   5.132  10.001  1.0031  0.0457 -1.6698
    4CHL1    C1  266   0.266   5.064  10.279 -0.1714 -0.1412 -0.1022
    4CHL1   H1A  267   0.287   4.975  10.216 -2.5307 -1.9573  1.5083
    4CHL1   H1B  268   0.353   5.123  10.316  0.5146  0.5657 -2.6707
    4CHL1    C2  269   0.190   5.024  10.406 -0.3699 -0.3679  0.7306
    4CHL1   H2A  270   0.264   4.979  10.476  0.5091 -0.6823 -0.3793
    4CHL1   H2B  271   0.128   4.940  10.369  2.4553 -2.5967  0.7076
    4CHL1   C20  272   0.601   5.261   9.604  0.1267  0.4613 -0.5182
    4CHL1   H20  273   0.611   5.154   9.633  0.4034  0.3754 -0.9292
    4CHL1   C21  274   0.745   5.327   9.606 -0.6826 -0.7239  0.2229
    4CHL1  H21A  275   0.726   5.434   9.585  1.1016 -0.4285 -0.0366
    4CHL1  H21B  276   0.814   5.273   9.537 -3.2152 -1.1696 -2.1389
    4CHL1  H21C  277   0.795   5.323   9.705 -2.4842 -0.7610  1.1663
    4CHL1   C22  278   0.537   5.285   9.465  0.1366 -0.7433 -0.3502
    4CHL1  H22A  279   0.429   5.261   9.476 -0.5676  2.2132 -0.0373
    4CHL1  H22B  280   0.540   5.392   9.438 -0.9947 -0.6925 -0.3038
    4CHL1   C23  281   0.597   5.199   9.349  0.0136 -1.0832  0.4072
    4CHL1  H23A  282   0.703   5.228   9.330  0.3904 -3.1027 -0.8878
    4CHL1  H23B  283   0.592   5.092   9.378 -1.2362 -1.0683  0.2982
    4CHL1   C24  284   0.513   5.209   9.219  0.0670 -0.0848  0.6344
    4CHL1  H24A  285   0.547   5.135   9.144 -1.3614  1.1278 -1.2860
    4CHL1  H24B  286   0.406   5.192   9.241 -0.2385  0.3242 -0.4778
    4CHL1   C25  287   0.520   5.349   9.156 -0.0716 -0.2363  0.0797
    4CHL1   H25  288   0.473   5.428   9.218  0.1423 -0.6617  0.7988
    4CHL1   C26  289   0.663   5.392   9.136  0.4241  1.3384 -0.4212
    4CHL1  H26A  290   0.715   5.309   9.083  0.3421  1.1911 -0.2726
    4CHL1  H26B  291   0.662   5.470   9.057 -2.2954 -0.1960 -2.1016
    4CHL1  H26C  292   0.715   5.428   9.227 -1.2183 -0.4822  1.3468
    4CHL1   C27  293   0.441   5.345   9.018 -0.7338  0.5401 -0.5631
    4CHL1  H27A  294   0.502   5.306   8.934 -1.2650  0.6380 -1.0011
    4CHL1  H27B  295   0.344   5.293   9.028  1.0823 -2.7080  1.7624
    4CHL1  H27C  296   0.434   5.455   8.998  0.0429  0.8970  0.9855
    5CHL1    C3  297   5.827   2.909  10.313 -0.3473 -0.4691  0.1739
    5CHL1    H3  298   5.916   2.974  10.328 -0.8765 -0.2213  2.7238
    5CHL1    O3  299   5.788   2.877  10.445 -0.3431  0.2141  0.1804
    5CHL1   H3'  300   5.704   2.833  10.430  0.9568 -1.6884 -2.3017
    5CHL1    C4  301   5.717   2.988  10.243  1.0756  0.0884  0.0525
    5CHL1   H4A  302   5.629   2.921  10.257  0.5202  0.2025 -2.3541
    5CHL1   H4B  303   5.692   3.085  10.290 -0.3602  0.8676 -2.1590
    5CHL1    C5  304   5.742   3.011  10.096 -0.7910  0.4219  0.4214
    5CHL1    C6  305   5.750   3.136  10.046 -0.3453  0.5949  0.4334
    5CHL1    H6  306   5.725   3.221  10.111 -1.1898  2.2055 -1.8697
    5CHL1    C7  307   5.761   3.166   9.900  0.0634  0.0894 -0.0812
    5CHL1   H7A  308   5.681   3.235   9.864 -1.3652 -1.4865 -0.0648
    5CHL1   H7B  309   5.855   3.222   9.885  0.8787 -0.9147  1.0972
    5CHL1    C8  310   5.756   3.037   9.804  0.5350 -0.1605 -0.3487
    5CHL1    H8  311   5.647   3.019   9.799  0.6938 -0.9032 -1.3230
    5CHL1   C14  312   5.805   3.071   9.667  0.0944 -0.7749  0.9819
    5CHL1   H14  313   5.912   3.096   9.676 -0.3669  2.3181 -0.8860
    5CHL1   C15  314   5.747   3.196   9.600  0.4520 -0.1875 -0.6132
    5CHL1  H15A  315   5.638   3.198   9.617  0.4235  1.0079 -0.8164
    5CHL1  H15B  316   5.796   3.288   9.639  1.0929 -1.4071  1.6358
    5CHL1   C16  317   5.780   3.176   9.453  0.2471  0.0187  0.7460
    5CHL1  H16A  318   5.686   3.203   9.400  0.3938  1.2204  1.0560
    5CHL1  H16B  319   5.867   3.240   9.426 -0.1609  0.9421  1.5278
    5CHL1   C17  320   5.821   3.030   9.425 -0.5107  0.9410 -0.4550
    5CHL1   H17  321   5.931   3.035   9.437 -0.4887 -2.2233  2.2138
    5CHL1   C13  322   5.774   2.957   9.561 -0.8880 -0.5235  0.5147
    5CHL1   C18  323   5.626   2.913   9.555 -0.4617  0.1208 -0.4469
    5CHL1  H18A  324   5.614   2.836   9.475 -0.7371  2.2919 -2.6184
    5CHL1  H18B  325   5.600   2.881   9.658 -1.4775  2.9282  0.2559
    5CHL1  H18C  326   5.550   2.991   9.535 -0.6927 -0.3031 -1.2832
    5CHL1   C12  327   5.868   2.841   9.616  0.3310 -0.8587 -0.2985
    5CHL1  H12A  328   5.861   2.752   9.550  0.3972  0.7723 -2.6483
    5CHL1  H12B  329   5.975   2.870   9.628  0.0569 -0.1781  0.6038
    5CHL1   C11  330   5.830   2.809   9.761  0.4943  0.0149  0.1206
    5CHL1  H11A  331   5.730   2.761   9.757  0.4870  0.1289 -1.7246
    5CHL1  H11B  332   5.898   2.733   9.805  0.3028 -1.3887 -1.8951
    5CHL1    C9  333   5.838   2.930   9.867 -0.0337 -0.0628  0.0442
    5CHL1    H9  334   5.945   2.959   9.864  0.2172 -1.0087 -1.3554
    5CHL1   C10  335   5.782   2.886  10.009  0.5207  0.2221 -0.0668
    5CHL1   C19  336   5.657   2.804   9.997 -0.0556 -0.5186  0.4381
    5CHL1  H19A  337   5.592   2.845   9.917 -0.4388 -0.0653  0.9774
    5CHL1  H19B  338   5.669   2.694   9.982 -0.7170 -0.7944  1.7933
    5CHL1  H19C  339   5.585   2.805  10.082 -2.4549  0.1933 -1.4864
    5CHL1    C1  340   5.894   2.804  10.082  0.4513 -0.7792  0.3968
    5CHL1   H1A  341   5.915   2.708  10.030 -0.3326 -0.3806 -0.6866
    5CHL1   H1B  342   5.985   2.866  10.069 -0.3776  0.6398  1.1574
    5CHL1    C2  343   5.863   2.779  10.231  0.2640 -0.0659 -0.2233
    5CHL1   H2A  344   5.952   2.733  10.278 -1.4994 -1.4237  2.0267
    5CHL1   H2B  345   5.784   2.702  10.248  0.3945 -0.4937 -1.4424
    5CHL1   C20  346   5.776   2.977   9.289  0.2745 -0.0134  0.4537
    5CHL1   H20  347   5.665   2.973   9.288  0.2726  0.1299  0.2556
    5CHL1   C21  348   5.838   2.837   9.263 -0.0530  0.1964  0.3511
    5CHL1  H21A  349   5.823   2.785   9.166  0.0310 -0.9988  0.9501
    5CHL1  H21B  350   5.805   2.771   9.346  0.9101 -0.4472  0.2425
    5CHL1  H21C  351   5.949   2.851   9.266 -0.1422  1.5487 -1.3375
    5CHL1   C22  352   5.820   3.068   9.172 -0.3324  0.3452 -0.4252
    5CHL1  H22A  353   5.786   3.173   9.189 -1.5514  0.5139 -3.2832
    5CHL1  H22B  354   5.930   3.082   9.177 -0.6116  2.3546  2.7414
    5CHL1   C23  355   5.751   3.032   9.048  0.0271  0.7648  0.5087
    5CHL1  H23A  356   5.795   2.942   9.000  0.3879  1.1614  0.1002
    5CHL1  H23B  357   5.646   3.005   9.075 -0.8083  2.2444 -1.0154
    5CHL1   C24  358   5.738   3.143   8.943 -0.7471 -0.6558  0.6540
    5CHL1  H24A  359   5.727   3.240   8.995  0.4670 -0.5806  0.7938
    5CHL1  H24B  360   5.837   3.152   8.892 -1.8855  2.4660 -1.2908
    5CHL1   C25  361   5.622   3.125   8.846 -0.0488 -0.2409 -0.1079
    5CHL1   H25  362   5.525   3.103   8.895 -0.8625 -1.8139 -2.2919
    5CHL1   C26  363   5.604   3.253   8.770  0.2431 -0.5253 -0.5129
    5CHL1  H26A  364   5.565   3.332   8.838 -0.4499 -1.2587 -0.0303
    5CHL1  H26B  365   5.703   3.275   8.726  0.6291 -2.2214 -0.5792
    5CHL1  H26C  366   5.529   3.239   8.689 -2.2070  3.8461  0.7071
    5CHL1   C27  367   5.661   3.004   8.746  0.9399 -0.7327  0.3346
    5CHL1  H27A  368   5.655   2.905   8.797  1.6730 -1.1279 -0.3297
    5CHL1  H27B  369   5.593   2.986   8.660  1.7204 -0.8854 -0.2659
    5CHL1  H27C  370   5.766   3.017   8.711  0.7536  1.0742  0.3633
    6CHL1    C3  371   4.562   0.903  10.273  0.0969  0.3364 -0.3192
    6CHL1    H3  372   4.667   0.934  10.293 -0.5659  1.9073  0.8535
    6CHL1    O3  373   4.508   0.882  10.399  0.3357 -0.1547 -0.0241
    6CHL1   H3'  374   4.413   0.871  10.390  0.1434  0.8514  0.6248
    6CHL1    C4  375   4.482   1.003  10.187 -0.2027  0.5731  0.2221
    6CHL1   H4A  376   4.373   0.982  10.183 -1.2047  5.0351 -1.8200
    6CHL1   H4B  377   4.479   1.105  10.232  2.1374  1.4572 -1.4309
    6CHL1    C5  378   4.519   1.019  10.042  0.1374  0.5027  0.1463
    6CHL1    C6  379   4.539   1.136   9.977 -0.2731  0.1369 -0.5706
    6CHL1    H6  380   4.540   1.229  10.036  0.0681  0.6596 -1.3839
    6CHL1    C7  381   4.588   1.152   9.838  0.4740  0.7223  0.0090
    6CHL1   H7A  382   4.527   1.229   9.786 -0.5339 -0.2326 -0.2602
    6CHL1   H7B  383   4.689   1.198   9.840 -0.3443  2.6409  0.4140
    6CHL1    C8  384   4.591   1.017   9.756  0.3738  0.3136 -0.2347
    6CHL1    H8  385   4.489   0.990   9.721  0.0523 -0.2821  1.0846
    6CHL1   C14  386   4.676   1.039   9.633 -0.3540  0.0611 -0.3167
    6CHL1   H14  387   4.777   1.067   9.670 -0.5362  1.2475 -0.6721
    6CHL1   C15  388   4.653   1.155   9.528  0.6934  0.1103  1.0022
    6CHL1  H15A  389   4.545   1.160   9.503  1.1485 -1.2875 -1.5356
    6CHL1  H15B  390   4.699   1.247   9.572  0.7463 -0.4511  2.1755
    6CHL1   C16  391   4.712   1.109   9.396  0.0310 -0.5159  0.4747
    6CHL1  H16A  392   4.630   1.123   9.322 -0.2250  0.9294  0.9991
    6CHL1  H16B  393   4.800   1.169   9.366  0.7984 -0.4561  2.7438
    6CHL1   C17  394   4.759   0.968   9.418  0.0538 -0.0325 -0.5279
    6CHL1   H17  395   4.865   0.969   9.449 -0.4713 -0.0140  1.4035
    6CHL1   C13  396   4.680   0.913   9.542 -0.0992 -0.2206 -0.0250
    6CHL1   C18  397   4.543   0.871   9.496  0.3956 -0.4939 -0.1251
    6CHL1  H18A  398   4.486   0.844   9.588  1.9896 -2.5854  0.3180
    6CHL1  H18B  399   4.479   0.947   9.446 -0.6513 -1.4741 -0.3142
    6CHL1  H18C  400   4.556   0.774   9.445  3.3078 -0.5431  0.5251
    6CHL1   C12  401   4.748   0.807   9.629 -0.0258 -0.5456 -0.1933
    6CHL1  H12A  402   4.742   0.713   9.570  0.3126 -0.4389 -0.4032
    6CHL1  H12B  403   4.856   0.815   9.653  0.3728 -3.6550 -0.5987
    6CHL1   C11  404   4.670   0.779   9.757 -0.4058  0.3265  0.7023
    6CHL1  H11A  405   4.571   0.736   9.730 -0.5492  0.5561  0.8621
    6CHL1  H11B  406   4.727   0.701   9.812  0.1774  0.2641  0.0337
    6CHL1    C9  407   4.642   0.903   9.846 -0.3256 -0.9955  0.0781
    6CHL1    H9  408   4.743   0.931   9.881 -1.2018  0.7328  1.4279
    6CHL1   C10  409   4.547   0.886   9.965 -0.3562  0.4265 -0.5769
    6CHL1   C19  410   4.414   0.826   9.914  0.1712 -0.3074  0.1815
    6CHL1  H19A  411   4.352   0.805  10.004 -1.7819  1.3555 -0.6691
    6CHL1  H19B  412   4.356   0.903   9.858  0.9818  1.6911  1.9379
    6CHL1  H19C  413   4.421   0.735   9.851  1.2628  1.1537 -1.9703
    6CHL1    C1  414   4.619   0.781  10.052  0.0246  0.1044 -0.0459
    6CHL1   H1A  415   4.597   0.685  10.000  0.7357  0.9084 -1.9247
    6CHL1   H1B  416   4.728   0.799  10.060  0.0948 -0.9298  2.0181
    6CHL1    C2  417   4.576   0.768  10.198  0.1671  0.2450  0.3760
    6CHL1   H2A  418   4.643   0.710  10.265 -0.6848 -0.6048  0.5146
    6CHL1   H2B  419   4.477   0.718  10.205  1.3388 -2.1994  0.6677
    6CHL1   C20  420   4.760   0.876   9.289 -0.4898 -0.2229  0.6201
    6CHL1   H20  421   4.676   0.804   9.288 -2.9940  2.5008 -1.0533
    6CHL1   C21  422   4.885   0.783   9.294  0.2718 -0.0279  0.4752
    6CHL1  H21A  423   4.901   0.718   9.206 -1.0784  2.4676 -1.7724
    6CHL1  H21B  424   4.880   0.735   9.394  1.9003 -1.7875 -0.2151
    6CHL1  H21C  425   4.981   0.839   9.304  0.0837  0.8264 -1.8593
    6CHL1   C22  426   4.770   0.959   9.158  0.0820 -0.2048  1.5288
    6CHL1  H22A  427   4.667   0.995   9.142  0.5342  0.2092 -0.7353
    6CHL1  H22B  428   4.837   1.047   9.161  0.7860 -0.4671 -2.1365
    6CHL1   C23  429   4.812   0.871   9.037 -0.0743 -0.1726  0.2593
    6CHL1  H23A  430   4.920   0.846   9.046  0.0933  0.6960  0.7813
    6CHL1  H23B  431   4.755   0.777   9.053 -1.0309  0.1674 -1.0064
    6CHL1   C24  432   4.779   0.930   8.903 -0.1358 -0.8593  0.8725
    6CHL1  H24A  433   4.670   0.945   8.888  0.4460  1.3518 -2.0500
    6CHL1  H24B  434   4.818   1.034   8.898 -0.1695 -0.7589  2.2296
    6CHL1   C25  435   4.824   0.848   8.784 -0.5786 -1.0393  0.0749
    6CHL1   H25  436   4.926   0.807   8.798 -1.0279 -2.0481  0.4980
    6CHL1   C26  437   4.737   0.734   8.759 -0.1199 -0.1238  0.8511
    6CHL1  H26A  438   4.793   0.648   8.716  2.2734  1.2375  1.0813
    6CHL1  H26B  439   4.681   0.711   8.853 -4.2169  2.2608 -0.7216
    6CHL1  H26C  440   4.653   0.755   8.690 -0.0340 -0.8501  0.5184
    6CHL1   C27  441   4.853   0.943   8.659 -0.1873 -0.5122  0.4884
    6CHL1  H27A  442   4.905   0.902   8.570 -2.2102 -0.2416 -0.8888
    6CHL1  H27B  443   4.754   0.990   8.637 -0.0072 -0.1106  0.5344
    6CHL1  H27C  444   4.914   1.027   8.699  1.4005 -2.1460  1.6519
    7CHL1    C3  445   1.962   5.215  10.375  0.4739  0.3524 -0.4263
    7CHL1    H3  446   2.058   5.159  10.381  0.3675  0.1722 -0.3956
    7CHL1    O3  447   1.920   5.221  10.511 -0.6998 -0.2593  0.1139
    7CHL1   H3'  448   1.909   5.314  10.531 -0.7739  0.3496 -2.3925
    7CHL1    C4  449   1.996   5.359  10.331  0.3934  0.2247  1.1217
    7CHL1   H4A  450   1.903   5.415  10.355  1.0458  2.6912 -1.5517
    7CHL1   H4B  451   2.079   5.394  10.395  0.2887 -1.0051  1.9691
    7CHL1    C5  452   2.031   5.354  10.184 -0.0854 -0.0617  0.8557
    7CHL1    C6  453   2.148   5.403  10.140  0.3063 -0.8563 -0.5271
    7CHL1    H6  454   2.209   5.464  10.208  1.6648 -0.8254 -1.7177
    7CHL1    C7  455   2.185   5.399   9.997  0.0552 -0.2139  0.1583
    7CHL1   H7A  456   2.242   5.491   9.968 -1.3174 -0.5479 -4.2877
    7CHL1   H7B  457   2.264   5.326   9.972  1.9599  1.9295 -0.4825
    7CHL1    C8  458   2.065   5.377   9.901  0.2737 -0.3049 -0.5036
    7CHL1    H8  459   2.007   5.472   9.897  0.3943 -0.2679 -2.8726
    7CHL1   C14  460   2.121   5.342   9.763 -0.2795 -0.6982 -0.2433
    7CHL1   H14  461   2.175   5.246   9.768  0.8384 -0.0589  0.4633
    7CHL1   C15  462   2.218   5.441   9.696  0.4862 -0.1854 -0.7194
    7CHL1  H15A  463   2.177   5.544   9.695  0.5612 -0.1128  0.9590
    7CHL1  H15B  464   2.315   5.440   9.750 -0.3006  1.8944  0.8794
    7CHL1   C16  465   2.234   5.382   9.557 -0.0939 -0.0051 -0.3749
    7CHL1  H16A  466   2.239   5.465   9.483  1.4630 -1.1070 -1.5728
    7CHL1  H16B  467   2.325   5.322   9.536 -0.7194 -0.3087 -2.3778
    7CHL1   C17  468   2.116   5.279   9.536  0.1395  0.2631 -0.3098
    7CHL1   H17  469   2.159   5.178   9.554 -1.0779  0.0408  1.7905
    7CHL1   C13  470   2.019   5.316   9.646  0.4238  0.7661 -0.5050
    7CHL1   C18  471   1.937   5.443   9.620 -0.5305  0.0961 -0.0218
    7CHL1  H18A  472   1.980   5.545   9.626  0.4389 -0.3097  0.0748
    7CHL1  H18B  473   1.877   5.428   9.528  2.5919 -2.1150 -1.9047
    7CHL1  H18C  474   1.862   5.453   9.701 -0.6314  0.5111 -0.1657
    7CHL1   C12  475   1.924   5.201   9.698 -0.7787  0.4987  0.0775
    7CHL1  H12A  476   1.841   5.188   9.624  0.4790 -1.4503 -1.0805
    7CHL1  H12B  477   1.981   5.107   9.684  0.2825  1.3851 -1.9665
    7CHL1   C11  478   1.873   5.229   9.838  0.0034  0.2898 -0.1523
    7CHL1  H11A  479   1.801   5.314   9.830 -2.7856 -1.6975  1.7627
    7CHL1  H11B  480   1.816   5.138   9.866  0.1017  0.5887  1.1145
    7CHL1    C9  481   1.980   5.260   9.943 -0.6229  0.5041  0.6500
    7CHL1    H9  482   2.054   5.179   9.956  0.6380  1.0052 -2.3874
    7CHL1   C10  483   1.931   5.284  10.082 -0.0854 -0.3541 -0.4452
    7CHL1   C19  484   1.800   5.362  10.079  0.1760  0.1050 -0.0987
    7CHL1  H19A  485   1.714   5.297  10.054 -0.9895  0.9997  1.4235
    7CHL1  H19B  486   1.785   5.405  10.181  2.3926 -0.7316  0.6566
    7CHL1  H19C  487   1.806   5.453  10.016  0.6487 -0.2977 -0.6459
    7CHL1    C1  488   1.897   5.149  10.142  0.2845 -0.0148  0.4369
    7CHL1   H1A  489   1.819   5.099  10.080  0.3942  1.6808 -1.1451
    7CHL1   H1B  490   1.985   5.083  10.133 -0.7844 -1.3400 -0.7709
    7CHL1    C2  491   1.851   5.153  10.289 -0.2828 -0.3666  0.3245
    7CHL1   H2A  492   1.835   5.052  10.333  1.6849 -0.7397  0.2941
    7CHL1   H2B  493   1.758   5.214  10.287  0.0096  0.1014 -1.8382
    7CHL1   C20  494   2.069   5.286   9.393  1.1736 -0.3256  0.1139
    7CHL1   H20  495   2.048   5.392   9.368  2.4310 -0.3615 -1.2329
    7CHL1   C21  496   1.952   5.189   9.376 -0.3940  0.5640 -0.3550
    7CHL1  H21A  497   1.863   5.215   9.436 -1.7282 -2.7949 -0.6306
    7CHL1  H21B  498   1.983   5.084   9.398  0.4473  0.8146 -0.3090
    7CHL1  H21C  499   1.913   5.190   9.272 -1.2352 -2.5864 -0.1698
    7CHL1   C22  500   2.183   5.255   9.292  0.5369  0.0642  0.1655
    7CHL1  H22A  501   2.254   5.341   9.296  0.7624  0.0437 -1.9381
    7CHL1  H22B  502   2.240   5.163   9.318  1.1199  0.0256 -1.1215
    7CHL1   C23  503   2.132   5.236   9.145 -0.1562  0.2537 -0.4476
    7CHL1  H23A  504   2.227   5.213   9.093 -0.2039 -1.2823  0.0886
    7CHL1  H23B  505   2.069   5.144   9.138 -1.8756  1.5169 -2.9367
    7CHL1   C24  506   2.060   5.352   9.092  0.5266 -0.4860 -0.3027
    7CHL1  H24A  507   1.957   5.369   9.131  1.0617  1.8320  0.2080
    7CHL1  H24B  508   2.116   5.445   9.114 -2.3760  2.1146 -2.9194
    7CHL1   C25  509   2.028   5.345   8.937 -0.5502 -0.7688  0.3297
    7CHL1   H25  510   2.122   5.335   8.878 -1.0423 -1.1140 -0.4149
    7CHL1   C26  511   1.940   5.215   8.909  0.2191 -0.0942  0.2685
    7CHL1  H26A  512   1.844   5.231   8.962  0.6197  1.9345  0.4906
    7CHL1  H26B  513   1.930   5.198   8.800  0.0187  0.4957  0.1883
    7CHL1  H26C  514   1.993   5.128   8.953 -2.4557 -1.3965  1.0704
    7CHL1   C27  515   1.958   5.476   8.897  0.0874  0.3816 -1.1076
    7CHL1  H27A  516   1.882   5.507   8.972  2.1479 -1.2567  1.9143
    7CHL1  H27B  517   2.027   5.560   8.876 -0.4091  1.1017  0.0510
    7CHL1  H27C  518   1.898   5.453   8.807  0.3036 -0.4817 -1.0432
    8CHL1    C3  519   0.094   4.519  10.324  0.6785 -0.1244  0.5578
    8CHL1    H3  520  -0.010   4.549  10.297  0.8812  0.1539  0.0722
    8CHL1    O3  521   0.093   4.483  10.458 -0.0556 -0.4136 -1.0575
    8CHL1   H3'  522   0.128   4.551  10.516  0.4938 -1.3319 -0.2778
    8CHL1    C4  523   0.141   4.402  10.228  0.1355  0.3820  0.0084
    8CHL1   H4A  524   0.244   4.372  10.259 -0.1833 -0.7253  0.0485
    8CHL1   H4B  525   0.076   4.315  10.252  1.4624 -0.4436  0.7681
    8CHL1    C5  526   0.143   4.450  10.084  0.4192  0.6715 -0.5733
    8CHL1    C6  527   0.068   4.390   9.992 -0.0216  0.3320  0.1084
    8CHL1    H6  528   0.004   4.304  10.017 -0.6725  0.7799  0.0053
    8CHL1    C7  529   0.083   4.425   9.848 -0.2099  0.3989  0.0584
    8CHL1   H7A  530   0.084   4.330   9.790 -0.4013  0.7530 -0.5310
    8CHL1   H7B  531  -0.011   4.472   9.812 -2.1340 -3.0323  0.0791
    8CHL1    C8  532   0.197   4.523   9.806 -0.4805 -0.4156 -0.2832
    8CHL1    H8  533   0.292   4.468   9.788 -0.1141  0.3469 -0.7612
    8CHL1   C14  534   0.163   4.600   9.679  0.2651  0.0287  0.1595
    8CHL1   H14  535   0.078   4.666   9.705  0.4500 -0.0932  1.1523
    8CHL1   C15  536   0.126   4.525   9.547  0.3229  0.5378 -0.1001
    8CHL1  H15A  537   0.206   4.453   9.521 -0.4416 -0.3685 -0.0224
    8CHL1  H15B  538   0.030   4.469   9.552  0.0685  0.9289 -0.5379
    8CHL1   C16  539   0.113   4.643   9.443  0.6924  0.1702 -0.3081
    8CHL1  H16A  540   0.180   4.607   9.362 -1.6139  1.6748 -3.0592
    8CHL1  H16B  541   0.006   4.660   9.419  0.1412 -2.4248 -0.0468
    8CHL1   C17  542   0.191   4.763   9.512 -0.0760  0.0392 -0.2463
    8CHL1   H17  543   0.113   4.826   9.561  0.2587 -0.8997  1.5804
    8CHL1   C13  544   0.261   4.704   9.632 -0.3079  1.0019  0.7023
    8CHL1   C18  545   0.392   4.641   9.581 -0.2682 -0.3705 -0.0671
    8CHL1  H18A  546   0.432   4.578   9.664 -0.8590  0.3764  0.8135
    8CHL1  H18B  547   0.387   4.587   9.485  3.2701  1.7160 -1.6262
    8CHL1  H18C  548   0.476   4.710   9.561  1.2655 -1.7986  1.1812
    8CHL1   C12  549   0.286   4.805   9.744  0.7381 -0.2304 -0.0200
    8CHL1  H12A  550   0.366   4.880   9.724  1.8815 -1.2532  0.5847
    8CHL1  H12B  551   0.188   4.856   9.753  1.0741  0.1646  2.1256
    8CHL1   C11  552   0.323   4.732   9.872  0.4335  0.3986  0.5543
    8CHL1  H11A  553   0.422   4.685   9.854  0.5339  0.4463  0.9601
    8CHL1  H11B  554   0.328   4.811   9.950 -1.4110  0.7574  0.3578
    8CHL1    C9  555   0.222   4.626   9.912  0.1925  0.0594 -0.3320
    8CHL1    H9  556   0.120   4.669   9.920 -0.1441 -1.0392  2.5401
    8CHL1   C10  557   0.233   4.572  10.057  0.9587 -0.5905 -0.5506
    8CHL1   C19  558   0.379   4.526  10.069 -0.0462 -0.1191  0.4233
    8CHL1  H19A  559   0.407   4.445   9.998  3.4539  0.0538  1.4520
    8CHL1  H19B  560   0.445   4.615  10.061 -0.0220 -0.3048 -2.5769
    8CHL1  H19C  561   0.397   4.488  10.171  0.6159  1.1752  0.8026
    8CHL1    C1  562   0.196   4.686  10.160 -0.2206  0.1933 -0.2027
    8CHL1   H1A  563   0.275   4.764  10.157  0.4749 -0.4800  0.1474
    8CHL1   H1B  564   0.099   4.728  10.125 -0.1176 -0.3316 -1.1396
    8CHL1    C2  565   0.175   4.650  10.305  0.3103 -0.1533 -0.6020
    8CHL1   H2A  566   0.104   4.725  10.347 -3.1645 -2.3422 -2.1280
    8CHL1   H2B  567   0.274   4.636  10.353  0.7212  0.9479 -1.1014
    8CHL1   C20  568   0.264   4.864   9.423 -0.7747 -0.2856  0.4602
    8CHL1   H20  569   0.351   4.910   9.475 -2.2626  2.7099  0.5177
    8CHL1   C21  570   0.152   4.968   9.396  0.2233  0.7697 -0.5629
    8CHL1  H21A  571   0.104   5.006   9.489  0.0732 -0.9230  0.0919
    8CHL1  H21B  572   0.068   4.929   9.334 -1.9515  4.0664  0.0419
    8CHL1  H21C  573   0.191   5.048   9.330  0.1889 -0.5716 -2.3014
    8CHL1   C22  574   0.314   4.803   9.292 -0.1474  0.3531  0.1956
    8CHL1  H22A  575   0.376   4.712   9.312 -0.9523 -0.3293 -0.3389
    8CHL1  H22B  576   0.222   4.764   9.242  1.1463 -2.7500 -0.0405
    8CHL1   C23  577   0.392   4.896   9.205  0.0208  0.6160 -0.3091
    8CHL1  H23A  578   0.335   4.990   9.192 -1.5935 -0.1060  1.2113
    8CHL1  H23B  579   0.489   4.924   9.250  0.6207  1.8166 -2.2104
    8CHL1   C24  580   0.443   4.831   9.073  0.0772 -0.7938 -0.4670
    8CHL1  H24A  581   0.531   4.882   9.028  1.4563 -2.8444 -0.2344
    8CHL1  H24B  582   0.491   4.735   9.101  3.0725  0.4811 -0.8173
    8CHL1   C25  583   0.337   4.811   8.966  0.1186 -0.5402 -0.3099
    8CHL1   H25  584   0.265   4.739   9.011  0.8895  1.2562  4.3635
    8CHL1   C26  585   0.276   4.932   8.902 -0.1581 -0.3399  0.3110
    8CHL1  H26A  586   0.225   4.992   8.981 -0.9442 -0.7514  0.1224
    8CHL1  H26B  587   0.341   4.998   8.841  0.0454  0.2026  1.0978
    8CHL1  H26C  588   0.201   4.892   8.831 -0.3557  0.2793  0.1665
    8CHL1   C27  589   0.410   4.738   8.852 -0.0581 -0.0878  0.0333
    8CHL1  H27A  590   0.342   4.693   8.776 -0.5839 -1.0925  1.0609
    8CHL1  H27B  591   0.492   4.801   8.812 -0.8601  0.9177 -0.0838
    8CHL1  H27C  592   0.464   4.650   8.891 -1.5859 -0.6430  0.9967
    9CHL1    C3  593   2.675   3.944  10.246  0.1375 -0.4946 -0.4592
    9CHL1    H3  594   2.780   3.911  10.262  0.1097 -1.8671 -2.7095
    9CHL1    O3  595   2.623   4.005  10.361  0.5244  0.1593  0.3753
    9CHL1   H3'  596   2.553   3.942  10.383 -0.1095  0.8836  0.4564
    9CHL1    C4  597   2.668   4.059  10.137  0.0557  0.2472  0.0204
    9CHL1   H4A  598   2.566   4.101  10.141  0.7395  2.1753 -1.1312
    9CHL1   H4B  599   2.736   4.139  10.174 -0.3561  0.3612  0.5431
    9CHL1    C5  600   2.693   4.019   9.995 -0.3895 -0.3607  0.1565
    9CHL1    C6  601   2.778   4.080   9.915  0.8912  0.4886  0.2996
    9CHL1    H6  602   2.828   4.170   9.953 -0.4533  1.2756  0.2702
    9CHL1    C7  603   2.820   4.035   9.772 -0.4641 -0.1761 -0.5989
    9CHL1   H7A  604   2.825   4.125   9.707 -2.0058  1.2820  1.1834
    9CHL1   H7B  605   2.921   3.989   9.777 -0.3172  0.1031 -0.9535
    9CHL1    C8  606   2.715   3.937   9.713 -1.1354 -0.0695 -0.5178
    9CHL1    H8  607   2.624   3.994   9.688 -0.7830  0.4697 -0.5940
    9CHL1   C14  608   2.762   3.878   9.580 -0.4924 -0.2050 -0.1701
    9CHL1   H14  609   2.845   3.808   9.605 -0.4180  0.4746  1.6883
    9CHL1   C15  610   2.808   3.959   9.464  0.5840 -0.1548  0.9613
    9CHL1  H15A  611   2.724   4.026   9.436 -0.6689 -0.5242  3.5040
    9CHL1  H15B  612   2.903   4.013   9.481  0.5216  1.0202 -1.8769
    9CHL1   C16  613   2.819   3.861   9.341  0.7075  0.4887 -0.6679
    9CHL1  H16A  614   2.780   3.900   9.245 -2.5786 -1.4827 -0.2765
    9CHL1  H16B  615   2.924   3.827   9.326  0.5913 -0.3387  0.2978
    9CHL1   C17  616   2.741   3.730   9.386 -0.0878 -0.6692 -0.5635
    9CHL1   H17  617   2.812   3.654   9.426 -0.7778 -1.4702 -0.8140
    9CHL1   C13  618   2.665   3.779   9.516 -0.0316  0.5009  0.0916
    9CHL1   C18  619   2.529   3.850   9.485 -0.4903 -0.2163  0.3045
    9CHL1  H18A  620   2.449   3.775   9.468  1.1925 -2.0396  0.1319
    9CHL1  H18B  621   2.484   3.899   9.575 -0.6578 -2.7459  1.6789
    9CHL1  H18C  622   2.530   3.930   9.408 -2.9548  1.2229  1.6266
    9CHL1   C12  623   2.646   3.666   9.612 -0.1748 -0.2012  0.2011
    9CHL1  H12A  624   2.561   3.597   9.595  0.3849 -1.1882  1.3176
    9CHL1  H12B  625   2.738   3.606   9.623 -0.0485  0.3333  2.4591
    9CHL1   C11  626   2.602   3.707   9.754  1.1097  0.1696 -0.1857
    9CHL1  H11A  627   2.496   3.740   9.748  1.6220  2.4217  1.4900
    9CHL1  H11B  628   2.603   3.631   9.834  0.3909  2.3356  2.0113
    9CHL1    C9  629   2.688   3.824   9.815  0.0663 -0.2933 -0.0779
    9CHL1    H9  630   2.786   3.786   9.851 -0.6653 -1.3949  0.8334
    9CHL1   C10  631   2.628   3.884   9.949  0.9428 -0.1554 -0.1535
    9CHL1   C19  632   2.475   3.908   9.924 -0.7420 -0.6131  0.5808
    9CHL1  H19A  633   2.460   3.970   9.833 -1.8132 -0.8311  0.5888
    9CHL1  H19B  634   2.413   3.815   9.919 -1.7168 -0.0414 -4.8545
    9CHL1  H19C  635   2.427   3.963  10.008  1.1210 -0.2084  1.4146
    9CHL1    C1  636   2.645   3.780  10.066  0.4536  0.4123  0.1969
    9CHL1   H1A  637   2.582   3.691  10.045  0.3509  0.0930  1.7229
    9CHL1   H1B  638   2.753   3.757  10.072  0.7398  1.6684  0.2129
    9CHL1    C2  639   2.594   3.817  10.206  0.1843  0.0406 -0.1415
    9CHL1   H2A  640   2.615   3.732  10.274 -0.0969 -1.9670 -2.4268
    9CHL1   H2B  641   2.487   3.846  10.203  0.4715  1.0511 -1.7702
    9CHL1   C20  642   2.662   3.667   9.270  0.3687  0.0476  0.4368
    9CHL1   H20  643   2.578   3.731   9.235  0.8621  1.4780  1.7216
    9CHL1   C21  644   2.594   3.538   9.323  0.1751  0.2974 -0.3695
    9CHL1  H21A  645   2.542   3.487   9.239 -1.8927  0.4427  0.7625
    9CHL1  H21B  646   2.511   3.574   9.386  0.0577  1.6617 -1.2537
    9CHL1  H21C  647   2.667   3.473   9.376 -0.9103 -0.6625 -0.0065
    9CHL1   C22  648   2.747   3.630   9.146 -0.4295 -0.2711  0.2459
    9CHL1  H22A  649   2.810   3.712   9.105  0.1948 -1.9312 -2.3579
    9CHL1  H22B  650   2.820   3.556   9.185  0.5551  1.2221  1.3469
    9CHL1   C23  651   2.679   3.578   9.019  0.5327  0.4005 -0.1350
    9CHL1  H23A  652   2.597   3.513   9.058  2.5200 -2.2966 -0.1569
    9CHL1  H23B  653   2.646   3.658   8.950 -0.4151 -0.4747 -0.7325
    9CHL1   C24  654   2.769   3.479   8.951  0.1350  0.0201  0.3684
    9CHL1  H24A  655   2.847   3.545   8.907  1.1349 -0.8969  0.7059
    9CHL1  H24B  656   2.830   3.417   9.020  0.8712  1.4704  1.0691
    9CHL1   C25  657   2.707   3.391   8.842 -0.7221  0.3056  0.1689
    9CHL1   H25  658   2.642   3.318   8.895  0.9486 -1.5021 -0.1583
    9CHL1   C26  659   2.631   3.468   8.737  0.7696 -0.3722 -0.0549
    9CHL1  H26A  660   2.535   3.505   8.781  2.2645  2.9781  0.6860
    9CHL1  H26B  661   2.687   3.556   8.699 -0.6620  0.7832  0.3866
    9CHL1  H26C  662   2.603   3.398   8.656  0.0653 -0.7781  0.5259
    9CHL1   C27  663   2.829   3.320   8.780 -0.1887  0.0491  0.5896
    9CHL1  H27A  664   2.810   3.223   8.729  2.9202 -0.2100 -0.2605
    9CHL1  H27B  665   2.873   3.402   8.719 -1.7409  2.4119  2.4769
    9CHL1  H27C  666   2.896   3.283   8.860  1.0780  1.4219  0.1969
   10CHL1    C3  667   2.977   6.267  10.327  0.2928  0.1598  0.4091
   10CHL1    H3  668   3.083   6.299  10.322  0.4541 -0.0740  1.9211
   10CHL1    O3  669   2.922   6.319  10.447 -0.4085  0.5696 -0.0440
   10CHL1   H3'  670   3.004   6.341  10.492  0.2921  0.3749 -1.1648
   10CHL1    C4  671   2.898   6.326  10.215 -0.0262  0.3117 -0.1397
   10CHL1   H4A  672   2.789   6.312  10.231 -0.2774  1.4623 -0.7721
   10CHL1   H4B  673   2.912   6.435  10.204 -2.1467  0.4825 -1.8234
   10CHL1    C5  674   2.939   6.275  10.077 -0.3221  0.1798 -0.0961
   10CHL1    C6  675   2.990   6.356   9.987 -0.6786 -0.1923  0.0641
   10CHL1    H6  676   3.026   6.457  10.014  1.5375 -0.9501  0.2013
   10CHL1    C7  677   3.028   6.315   9.848  0.2077 -0.5312 -0.7193
   10CHL1   H7A  678   2.990   6.393   9.780 -1.0535  0.5619  1.1311
   10CHL1   H7B  679   3.137   6.303   9.836  0.6123  2.2506 -0.4429
   10CHL1    C8  680   2.962   6.183   9.819  0.1314  0.2938 -0.6161
   10CHL1    H8  681   2.853   6.194   9.804  0.1747  1.0212 -0.4230
   10CHL1   C14  682   3.025   6.138   9.685  0.4334 -0.0213 -0.6252
   10CHL1   H14  683   3.127   6.106   9.713 -0.3467 -2.7969 -0.6407
   10CHL1   C15  684   3.014   6.236   9.564  0.0720  0.0721 -0.3342
   10CHL1  H15A  685   2.912   6.281   9.556  0.2197  0.3642 -0.5767
   10CHL1  H15B  686   3.089   6.317   9.572  0.5749 -0.4946  1.0220
   10CHL1   C16  687   3.021   6.148   9.439  0.9669  0.8144 -0.2219
   10CHL1  H16A  688   2.924   6.153   9.385  0.3866  0.0703  0.7211
   10CHL1  H16B  689   3.098   6.194   9.373  1.5224  0.2340  0.0191
   10CHL1   C17  690   3.040   6.003   9.491 -0.6780 -0.5021 -0.2040
   10CHL1   H17  691   3.148   5.984   9.505 -0.4618 -0.6701 -1.8594
   10CHL1   C13  692   2.975   6.006   9.631 -0.1271 -0.2422  0.1289
   10CHL1   C18  693   2.820   6.014   9.609  0.2833 -0.6882 -0.1467
   10CHL1  H18A  694   2.798   6.103   9.546 -0.8607  0.8417  2.3028
   10CHL1  H18B  695   2.782   5.920   9.563  0.0556  0.0697 -1.5895
   10CHL1  H18C  696   2.767   6.013   9.706 -0.1878 -0.9001 -0.4029
   10CHL1   C12  697   3.007   5.893   9.733 -0.5111 -0.0753 -0.0106
   10CHL1  H12A  698   2.962   5.793   9.713  1.1409 -0.9374  0.3678
   10CHL1  H12B  699   3.118   5.880   9.731 -0.5409 -0.4974  0.7285
   10CHL1   C11  700   2.969   5.930   9.880  0.0139 -0.1476  0.2103
   10CHL1  H11A  701   2.861   5.911   9.895 -0.0410 -1.0559 -1.2545
   10CHL1  H11B  702   3.020   5.853   9.943  1.2115 -0.6855 -1.3562
   10CHL1    C9  703   3.000   6.083   9.924 -0.0482  0.8884  0.2383
   10CHL1    H9  704   3.109   6.095   9.939 -0.2320  0.7112  1.9504
   10CHL1   C10  705   2.939   6.121  10.059 -0.4669  0.5428 -0.7095
   10CHL1   C19  706   2.791   6.081  10.078  0.6294 -0.8640  0.5175
   10CHL1  H19A  707   2.790   5.974  10.107 -2.2656 -1.3563 -1.0580
   10CHL1  H19B  708   2.734   6.133  10.158 -0.2557 -1.4625  0.2948
   10CHL1  H19C  709   2.738   6.097   9.982  1.8800  0.4535  0.0095
   10CHL1    C1  710   3.023   6.063  10.179  0.5709  0.1812  0.4948
   10CHL1   H1A  711   3.017   5.952  10.182  1.2347  0.1443  0.6197
   10CHL1   H1B  712   3.128   6.097  10.166  0.7951 -1.3583 -2.5286
   10CHL1    C2  713   2.972   6.114  10.325 -0.5222  0.0156 -0.5411
   10CHL1   H2A  714   3.026   6.067  10.410  1.0804  1.7049 -0.5512
   10CHL1   H2B  715   2.870   6.070  10.325 -0.3655 -0.3494 -0.4207
   10CHL1   C20  716   2.989   5.902   9.389  0.0244  0.5999  0.3368
   10CHL1   H20  717   2.944   5.823   9.453  1.1038 -0.4082 -0.1288
   10CHL1   C21  718   3.113   5.840   9.315 -0.4320 -0.2243 -0.2809
   10CHL1  H21A  719   3.150   5.912   9.240 -2.5542  1.8006  0.5010
   10CHL1  H21B  720   3.083   5.749   9.258  2.8611 -0.9007 -1.1246
   10CHL1  H21C  721   3.201   5.807   9.374 -2.1231 -3.1853  0.8178
   10CHL1   C22  722   2.891   5.953   9.284 -0.4027  0.0450  0.0152
   10CHL1  H22A  723   2.801   5.993   9.336 -0.5454 -1.3994  0.9315
   10CHL1  H22B  724   2.950   6.017   9.215 -1.4399  2.2602  1.0864
   10CHL1   C23  725   2.839   5.846   9.187 -0.3350  0.0729  0.1038
   10CHL1  H23A  726   2.916   5.795   9.126  0.0350  1.9041 -1.0679
   10CHL1  H23B  727   2.771   5.774   9.236  0.5368  0.1008  1.4013
   10CHL1   C24  728   2.754   5.914   9.070 -0.5952 -0.6548 -1.2108
   10CHL1  H24A  729   2.680   5.980   9.122  1.3029  0.8159 -0.2434
   10CHL1  H24B  730   2.826   5.978   9.014  1.3911 -2.1869 -0.5088
   10CHL1   C25  731   2.697   5.806   8.981  0.4022 -0.4672  0.4128
   10CHL1   H25  732   2.704   5.713   9.041  3.5320  0.6027  1.9553
   10CHL1   C26  733   2.561   5.830   8.921  0.1220 -0.2760  0.1201
   10CHL1  H26A  734   2.559   5.915   8.849 -1.1302  1.5194  2.1474
   10CHL1  H26B  735   2.522   5.740   8.869  0.6661  0.7282 -2.1625
   10CHL1  H26C  736   2.489   5.842   9.005  1.5239  1.7074  1.1314
   10CHL1   C27  737   2.804   5.785   8.864 -0.5348  0.3003  0.4527
   10CHL1  H27A  738   2.906   5.760   8.901 -0.0197 -0.5590 -1.4151
   10CHL1  H27B  739   2.777   5.700   8.798 -1.4605  0.5927  0.4514
   10CHL1  H27C  740   2.811   5.881   8.808 -0.7408  0.7146  1.1283
   11CHL1    C3  741   0.144   2.335  10.091  0.4200 -1.1347 -0.2980
   11CHL1    H3  742   0.111   2.243  10.039  1.0891 -1.8494  0.5147
   11CHL1    O3  743   0.197   2.304  10.222 -0.0604 -0.4301  0.4177
   11CHL1   H3'  744   0.212   2.394  10.254 -1.1660 -0.3512  0.7625
   11CHL1    C4  745   0.255   2.409  10.015 -0.0338  0.3855  0.3085
   11CHL1   H4A  746   0.273   2.496  10.081  1.7026 -0.0591  0.4866
   11CHL1   H4B  747   0.348   2.347  10.020 -0.6354 -0.5413  0.1834
   11CHL1    C5  748   0.219   2.465   9.879 -0.5236  0.2443  0.8571
   11CHL1    C6  749   0.297   2.439   9.772 -0.2154 -0.1404 -0.2214
   11CHL1    H6  750   0.383   2.371   9.785 -0.4298 -0.1411  1.3250
   11CHL1    C7  751   0.274   2.503   9.636  0.0533 -0.6954 -0.7790
   11CHL1   H7A  752   0.374   2.543   9.606 -0.7315  1.5469 -0.5971
   11CHL1   H7B  753   0.255   2.419   9.567  2.7760 -1.1286 -1.1125
   11CHL1    C8  754   0.158   2.614   9.639  0.3036 -0.6410 -0.8288
   11CHL1    H8  755   0.205   2.702   9.688 -0.7297 -1.0301  0.9436
   11CHL1   C14  756   0.107   2.639   9.501  0.0342  0.2404  0.0373
   11CHL1   H14  757   0.057   2.545   9.469  0.0735  0.8860 -2.0484
   11CHL1   C15  758   0.224   2.664   9.395  0.3327  0.4954 -0.1927
   11CHL1  H15A  759   0.303   2.726   9.443 -0.3428  1.8081 -0.7446
   11CHL1  H15B  760   0.283   2.574   9.368  1.6977  0.7597  1.6584
   11CHL1   C16  761   0.152   2.749   9.293  1.1446 -0.1875 -0.7787
   11CHL1  H16A  762   0.200   2.848   9.279 -0.2151  0.8443  1.4164
   11CHL1  H16B  763   0.166   2.694   9.197 -0.6799 -2.4635  0.1734
   11CHL1   C17  764  -0.000   2.752   9.327 -0.4828  0.2206 -0.7291
   11CHL1   H17  765  -0.047   2.663   9.281 -0.2314 -0.3536  0.1115
   11CHL1   C13  766   0.003   2.739   9.487 -0.4511 -0.1953  0.2692
   11CHL1   C18  767   0.049   2.877   9.548  0.0868  1.0292 -0.3568
   11CHL1  H18A  768  -0.043   2.939   9.543 -2.1446 -2.0344 -0.1388
   11CHL1  H18B  769   0.072   2.866   9.656 -0.6894  0.5775 -0.2312
   11CHL1  H18C  770   0.138   2.912   9.492  0.5414 -1.6689 -1.5277
   11CHL1   C12  771  -0.116   2.684   9.554 -0.2502  0.0808  0.4376
   11CHL1  H12A  772  -0.205   2.751   9.560 -0.0305  0.3092  1.3175
   11CHL1  H12B  773  -0.138   2.594   9.493 -0.8439  0.3411  0.2576
   11CHL1   C11  774  -0.086   2.642   9.697  0.3380  0.0208  0.3280
   11CHL1  H11A  775  -0.085   2.734   9.759  1.5742  0.4691 -0.3385
   11CHL1  H11B  776  -0.166   2.577   9.738  0.5729 -0.1242  0.5598
   11CHL1    C9  777   0.048   2.559   9.730  1.3103 -0.0806 -0.5667
   11CHL1    H9  778   0.021   2.454   9.705  0.0586 -0.1077  0.7821
   11CHL1   C10  779   0.089   2.545   9.882  0.1496 -0.4566 -0.4281
   11CHL1   C19  780   0.126   2.679   9.946  0.2066 -0.0728 -1.1203
   11CHL1  H19A  781   0.045   2.754   9.934  0.7454  0.8260  0.5374
   11CHL1  H19B  782   0.159   2.661  10.051 -0.8437 -0.1214 -0.7933
   11CHL1  H19C  783   0.212   2.729   9.895  1.6317  0.6861  1.8040
   11CHL1    C1  784  -0.021   2.475   9.964  0.8167 -0.7484  0.2033
   11CHL1   H1A  785  -0.102   2.550   9.958  0.5059 -1.1962 -3.3573
   11CHL1   H1B  786  -0.068   2.385   9.918  2.2585 -1.6235  0.3627
   11CHL1    C2  787   0.021   2.426  10.102  0.0786  0.0798  0.2724
   11CHL1   H2A  788  -0.068   2.369  10.135 -0.0910 -0.0171 -0.3382
   11CHL1   H2B  789   0.032   2.511  10.172 -0.4532  0.4591 -0.0982
   11CHL1   C20  790  -0.067   2.878   9.271 -0.2125 -0.2384  0.4838
   11CHL1   H20  791  -0.028   2.972   9.316 -0.5775  0.6980 -1.0933
   11CHL1   C21  792  -0.219   2.873   9.298  0.1346 -0.3275  0.6217
   11CHL1  H21A  793  -0.280   2.946   9.241 -0.3312  0.1620  1.7191
   11CHL1  H21B  794  -0.244   2.901   9.402  1.5556  2.9661  0.2053
   11CHL1  H21C  795  -0.249   2.769   9.273 -0.8069 -0.1234  0.8422
   11CHL1   C22  796  -0.046   2.900   9.112  0.8734  0.7149 -0.0619
   11CHL1  H22A  797  -0.107   2.989   9.082 -0.0564 -0.4474 -1.7833
   11CHL1  H22B  798   0.059   2.928   9.088  1.0011 -0.2834 -0.7126
   11CHL1   C23  799  -0.080   2.773   9.031  0.4594 -0.9267 -0.6348
   11CHL1  H23A  800  -0.038   2.687   9.088 -0.0840  1.8167  4.5943
   11CHL1  H23B  801  -0.191   2.763   9.036  0.2476  1.2544  0.2200
   11CHL1   C24  802  -0.026   2.797   8.889  0.8334 -0.0415  0.0683
   11CHL1  H24A  803  -0.061   2.712   8.827 -0.8467 -0.7363  1.8624
   11CHL1  H24B  804  -0.067   2.893   8.852  0.8853  0.2003  0.6324
   11CHL1   C25  805   0.127   2.823   8.871 -0.5923  0.6206  0.0444
   11CHL1   H25  806   0.172   2.912   8.918 -1.6868  2.7041 -2.6023
   11CHL1   C26  807   0.202   2.693   8.908 -0.2047 -0.6845 -0.3831
   11CHL1  H26A  808   0.172   2.613   8.837  0.2874 -2.0984  0.9350
   11CHL1  H26B  809   0.312   2.709   8.907 -0.2907 -0.1115 -0.6821
   11CHL1  H26C  810   0.173   2.648   9.005  0.5116  0.5518  0.4282
   11CHL1   C27  811   0.154   2.862   8.726 -0.4830  0.0510 -0.4825
   11CHL1  H27A  812   0.262   2.865   8.701 -0.8702 -2.0465 -2.7855
   11CHL1  H27B  813   0.107   2.785   8.661 -0.3350  0.2552 -0.8339
   11CHL1  H27C  814   0.107   2.962   8.710 -1.0538 -0.2328 -0.6167
   12CHL1    C3  815   2.586   0.283  10.376  0.7278 -0.1119 -0.0358
   12CHL1    H3  816   2.638   0.185  10.385  2.6036  0.7798 -0.6443
   12CHL1    O3  817   2.631   0.358  10.488  0.5115  0.0427  0.6094
   12CHL1   H3'  818   2.581   0.440  10.482  0.3520 -0.1514 -1.2028
   12CHL1    C4  819   2.641   0.350  10.250 -0.9199 -0.4168  0.1436
   12CHL1   H4A  820   2.617   0.458  10.263 -0.9865 -0.5972  1.7480
   12CHL1   H4B  821   2.751   0.334  10.257 -1.1987 -1.9240  1.8701
   12CHL1    C5  822   2.587   0.298  10.115  1.0082  0.0385  0.0422
   12CHL1    C6  823   2.670   0.266  10.013  0.2204 -0.5444  0.0629
   12CHL1    H6  824   2.776   0.293  10.024 -0.0416 -0.3869  2.9734
   12CHL1    C7  825   2.610   0.220   9.879  0.0550 -0.3941  0.6174
   12CHL1   H7A  826   2.661   0.272   9.795 -2.5542 -0.6041 -1.2103
   12CHL1   H7B  827   2.653   0.118   9.882  3.2006  0.8082  2.3580
   12CHL1    C8  828   2.457   0.225   9.865  0.4468  0.4790 -0.3282
   12CHL1    H8  829   2.430   0.327   9.831 -0.5206  0.3847  0.1075
   12CHL1   C14  830   2.404   0.118   9.760  0.2674  0.2148 -0.1500
   12CHL1   H14  831   2.416   0.016   9.802  1.5417 -0.1557 -1.3318
   12CHL1   C15  832   2.462   0.126   9.615  0.3746  0.2004 -1.0829
   12CHL1  H15A  833   2.456   0.235   9.594 -2.0258  0.6003  1.0452
   12CHL1  H15B  834   2.567   0.092   9.612  0.5026 -0.1314  2.3193
   12CHL1   C16  835   2.362   0.044   9.538 -0.4003  0.4007  0.6128
   12CHL1  H16A  836   2.340   0.107   9.449 -2.0471 -0.1884  0.5740
   12CHL1  H16B  837   2.411  -0.051   9.507  1.3150  1.7069 -0.9560
   12CHL1   C17  838   2.235   0.024   9.618  0.0158  0.0881 -0.3444
   12CHL1   H17  839   2.247  -0.072   9.673  0.4455  1.2640  1.7098
   12CHL1   C13  840   2.250   0.131   9.730  0.0615  0.4337 -1.0318
   12CHL1   C18  841   2.207   0.282   9.691 -0.0470 -0.3180 -0.3718
   12CHL1  H18A  842   2.228   0.348   9.778  1.3717 -0.8597 -0.2688
   12CHL1  H18B  843   2.250   0.336   9.604 -0.0572  1.5336  0.7277
   12CHL1  H18C  844   2.097   0.278   9.674  0.2740 -2.2170 -2.4430
   12CHL1   C12  845   2.177   0.103   9.862 -0.8960  0.1987  0.3906
   12CHL1  H12A  846   2.069   0.117   9.840 -0.4114  0.3897 -2.1046
   12CHL1  H12B  847   2.198  -0.002   9.891  3.9682  0.2793 -1.8163
   12CHL1   C11  848   2.232   0.193   9.973  0.2505 -0.5580 -0.3848
   12CHL1  H11A  849   2.189   0.295   9.957  0.7732 -0.3276 -0.3375
   12CHL1  H11B  850   2.197   0.152  10.071  1.6779 -0.0760  0.3596
   12CHL1    C9  851   2.387   0.196   9.991 -0.2985  0.1787  0.6343
   12CHL1    H9  852   2.411   0.091  10.019 -0.7987 -0.2520 -0.5018
   12CHL1   C10  853   2.437   0.275  10.111  0.4994  0.4875  0.0138
   12CHL1   C19  854   2.372   0.412  10.092 -0.0760 -0.3076  0.0465
   12CHL1  H19A  855   2.270   0.405  10.134  0.6124 -3.3290  1.4520
   12CHL1  H19B  856   2.425   0.487  10.155 -1.9843 -0.9404  2.5963
   12CHL1  H19C  857   2.354   0.444   9.987  0.6130  0.8249  0.2511
   12CHL1    C1  858   2.394   0.198  10.244  0.1204 -0.2997  0.7155
   12CHL1   H1A  859   2.284   0.202  10.258  0.4308  0.9691  3.1928
   12CHL1   H1B  860   2.434   0.094  10.235  0.0232 -0.1863 -1.9023
   12CHL1    C2  861   2.433   0.260  10.374 -0.2135 -0.6686  0.3187
   12CHL1   H2A  862   2.405   0.193  10.458 -1.3594 -2.2848 -1.2754
   12CHL1   H2B  863   2.380   0.358  10.379 -0.8966 -0.9451 -1.0209
   12CHL1   C20  864   2.112   0.039   9.521 -0.3582 -0.3398  0.2248
   12CHL1   H20  865   2.100   0.146   9.494 -0.6472 -0.2904  0.5491
   12CHL1   C21  866   1.987  -0.014   9.590 -0.2201  0.6935  0.0345
   12CHL1  H21A  867   1.957   0.044   9.680 -0.5538  1.4538 -0.5542
   12CHL1  H21B  868   2.010  -0.118   9.623 -2.3472  0.4671  0.9952
   12CHL1  H21C  869   1.898  -0.010   9.524 -1.2095 -0.6987  1.2163
   12CHL1   C22  870   2.114  -0.023   9.380  0.0255 -0.2369 -0.3506
   12CHL1  H22A  871   2.209   0.006   9.330 -0.7434  1.6188 -0.8286
   12CHL1  H22B  872   2.122  -0.133   9.389  1.8105 -0.1916 -0.9085
   12CHL1   C23  873   2.014   0.018   9.275  0.1768  0.0325 -0.0210
   12CHL1  H23A  874   1.919  -0.018   9.321  1.4296 -1.9403  1.1857
   12CHL1  H23B  875   1.997   0.126   9.257 -0.8140  0.1701  1.5577
   12CHL1   C24  876   2.042  -0.053   9.141  0.0254  0.3413 -0.8445
   12CHL1  H24A  877   2.135  -0.023   9.088  0.1105  0.5499 -0.5800
   12CHL1  H24B  878   2.034  -0.162   9.157 -0.9999  0.7770  2.1942
   12CHL1   C25  879   1.929  -0.015   9.041 -0.7665 -0.1703  0.3891
   12CHL1   H25  880   1.834  -0.048   9.087 -1.7405  1.0634 -0.6833
   12CHL1   C26  881   1.915   0.139   9.014  0.1517  0.6969 -0.8346
   12CHL1  H26A  882   1.849   0.176   9.095  0.4301 -0.7894  0.1097
   12CHL1  H26B  883   2.018   0.180   9.002  1.1159 -1.0295  0.9490
   12CHL1  H26C  884   1.851   0.153   8.924  1.2489  0.9963 -1.5904
   12CHL1   C27  885   1.936  -0.105   8.910 -0.7226  0.4090  0.2399
   12CHL1  H27A  886   2.028  -0.077   8.854 -0.4332  3.0912  1.8615
   12CHL1  H27B  887   1.943  -0.213   8.938 -1.4681  0.3268  0.1199
   12CHL1  H27C  888   1.851  -0.079   8.844 -1.0273 -1.9907 -0.4109
   13CHL1    C3  889   2.801   1.329  10.027  0.2052 -0.0083  0.3461
   13CHL1    H3  890   2.709   1.273  10.001  1.4739 -1.7612 -0.6017
   13CHL1    O3  891   2.833   1.321  10.164 -0.5857  0.9527  0.0868
   13CHL1   H3'  892   2.907   1.381  10.177  0.6466 -0.8647  2.1734
   13CHL1    C4  893   2.920   1.277   9.948 -0.4691 -0.0101  0.1626
   13CHL1   H4A  894   3.006   1.338   9.983 -0.1781  0.4077 -1.2208
   13CHL1   H4B  895   2.949   1.172   9.972 -1.9620  0.1424  3.1354
   13CHL1    C5  896   2.902   1.294   9.799 -0.3978 -0.7915  0.4849
   13CHL1    C6  897   2.910   1.179   9.722  0.2573 -0.5781 -0.8873
   13CHL1    H6  898   2.932   1.085   9.775 -0.7800 -0.9126 -1.0380
   13CHL1    C7  899   2.891   1.188   9.572 -0.4665 -0.4158  0.0767
   13CHL1   H7A  900   2.977   1.147   9.515  0.9547  0.5082  1.4395
   13CHL1   H7B  901   2.800   1.134   9.540  0.5888 -2.1577 -0.1025
   13CHL1    C8  902   2.893   1.332   9.516 -0.8803 -0.7999 -0.0997
   13CHL1    H8  903   3.000   1.364   9.522 -1.2405  0.3307  0.7276
   13CHL1   C14  904   2.839   1.329   9.368  0.1048 -0.3591  0.5142
   13CHL1   H14  905   2.729   1.311   9.376  0.3089 -1.8872  0.0739
   13CHL1   C15  906   2.887   1.225   9.264 -0.7592  0.6411  0.1729
   13CHL1  H15A  907   2.998   1.225   9.257 -0.7898 -0.5767 -0.6246
   13CHL1  H15B  908   2.851   1.121   9.273 -0.6074  0.4641 -1.1211
   13CHL1   C16  909   2.834   1.272   9.124  0.0654  0.4374 -0.2817
   13CHL1  H16A  910   2.910   1.293   9.046 -0.9652  0.7451 -1.2259
   13CHL1  H16B  911   2.761   1.203   9.075  0.8884 -0.7144  0.0667
   13CHL1   C17  912   2.771   1.412   9.160  0.2969 -0.6323 -0.9860
   13CHL1   H17  913   2.666   1.385   9.186  0.4150 -0.9773 -0.8628
   13CHL1   C13  914   2.835   1.461   9.293  0.6911 -0.2842  1.1115
   13CHL1   C18  915   2.973   1.522   9.265 -0.5230 -0.8722  0.9953
   13CHL1  H18A  916   2.970   1.626   9.225  0.0374 -0.5126  1.8687
   13CHL1  H18B  917   3.036   1.515   9.356  0.2610  0.5428  0.5962
   13CHL1  H18C  918   3.020   1.463   9.184 -1.9886 -0.1326 -0.4448
   13CHL1   C12  919   2.752   1.560   9.375 -0.7948  0.9816  0.6472
   13CHL1  H12A  920   2.740   1.663   9.336  2.3863  0.6526 -1.6247
   13CHL1  H12B  921   2.649   1.519   9.384 -1.2127  1.5465 -1.1481
   13CHL1   C11  922   2.806   1.571   9.522  0.5185 -0.2238  0.3176
   13CHL1  H11A  923   2.911   1.608   9.514  1.5443 -2.5310  2.0578
   13CHL1  H11B  924   2.748   1.648   9.577 -1.4894 -1.9607  0.7305
   13CHL1    C9  925   2.812   1.435   9.595  0.0641  0.4996  0.1493
   13CHL1    H9  926   2.703   1.412   9.602 -0.2609  1.4781 -1.1271
   13CHL1   C10  927   2.860   1.426   9.741  0.1366 -0.8993 -0.1776
   13CHL1   C19  928   2.984   1.528   9.760  0.2242  0.3673  0.1163
   13CHL1  H19A  929   2.946   1.631   9.741 -3.4845 -0.7289  0.7562
   13CHL1  H19B  930   3.026   1.515   9.861 -0.1098  1.6737  0.4396
   13CHL1  H19C  931   3.058   1.512   9.678  0.9873 -0.1542  0.8934
   13CHL1    C1  932   2.745   1.478   9.832 -0.6334  0.1922  0.0250
   13CHL1   H1A  933   2.729   1.583   9.801  0.7836 -0.0003 -1.4992
   13CHL1   H1B  934   2.647   1.427   9.820  0.7557 -2.7403  0.2532
   13CHL1    C2  935   2.769   1.472   9.985 -0.1825 -0.3545  0.9485
   13CHL1   H2A  936   2.685   1.510  10.046 -0.9735  0.4858 -0.6104
   13CHL1   H2B  937   2.857   1.540   9.999 -1.0381  0.6145  1.7764
   13CHL1   C20  938   2.765   1.504   9.041  0.1010 -0.2263  0.4923
   13CHL1   H20  939   2.860   1.531   8.989  0.2133  0.2146  0.9210
   13CHL1   C21  940   2.706   1.645   9.076 -0.2920 -0.3376 -0.9308
   13CHL1  H21A  941   2.768   1.713   9.138  0.8895 -2.7024  0.5843
   13CHL1  H21B  942   2.613   1.635   9.136  1.4151 -1.6079  1.6415
   13CHL1  H21C  943   2.682   1.706   8.986 -0.6160  2.0806  0.6773
   13CHL1   C22  944   2.679   1.452   8.923  0.3375 -0.4923  0.5862
   13CHL1  H22A  945   2.708   1.346   8.903 -1.6629 -0.9957  0.1627
   13CHL1  H22B  946   2.572   1.463   8.948 -0.1741 -0.0129 -1.6712
   13CHL1   C23  947   2.700   1.530   8.789 -0.8265  0.4795 -0.6271
   13CHL1  H23A  948   2.679   1.639   8.792  3.6560  1.5820 -2.0267
   13CHL1  H23B  949   2.811   1.526   8.779 -0.7194 -0.2770  0.5444
   13CHL1   C24  950   2.642   1.467   8.670 -0.5104  0.1148  0.0760
   13CHL1  H24A  951   2.690   1.366   8.670  4.5512  2.2259 -0.6078
   13CHL1  H24B  952   2.533   1.452   8.684 -0.5132  1.1430  1.4007
   13CHL1   C25  953   2.681   1.534   8.540 -0.0915  0.2407  0.2260
   13CHL1   H25  954   2.792   1.538   8.534  0.1645 -3.9276 -0.6243
   13CHL1   C26  955   2.640   1.444   8.418  0.0357 -0.2778 -0.1366
   13CHL1  H26A  956   2.711   1.474   8.338 -0.9670  1.7944 -0.3367
   13CHL1  H26B  957   2.657   1.337   8.438  0.7217 -0.2426 -0.5060
   13CHL1  H26C  958   2.540   1.464   8.373  0.5490  3.1371 -0.0333
   13CHL1   C27  959   2.615   1.674   8.525 -0.1237 -0.0155  1.4326
   13CHL1  H27A  960   2.662   1.727   8.439  0.5477 -1.6453  0.7506
   13CHL1  H27B  961   2.506   1.668   8.504 -0.1288  3.1836 -0.0666
   13CHL1  H27C  962   2.632   1.739   8.613  0.8420  1.1822  0.3935
   14CHL1    C3  963   6.460   3.926  10.268  0.1527  0.0838 -0.3254
   14CHL1    H3  964   6.568   3.927  10.292  0.4176 -0.4856 -1.3897
   14CHL1    O3  965   6.393   3.933  10.389  0.2992  0.6943 -0.1447
   14CHL1   H3'  966   6.407   3.846  10.427  0.9086 -0.2340 -2.3728
   14CHL1    C4  967   6.404   4.029  10.176 -0.1688  0.1291  0.1485
   14CHL1   H4A  968   6.294   4.013  10.161 -0.8051  2.4718  1.8616
   14CHL1   H4B  969   6.412   4.130  10.220  0.2041  0.1626  0.0074
   14CHL1    C5  970   6.474   4.017  10.043  0.0714 -0.4646 -0.9885
   14CHL1    C6  971   6.526   4.124   9.983  0.1904 -0.1245  0.5514
   14CHL1    H6  972   6.502   4.228  10.008  0.3939  1.0036 -3.2083
   14CHL1    C7  973   6.609   4.114   9.852 -0.1274 -0.5789  0.2194
   14CHL1   H7A  974   6.601   4.199   9.781 -0.6944 -1.9536 -1.4248
   14CHL1   H7B  975   6.714   4.109   9.887  0.4620 -0.9577 -1.4628
   14CHL1    C8  976   6.588   3.978   9.774  0.1197  0.0557  0.2616
   14CHL1    H8  977   6.486   3.989   9.731 -0.5988  0.4998  2.0013
   14CHL1   C14  978   6.695   3.960   9.664 -0.3440  0.0538  0.2179
   14CHL1   H14  979   6.794   3.944   9.712  0.3444  2.1421 -0.3637
   14CHL1   C15  980   6.723   4.075   9.555 -0.0401  0.4643 -0.9118
   14CHL1  H15A  981   6.622   4.117   9.535 -0.9500 -1.6620 -1.0421
   14CHL1  H15B  982   6.793   4.152   9.593  0.7696 -0.5604 -0.2795
   14CHL1   C16  983   6.783   4.003   9.436 -0.1816 -0.8206  0.6066
   14CHL1  H16A  984   6.737   4.042   9.343  0.7085  0.1926  0.5735
   14CHL1  H16B  985   6.892   4.024   9.438 -0.2192 -0.0225 -1.9738
   14CHL1   C17  986   6.773   3.851   9.461  0.9900 -0.2415  0.1396
   14CHL1   H17  987   6.866   3.833   9.520 -0.0028 -0.1160  1.7960
   14CHL1   C13  988   6.667   3.836   9.575 -0.0784 -0.8207  0.3096
   14CHL1   C18  989   6.529   3.839   9.506  0.1833 -0.3217 -0.4569
   14CHL1  H18A  990   6.522   3.914   9.425 -1.6336 -0.4556 -0.4627
   14CHL1  H18B  991   6.483   3.743   9.474 -1.7721  1.2270 -2.6413
   14CHL1  H18C  992   6.450   3.874   9.576  0.5116 -0.4500 -0.0176
   14CHL1   C12  993   6.682   3.719   9.671  0.7822  0.4915 -0.2613
   14CHL1  H12A  994   6.663   3.633   9.603 -0.8010  1.2092 -0.7584
   14CHL1  H12B  995   6.790   3.723   9.700  0.5365  1.8713  0.5636
   14CHL1   C11  996   6.584   3.720   9.789  0.4390  0.4025 -0.0432
   14CHL1  H11A  997   6.489   3.708   9.733  1.1525  0.8551 -1.3846
   14CHL1  H11B  998   6.594   3.633   9.857  1.2593  1.1076  0.7732
   14CHL1    C9  999   6.589   3.861   9.863 -1.0101  0.5669 -0.7799
   14CHL1    H9 1000   6.692   3.850   9.902 -1.3750 -0.0886  0.0438
   14CHL1   C10 1001   6.488   3.872   9.981 -0.1323 -0.2035  0.2893
   14CHL1   C19 1002   6.341   3.839   9.921  0.8090  0.1500 -0.7340
   14CHL1  H19A 1003   6.264   3.853  10.000 -0.0583 -1.7689 -1.1843
   14CHL1  H19B 1004   6.321   3.910   9.839  0.5827 -0.0130 -0.8185
   14CHL1  H19C 1005   6.344   3.733   9.886  1.7804 -0.4923  1.1174
   14CHL1    C1 1006   6.516   3.758  10.087  0.7991 -0.0246  0.1389
   14CHL1   H1A 1007   6.487   3.657  10.048 -1.3619 -0.3840  2.4496
   14CHL1   H1B 1008   6.624   3.766  10.112  1.0978  1.0323 -1.3587
   14CHL1    C2 1009   6.433   3.784  10.214 -0.3500 -0.2778  0.5500
   14CHL1   H2A 1010   6.456   3.719  10.301 -0.1118 -0.0400  0.6689
   14CHL1   H2B 1011   6.325   3.780  10.189 -0.2371 -0.0384  0.0069
   14CHL1   C20 1012   6.756   3.787   9.326 -0.4943  0.2929  0.3892
   14CHL1   H20 1013   6.663   3.819   9.276  0.8265  2.5295 -0.7934
   14CHL1   C21 1014   6.734   3.637   9.338 -0.0773 -0.1662  0.7290
   14CHL1  H21A 1015   6.644   3.610   9.396 -1.4272  2.7089  0.1275
   14CHL1  H21B 1016   6.825   3.595   9.387 -0.4262  0.0960  1.6198
   14CHL1  H21C 1017   6.728   3.591   9.237 -2.0295  1.0217  0.2684
   14CHL1   C22 1018   6.884   3.816   9.238 -0.6615  0.1384  0.2451
   14CHL1  H22A 1019   6.891   3.927   9.231  1.5611  0.0801  0.9360
   14CHL1  H22B 1020   6.980   3.783   9.282  0.5392  1.4773 -1.2353
   14CHL1   C23 1021   6.883   3.762   9.093  0.1178 -0.4056 -0.1410
   14CHL1  H23A 1022   6.880   3.652   9.107  0.7832 -0.2979  1.0541
   14CHL1  H23B 1023   6.789   3.798   9.046  1.2985  0.8919 -1.6332
   14CHL1   C24 1024   7.001   3.811   9.011  0.2152 -0.1234 -0.3855
   14CHL1  H24A 1025   6.994   3.918   8.981 -1.9837 -0.0323  0.2815
   14CHL1  H24B 1026   7.097   3.807   9.067  0.6640  1.5760 -0.9670
   14CHL1   C25 1027   7.030   3.716   8.898  0.1982  0.3659 -0.6013
   14CHL1   H25 1028   7.032   3.612   8.936  0.3402  0.9489  1.0789
   14CHL1   C26 1029   6.917   3.729   8.797  0.4639  0.3645  0.2321
   14CHL1  H26A 1030   6.874   3.830   8.775 -0.8632 -0.8006 -3.1740
   14CHL1  H26B 1031   6.955   3.678   8.707 -0.7197  0.2307 -0.2183
   14CHL1  H26C 1032   6.835   3.658   8.821  1.9610 -1.6000 -0.2656
   14CHL1   C27 1033   7.167   3.750   8.836 -0.0386 -0.4650  1.3277
   14CHL1  H27A 1034   7.250   3.733   8.907 -0.0802  1.9223  2.0408
   14CHL1  H27B 1035   7.192   3.692   8.745  1.8511  1.0160  0.8292
   14CHL1  H27C 1036   7.159   3.859   8.813  2.2883 -0.3995  0.5705
   15CHL1    C3 1037   1.323   2.008   9.963  0.7598  0.5444 -0.3446
   15CHL1    H3 1038   1.342   2.114   9.938 -0.9778  1.0138  0.1925
   15CHL1    O3 1039   1.317   1.994  10.104  0.4182  0.7471  0.4510
   15CHL1   H3' 1040   1.238   2.039  10.136 -0.2933  0.7791 -1.2545
   15CHL1    C4 1041   1.190   1.987   9.908  0.1666  0.3565  1.2840
   15CHL1   H4A 1042   1.156   1.883   9.929 -0.0126  0.2518  0.5376
   15CHL1   H4B 1043   1.120   2.060   9.954  0.0270  0.1205  1.4500
   15CHL1    C5 1044   1.187   1.995   9.753 -0.5473  0.3522 -0.1209
   15CHL1    C6 1045   1.119   2.090   9.695 -0.3424  0.4733  0.2425
   15CHL1    H6 1046   1.052   2.151   9.758  0.6769  0.9821  0.8631
   15CHL1    C7 1047   1.096   2.092   9.544 -0.1243 -0.2264 -0.1469
   15CHL1   H7A 1048   0.989   2.091   9.516  0.7451  0.4191 -4.0617
   15CHL1   H7B 1049   1.143   2.186   9.507 -0.8314 -0.1074 -0.7596
   15CHL1    C8 1050   1.171   1.975   9.467  0.6744 -0.4630  0.4332
   15CHL1    H8 1051   1.101   1.890   9.467 -0.3766  0.3816 -0.1150
   15CHL1   C14 1052   1.199   2.023   9.321  0.2598 -0.2309  0.2083
   15CHL1   H14 1053   1.267   2.108   9.344  1.4958 -0.6775 -1.5998
   15CHL1   C15 1054   1.087   2.074   9.233  0.1144 -0.5616 -0.4579
   15CHL1  H15A 1055   1.006   1.999   9.224  1.1490 -1.8204  0.2840
   15CHL1  H15B 1056   1.053   2.175   9.262  0.7350 -0.8570  1.4106
   15CHL1   C16 1057   1.155   2.085   9.093 -0.3811 -0.0586  0.2517
   15CHL1  H16A 1058   1.086   2.035   9.021  0.6653  0.5556 -1.2228
   15CHL1  H16B 1059   1.166   2.194   9.075 -1.5462 -0.3277 -2.5705
   15CHL1   C17 1060   1.297   2.016   9.113  0.0514 -0.1408  0.0156
   15CHL1   H17 1061   1.360   2.106   9.133 -0.0504 -0.4718  1.9825
   15CHL1   C13 1062   1.283   1.926   9.233  0.4671  0.5538  0.1450
   15CHL1   C18 1063   1.198   1.799   9.204  0.0371 -0.0412  0.1032
   15CHL1  H18A 1064   1.258   1.725   9.147 -2.3902 -1.3438 -0.9644
   15CHL1  H18B 1065   1.180   1.757   9.305  0.9687  0.9381  0.6883
   15CHL1  H18C 1066   1.100   1.824   9.157 -0.1312  0.5392  0.7495
   15CHL1   C12 1067   1.415   1.898   9.309  0.2219 -0.0968  0.6028
   15CHL1  H12A 1068   1.491   1.845   9.247  1.9461  2.5440  0.2961
   15CHL1  H12B 1069   1.457   2.001   9.313  2.5874 -0.9109 -1.2074
   15CHL1   C11 1070   1.393   1.847   9.451  0.3147  0.3219 -0.0907
   15CHL1  H11A 1071   1.353   1.743   9.446  0.6693  0.1516  0.4189
   15CHL1  H11B 1072   1.492   1.850   9.502  0.2092  0.8915  0.0943
   15CHL1    C9 1073   1.307   1.944   9.537  0.3288 -0.0946 -0.2548
   15CHL1    H9 1074   1.351   2.046   9.530 -1.3213  0.7105  0.5913
   15CHL1   C10 1075   1.285   1.898   9.682  0.0363  0.3467 -0.5112
   15CHL1   C19 1076   1.228   1.751   9.685 -0.1608 -0.3250  0.1279
   15CHL1  H19A 1077   1.139   1.748   9.618 -0.1800  0.6304  0.1058
   15CHL1  H19B 1078   1.305   1.682   9.645  1.9293  2.5447 -1.0718
   15CHL1  H19C 1079   1.191   1.704   9.779  1.3243  0.8335  1.3387
   15CHL1    C1 1080   1.423   1.910   9.755 -0.2399 -0.4005  0.6120
   15CHL1   H1A 1081   1.480   1.819   9.727 -2.3499 -1.7270  0.4136
   15CHL1   H1B 1082   1.479   1.997   9.713 -0.6633  0.5996  2.0530
   15CHL1    C2 1083   1.423   1.908   9.907 -0.4532  0.2441 -0.7551
   15CHL1   H2A 1084   1.526   1.923   9.946  0.4018 -1.3562 -2.2514
   15CHL1   H2B 1085   1.405   1.806   9.947  0.0273  0.7453  0.8327
   15CHL1   C20 1086   1.352   1.968   8.975  0.8333  0.8408 -0.5810
   15CHL1   H20 1087   1.428   1.896   9.013 -0.0667  0.8124  1.2598
   15CHL1   C21 1088   1.413   2.088   8.903 -0.2860  0.6291  0.4975
   15CHL1  H21A 1089   1.494   2.127   8.968  0.3077 -0.8802  0.7248
   15CHL1  H21B 1090   1.333   2.162   8.881 -1.4531 -1.3856 -2.7967
   15CHL1  H21C 1091   1.469   2.053   8.814  0.0787 -2.1484  1.7152
   15CHL1   C22 1092   1.255   1.889   8.882 -0.8673 -0.1945 -0.2226
   15CHL1  H22A 1093   1.221   1.806   8.948  0.6919 -0.7734 -0.0941
   15CHL1  H22B 1094   1.182   1.964   8.845  0.3557  1.3621  0.3770
   15CHL1   C23 1095   1.331   1.819   8.771  1.0329 -0.3687 -0.3810
   15CHL1  H23A 1096   1.370   1.895   8.700 -0.1984 -0.2633 -0.9764
   15CHL1  H23B 1097   1.421   1.771   8.815  0.8915 -0.1559  0.1407
   15CHL1   C24 1098   1.232   1.730   8.700 -0.2901 -0.3163  0.2617
   15CHL1  H24A 1099   1.174   1.668   8.770 -0.9863 -0.8102 -0.7248
   15CHL1  H24B 1100   1.163   1.789   8.636  1.1470 -0.1898 -1.2674
   15CHL1   C25 1101   1.299   1.629   8.602 -0.1921  0.0485 -0.4923
   15CHL1   H25 1102   1.392   1.666   8.555  2.0540 -0.9864  2.7642
   15CHL1   C26 1103   1.354   1.504   8.685  0.6574  0.5359 -0.5801
   15CHL1  H26A 1104   1.273   1.446   8.734  1.7533 -0.2312  0.3601
   15CHL1  H26B 1105   1.417   1.436   8.624 -0.0394  0.4931 -1.2631
   15CHL1  H26C 1106   1.424   1.541   8.763  0.5643 -2.1400  0.8997
   15CHL1   C27 1107   1.199   1.595   8.490  0.2297 -0.3983  0.1035
   15CHL1  H27A 1108   1.168   1.691   8.444 -0.1927 -0.4513  0.2673
   15CHL1  H27B 1109   1.229   1.525   8.409 -0.3346  1.6438 -1.9419
   15CHL1  H27C 1110   1.108   1.554   8.540  0.4129 -1.8009 -0.6520
   16CHL1    C3 1111   2.026   2.632  10.205  0.6412 -0.1149  0.0974
   16CHL1    H3 1112   2.099   2.548  10.197 -2.9487 -3.3945 -1.3397
   16CHL1    O3 1113   2.012   2.674  10.341 -0.3692  0.6798 -0.7722
   16CHL1   H3' 1114   1.922   2.708  10.339 -0.1743  1.1597 -1.7415
   16CHL1    C4 1115   2.076   2.763  10.125  0.6822  0.5097 -0.3989
   16CHL1   H4A 1116   2.014   2.843  10.170  1.8717 -0.8588  4.2362
   16CHL1   H4B 1117   2.181   2.782  10.156  0.9245 -1.4479  0.0855
   16CHL1    C5 1118   2.069   2.745   9.973 -0.7446  0.1531 -0.0618
   16CHL1    C6 1119   2.170   2.769   9.894 -0.6757  0.0717 -0.5053
   16CHL1    H6 1120   2.264   2.804   9.938 -0.3476 -0.9788 -0.3376
   16CHL1    C7 1121   2.158   2.749   9.743  0.1411 -0.0484  0.3788
   16CHL1   H7A 1122   2.218   2.832   9.700  0.1097  1.2403  2.6777
   16CHL1   H7B 1123   2.209   2.653   9.721  0.4998 -0.1620  1.5960
   16CHL1    C8 1124   2.012   2.762   9.700  0.3186 -0.2356  0.7220
   16CHL1    H8 1125   1.980   2.867   9.714  2.3060  0.7376 -1.3600
   16CHL1   C14 1126   2.004   2.727   9.554 -0.6282 -0.1633  0.8685
   16CHL1   H14 1127   2.030   2.619   9.548 -0.6940 -0.0834 -2.0579
   16CHL1   C15 1128   2.105   2.790   9.460 -0.3213 -0.4718 -0.0284
   16CHL1  H15A 1129   2.110   2.901   9.462  1.3821 -0.5251  0.1190
   16CHL1  H15B 1130   2.210   2.758   9.478 -0.4214  0.2972  2.3439
   16CHL1   C16 1131   2.049   2.755   9.320  0.0616 -0.2721  0.3108
   16CHL1  H16A 1132   2.047   2.856   9.274  2.4803 -1.2185 -2.1152
   16CHL1  H16B 1133   2.103   2.699   9.241 -2.4574 -0.7996 -1.1416
   16CHL1   C17 1134   1.908   2.700   9.340 -0.2653 -0.7414  0.4503
   16CHL1   H17 1135   1.913   2.590   9.349 -0.4153 -0.7042  0.9868
   16CHL1   C13 1136   1.866   2.732   9.486  0.5058 -0.0663  0.0042
   16CHL1   C18 1137   1.820   2.880   9.493  0.0851 -0.0449  0.3307
   16CHL1  H18A 1138   1.804   2.927   9.593 -3.5798  0.9255 -0.5311
   16CHL1  H18B 1139   1.892   2.947   9.442 -1.3900  0.7503 -0.8103
   16CHL1  H18C 1140   1.723   2.897   9.442  1.1696 -0.0382 -1.8318
   16CHL1   C12 1141   1.769   2.628   9.563  0.3082  0.6197  0.2398
   16CHL1  H12A 1142   1.668   2.641   9.518  0.8327  1.6735 -0.6952
   16CHL1  H12B 1143   1.797   2.523   9.540 -1.7507 -0.2756  1.5283
   16CHL1   C11 1144   1.772   2.669   9.714  0.5206 -0.4699  0.0386
   16CHL1  H11A 1145   1.716   2.765   9.704 -1.0009 -1.4180 -0.8237
   16CHL1  H11B 1146   1.704   2.604   9.772  1.0679 -0.6970  0.4363
   16CHL1    C9 1147   1.915   2.673   9.776 -0.1578  0.3946  0.0724
   16CHL1    H9 1148   1.952   2.568   9.769 -1.2365  0.0389 -0.6491
   16CHL1   C10 1149   1.928   2.699   9.925  0.1122 -0.8498 -0.6190
   16CHL1   C19 1150   1.829   2.819   9.959 -0.3406  0.7793  0.4908
   16CHL1  H19A 1151   1.720   2.804   9.940 -0.4223 -0.2943  1.7109
   16CHL1  H19B 1152   1.836   2.834  10.069 -3.5724 -2.3842  1.3299
   16CHL1  H19C 1153   1.857   2.905   9.894  1.0724  1.1301  1.5135
   16CHL1    C1 1154   1.884   2.566   9.997  0.2654 -0.5393 -0.0249
   16CHL1   H1A 1155   1.781   2.534   9.971  0.1867  0.1534 -0.6107
   16CHL1   H1B 1156   1.945   2.476   9.976  2.7451  0.7219  1.2336
   16CHL1    C2 1157   1.883   2.586  10.153 -0.5266  0.8592 -0.2901
   16CHL1   H2A 1158   1.853   2.495  10.210 -0.2721  1.1818  0.3675
   16CHL1   H2B 1159   1.795   2.649  10.178 -1.4468 -0.8455  0.9847
   16CHL1   C20 1160   1.811   2.733   9.223 -0.0393 -0.2667 -0.4157
   16CHL1   H20 1161   1.800   2.844   9.229  0.5795 -0.2692  2.1722
   16CHL1   C21 1162   1.679   2.659   9.240 -0.5353  0.4134 -0.1022
   16CHL1  H21A 1163   1.707   2.551   9.242 -0.8182  0.3344 -0.2799
   16CHL1  H21B 1164   1.609   2.677   9.155 -1.9224  0.4348  0.9978
   16CHL1  H21C 1165   1.619   2.696   9.326  1.3098  3.1211  0.1279
   16CHL1   C22 1166   1.871   2.691   9.085 -0.5397 -0.0154  0.7439
   16CHL1  H22A 1167   1.982   2.693   9.078 -0.6090  0.0577 -0.4478
   16CHL1  H22B 1168   1.842   2.588   9.056 -1.0698  0.6619 -1.2870
   16CHL1   C23 1169   1.813   2.773   8.971  0.1111  0.1887  0.6912
   16CHL1  H23A 1170   1.705   2.786   8.994 -1.1408 -4.9786 -0.8983
   16CHL1  H23B 1171   1.851   2.877   8.973 -1.9543  0.9863  1.7563
   16CHL1   C24 1172   1.831   2.703   8.832  0.7184  0.3158  0.1812
   16CHL1  H24A 1173   1.932   2.726   8.791  1.1377 -1.3619  0.1988
   16CHL1  H24B 1174   1.818   2.594   8.848  1.7880  0.3368  1.3872
   16CHL1   C25 1175   1.733   2.756   8.724 -0.3947 -0.2427 -0.0861
   16CHL1   H25 1176   1.627   2.752   8.755 -0.1168  0.3378  0.9860
   16CHL1   C26 1177   1.753   2.912   8.692  0.1058 -1.0271  0.3257
   16CHL1  H26A 1178   1.748   2.970   8.787 -0.0069  1.1200 -0.9238
   16CHL1  H26B 1179   1.844   2.925   8.630 -0.6315 -2.7312 -1.2108
   16CHL1  H26C 1180   1.668   2.944   8.628 -0.0187 -2.5413 -0.3191
   16CHL1   C27 1181   1.749   2.672   8.595 -0.2844  0.3434  0.5007
   16CHL1  H27A 1182   1.808   2.714   8.510 -1.2982 -0.9456 -0.9176
   16CHL1  H27B 1183   1.781   2.566   8.610 -2.5121 -0.4710 -0.1652
   16CHL1  H27C 1184   1.644   2.664   8.561  0.2753  1.7575 -1.7789
   17CHL1    C3 1185   4.918   1.086  10.458 -0.5978  0.3286 -1.3429
   17CHL1    H3 1186   4.891   0.981  10.435 -0.3564 -0.3376  1.0901
   17CHL1    O3 1187   4.882   1.082  10.596 -0.0271  0.7882  0.6796
   17CHL1   H3' 1188   4.824   1.006  10.604  1.6809 -1.0866 -2.6142
   17CHL1    C4 1189   5.073   1.109  10.439  0.1300 -0.6996 -0.7609
   17CHL1   H4A 1190   5.101   1.211  10.473 -0.7715 -1.0388  1.1542
   17CHL1   H4B 1191   5.125   1.047  10.515  0.2159  0.9598  0.5826
   17CHL1    C5 1192   5.118   1.094  10.299 -0.4226  0.1469  0.7984
   17CHL1    C6 1193   5.226   1.021  10.262  0.1912  0.4871 -0.2170
   17CHL1    H6 1194   5.282   0.956  10.331  0.3613  0.7195 -0.1369
   17CHL1    C7 1195   5.262   1.002  10.116  0.2566  0.1464 -0.2411
   17CHL1   H7A 1196   5.373   1.002  10.110  0.2617  0.2806 -0.1368
   17CHL1   H7B 1197   5.219   0.904  10.086  1.9047 -0.9646  0.8528
   17CHL1    C8 1198   5.213   1.112  10.026 -0.1461 -0.2252 -0.2109
   17CHL1    H8 1199   5.261   1.210  10.049 -0.2240  0.5298 -2.9832
   17CHL1   C14 1200   5.232   1.073   9.882 -0.1672  0.0324 -0.1180
   17CHL1   H14 1201   5.168   0.983   9.874 -0.8020  0.5457 -0.8834
   17CHL1   C15 1202   5.368   1.034   9.837  0.2210 -0.3446  0.5431
   17CHL1  H15A 1203   5.431   1.122   9.863  0.6934  0.7858 -3.5948
   17CHL1  H15B 1204   5.409   0.936   9.870  0.2332 -0.7612 -0.6436
   17CHL1   C16 1205   5.362   1.045   9.681 -0.1813  0.3920  0.1755
   17CHL1  H16A 1206   5.441   1.114   9.645  0.7734 -1.6034 -1.8073
   17CHL1  H16B 1207   5.374   0.945   9.636 -0.7831  1.3835 -2.3541
   17CHL1   C17 1208   5.221   1.106   9.643  0.5463 -0.3122  0.1025
   17CHL1   H17 1209   5.153   1.019   9.631 -0.5959  0.4084  1.1438
   17CHL1   C13 1210   5.180   1.167   9.770 -0.1620  0.0301 -0.2635
   17CHL1   C18 1211   5.251   1.307   9.783  0.5645  0.3610 -0.0911
   17CHL1  H18A 1212   5.238   1.349   9.885  1.9130  1.1448 -0.2241
   17CHL1  H18B 1213   5.361   1.310   9.769  0.6212  0.2181  0.3122
   17CHL1  H18C 1214   5.213   1.383   9.712 -1.4920 -1.4136 -1.0012
   17CHL1   C12 1215   5.028   1.183   9.797  0.4199 -0.0080 -0.9991
   17CHL1  H12A 1216   4.990   1.266   9.733 -1.4592  0.4961  0.6589
   17CHL1  H12B 1217   4.972   1.090   9.774 -2.0405  0.9250  0.7697
   17CHL1   C11 1218   4.996   1.223   9.946 -0.4997  0.0473  0.1910
   17CHL1  H11A 1219   5.029   1.326   9.972  0.7974 -0.1240 -0.6690
   17CHL1  H11B 1220   4.885   1.215   9.947 -0.5099  0.1921  1.5850
   17CHL1    C9 1221   5.062   1.134  10.052 -0.5909  0.3813  0.0338
   17CHL1    H9 1222   5.020   1.033  10.037 -1.9548  1.0077 -0.5499
   17CHL1   C10 1223   5.034   1.179  10.201  0.1241  0.1880  0.2455
   17CHL1   C19 1224   5.073   1.329  10.220 -0.1890 -0.0656 -0.5386
   17CHL1  H19A 1225   5.013   1.394  10.154  0.1567  0.0259 -0.7644
   17CHL1  H19B 1226   5.048   1.369  10.320  0.2448  1.0510 -0.8659
   17CHL1  H19C 1227   5.182   1.350  10.211 -0.3117 -0.4393 -3.9782
   17CHL1    C1 1228   4.883   1.156  10.228 -0.4784  0.3205  0.5030
   17CHL1   H1A 1229   4.828   1.228  10.163 -0.9952 -2.9311 -2.9490
   17CHL1   H1B 1230   4.848   1.060  10.186  0.8708  0.0630 -0.0708
   17CHL1    C2 1231   4.840   1.174  10.376 -0.8419  0.5308  0.5272
   17CHL1   H2A 1232   4.731   1.166  10.391 -1.3545 -2.2242 -3.0159
   17CHL1   H2B 1233   4.874   1.273  10.411  0.3464  0.3354 -0.0024
   17CHL1   C20 1234   5.216   1.176   9.510 -0.6906 -0.6241 -0.4994
   17CHL1   H20 1235   5.284   1.264   9.510  0.7797 -1.7127  0.3493
   17CHL1   C21 1236   5.082   1.233   9.477 -0.0312  0.5066  0.1133
   17CHL1  H21A 1237   5.079   1.295   9.385  2.8143  2.2088  1.0048
   17CHL1  H21B 1238   5.056   1.318   9.544 -0.8169  1.4893 -1.3869
   17CHL1  H21C 1239   5.004   1.154   9.480 -0.0411  0.5084 -0.0921
   17CHL1   C22 1240   5.263   1.084   9.391 -0.2767 -0.5068 -1.4442
   17CHL1  H22A 1241   5.374   1.076   9.397 -0.1446  1.2352 -0.9691
   17CHL1  H22B 1242   5.227   0.980   9.409  1.6529 -1.2571 -1.7196
   17CHL1   C23 1243   5.223   1.132   9.250  0.8171 -0.3716  0.4624
   17CHL1  H23A 1244   5.113   1.119   9.252  0.4784  1.8581 -0.7965
   17CHL1  H23B 1245   5.237   1.242   9.246 -1.0571 -0.0833  0.8410
   17CHL1   C24 1246   5.285   1.050   9.138 -0.2785 -0.0394 -0.3083
   17CHL1  H24A 1247   5.393   1.063   9.158 -0.8279  0.8404  2.5213
   17CHL1  H24B 1248   5.259   0.943   9.150 -0.3105  0.1844  1.9941
   17CHL1   C25 1249   5.252   1.097   8.992 -0.1421 -0.4164 -0.0078
   17CHL1   H25 1250   5.278   1.019   8.917 -0.3782 -1.3345  0.8531
   17CHL1   C26 1251   5.102   1.136   8.956  0.1587  0.1577 -0.1895
   17CHL1  H26A 1252   5.071   1.235   8.997 -0.7800  0.5750 -1.8147
   17CHL1  H26B 1253   5.072   1.126   8.849  0.4049  1.3929 -0.3975
   17CHL1  H26C 1254   5.049   1.052   9.005  0.3582  0.0345 -0.1871
   17CHL1   C27 1255   5.342   1.217   8.967  0.0629 -0.8194  0.1652
   17CHL1  H27A 1256   5.319   1.261   8.868 -0.2595  1.9557  1.3804
   17CHL1  H27B 1257   5.319   1.297   9.041  0.2827  0.1282 -0.7664
   17CHL1  H27C 1258   5.450   1.191   8.961  0.4078 -0.7189  3.5683
   18CHL1    C3 1259   5.543   6.683  10.200  0.9922  0.0958  0.1098
   18CHL1    H3 1260   5.535   6.573  10.187 -1.0229  0.3988 -1.8498
   18CHL1    O3 1261   5.571   6.711  10.332  0.4852 -0.3522  0.5214
   18CHL1   H3' 1262   5.662   6.684  10.350  0.7721  1.7133  2.8319
   18CHL1    C4 1263   5.656   6.749  10.121  0.9824 -0.2388 -0.4388
   18CHL1   H4A 1264   5.661   6.857  10.150 -1.9935 -0.4459  1.2710
   18CHL1   H4B 1265   5.753   6.701  10.147  1.0558 -1.5267 -2.8850
   18CHL1    C5 1266   5.630   6.736   9.968  0.5944  0.3547 -0.2134
   18CHL1    C6 1267   5.716   6.687   9.880  0.4168  0.2929  0.2809
   18CHL1    H6 1268   5.817   6.656   9.912  0.0522  0.6077  1.8417
   18CHL1    C7 1269   5.686   6.678   9.732  1.0485  0.4954  0.6775
   18CHL1   H7A 1270   5.771   6.696   9.662  1.3624 -1.7512  0.4303
   18CHL1   H7B 1271   5.652   6.575   9.709 -1.5028  0.9741  1.9596
   18CHL1    C8 1272   5.569   6.771   9.691  0.3839  0.0883 -0.2315
   18CHL1    H8 1273   5.609   6.875   9.691  0.4668  0.1479 -3.2924
   18CHL1   C14 1274   5.542   6.748   9.540 -0.0163 -0.1350 -0.4938
   18CHL1   H14 1275   5.503   6.644   9.538 -2.4155  0.6976 -0.2873
   18CHL1   C15 1276   5.661   6.749   9.438  0.4898  0.1735  0.3725
   18CHL1  H15A 1277   5.742   6.824   9.453  0.8877 -0.4678  1.6151
   18CHL1  H15B 1278   5.713   6.651   9.442 -0.9161 -0.6108  0.0450
   18CHL1   C16 1279   5.590   6.763   9.301  0.2347 -0.8084  0.3366
   18CHL1  H16A 1280   5.645   6.846   9.251  1.6270 -2.0913 -0.3708
   18CHL1  H16B 1281   5.586   6.678   9.230 -2.2983  0.0826 -0.6969
   18CHL1   C17 1282   5.442   6.791   9.333  0.8569 -0.0617 -0.0299
   18CHL1   H17 1283   5.397   6.690   9.326  0.8951  0.0271 -1.8021
   18CHL1   C13 1284   5.430   6.841   9.481 -1.6846  0.7186  0.0877
   18CHL1   C18 1285   5.477   6.993   9.481 -0.2941  0.0024  0.6402
   18CHL1  H18A 1286   5.395   7.057   9.442 -0.5822 -0.5910  0.2410
   18CHL1  H18B 1287   5.512   7.026   9.581  2.0934  1.4207 -0.5789
   18CHL1  H18C 1288   5.566   7.001   9.415 -0.6161 -0.5208  0.1237
   18CHL1   C12 1289   5.308   6.826   9.568  0.5578  0.6178 -0.7333
   18CHL1  H12A 1290   5.238   6.910   9.546 -0.0056 -0.0560 -1.6183
   18CHL1  H12B 1291   5.265   6.727   9.541  0.7902  0.6486 -1.2232
   18CHL1   C11 1292   5.331   6.833   9.721  0.4031  0.1662 -0.0097
   18CHL1  H11A 1293   5.337   6.942   9.746 -0.4120 -0.1626  1.8074
   18CHL1  H11B 1294   5.235   6.801   9.766  0.0373  3.1028  1.6016
   18CHL1    C9 1295   5.452   6.754   9.785 -0.2107  0.3917 -0.2386
   18CHL1    H9 1296   5.433   6.645   9.779  0.5022  0.3105 -1.3673
   18CHL1   C10 1297   5.489   6.790   9.930  0.0610 -0.7393  0.4870
   18CHL1   C19 1298   5.492   6.944   9.948 -0.0353  0.4293  0.8636
   18CHL1  H19A 1299   5.538   6.982  10.042  1.5207  0.4169  0.1318
   18CHL1  H19B 1300   5.537   6.994   9.860 -0.9534  0.7856  0.5869
   18CHL1  H19C 1301   5.385   6.972   9.945 -0.6356 -1.7190 -1.8260
   18CHL1    C1 1302   5.388   6.732  10.020 -0.0492  0.8541 -0.3676
   18CHL1   H1A 1303   5.289   6.771   9.989 -1.2547  0.3064  2.4309
   18CHL1   H1B 1304   5.376   6.623  10.003  0.4761  0.6130  0.6644
   18CHL1    C2 1305   5.407   6.750  10.171 -0.2277  0.4844 -0.8166
   18CHL1   H2A 1306   5.327   6.698  10.230  0.5639  1.3464  1.0872
   18CHL1   H2B 1307   5.410   6.858  10.198 -1.2913  0.2422  0.3863
   18CHL1   C20 1308   5.381   6.875   9.221  0.2512 -0.0568 -0.2865
   18CHL1   H20 1309   5.438   6.969   9.202 -2.7687  1.8927 -0.3093
   18CHL1   C21 1310   5.236   6.912   9.252  0.6111  0.2437 -0.8485
   18CHL1  H21A 1311   5.176   6.818   9.252  0.2013  0.4992 -0.6737
   18CHL1  H21B 1312   5.199   6.980   9.172 -0.2236  0.0551 -0.6330
   18CHL1  H21C 1313   5.209   6.949   9.353 -2.1510 -1.8480 -0.6833
   18CHL1   C22 1314   5.388   6.807   9.081  0.3028 -0.1995  0.0709
   18CHL1  H22A 1315   5.493   6.780   9.057  0.1534 -0.5944 -0.1580
   18CHL1  H22B 1316   5.319   6.720   9.086 -0.3362  0.1815 -1.4809
   18CHL1   C23 1317   5.349   6.899   8.963 -0.2096  0.2330 -0.4923
   18CHL1  H23A 1318   5.241   6.921   8.972 -0.2710  0.1624 -1.0163
   18CHL1  H23B 1319   5.392   7.002   8.957 -0.5867  0.3349 -1.7634
   18CHL1   C24 1320   5.375   6.838   8.819 -0.1316  0.4835 -0.5327
   18CHL1  H24A 1321   5.477   6.796   8.832 -0.5520  0.2912  3.5903
   18CHL1  H24B 1322   5.302   6.758   8.794 -0.9467  1.3395 -0.9482
   18CHL1   C25 1323   5.382   6.937   8.700 -0.2974 -0.1380  0.5974
   18CHL1   H25 1324   5.465   7.006   8.725  1.4508 -1.0660 -2.2419
   18CHL1   C26 1325   5.416   6.859   8.568 -0.3525 -0.0047  0.4956
   18CHL1  H26A 1326   5.360   6.763   8.560 -0.0249 -0.2020  0.5606
   18CHL1  H26B 1327   5.403   6.919   8.475 -1.4086 -1.9550 -0.6746
   18CHL1  H26C 1328   5.521   6.826   8.579 -0.8443 -1.1560  2.0589
   18CHL1   C27 1329   5.250   7.010   8.683  0.5200  0.0342 -0.1057
   18CHL1  H27A 1330   5.216   7.053   8.780  0.4934 -4.4765  2.1846
   18CHL1  H27B 1331   5.249   7.082   8.599  0.9293 -0.2165 -0.3256
   18CHL1  H27C 1332   5.173   6.934   8.658 -0.4211  0.0375  2.4602
   19CHL1    C3 1333   0.525   1.440  10.229  0.0446 -0.3220  0.7566
   19CHL1    H3 1334   0.563   1.543  10.208  0.1589 -0.8898 -2.1268
   19CHL1    O3 1335   0.523   1.413  10.367 -0.4748 -0.5621 -0.2472
   19CHL1   H3' 1336   0.437   1.374  10.387 -0.3663 -0.3840  0.6160
   19CHL1    C4 1337   0.387   1.421  10.161 -0.4246 -0.3848  0.6023
   19CHL1   H4A 1338   0.357   1.319  10.194  1.3778 -0.8963  0.7687
   19CHL1   H4B 1339   0.310   1.484  10.211 -0.6135  0.0303 -0.1980
   19CHL1    C5 1340   0.399   1.441  10.009  0.5251  1.0416  0.8586
   19CHL1    C6 1341   0.329   1.542   9.945  0.0585  0.2380 -0.5619
   19CHL1    H6 1342   0.262   1.605  10.006 -1.6927  1.8219 -3.8647
   19CHL1    C7 1343   0.327   1.563   9.798  0.6477 -0.2134 -0.3060
   19CHL1   H7A 1344   0.223   1.588   9.769  0.3334 -1.6135 -0.4411
   19CHL1   H7B 1345   0.395   1.641   9.758 -0.2781  0.1810 -1.1474
   19CHL1    C8 1346   0.383   1.435   9.724  0.2962  0.3025  0.5160
   19CHL1    H8 1347   0.308   1.352   9.727  2.5409 -1.8430  0.5541
   19CHL1   C14 1348   0.414   1.463   9.573  0.4174 -0.1288  0.0160
   19CHL1   H14 1349   0.486   1.546   9.583 -1.6603  1.6883  0.6764
   19CHL1   C15 1350   0.306   1.518   9.488 -0.3902  0.2344 -0.2272
   19CHL1  H15A 1351   0.210   1.462   9.493  1.1700 -2.7168 -1.4236
   19CHL1  H15B 1352   0.272   1.620   9.517 -1.4036 -0.5515  1.5200
   19CHL1   C16 1353   0.345   1.488   9.345 -0.2570 -0.5662 -0.0567
   19CHL1  H16A 1354   0.261   1.438   9.293  0.4741  0.1404 -2.0013
   19CHL1  H16B 1355   0.365   1.584   9.293 -0.9957 -0.3779 -0.0070
   19CHL1   C17 1356   0.474   1.400   9.353 -0.2492 -0.3518 -0.6585
   19CHL1   H17 1357   0.560   1.470   9.351  1.5789 -2.4086  0.7076
   19CHL1   C13 1358   0.472   1.342   9.495  0.2094  0.0782 -0.5869
   19CHL1   C18 1359   0.372   1.225   9.501 -0.5586  0.2074  0.5086
   19CHL1  H18A 1360   0.395   1.134   9.441 -1.5866  0.7128 -0.6866
   19CHL1  H18B 1361   0.360   1.186   9.605 -4.0616 -1.4557 -0.3875
   19CHL1  H18C 1362   0.273   1.264   9.471 -0.0629  3.2769  2.4397
   19CHL1   C12 1363   0.614   1.307   9.561  0.6561 -0.1538 -0.4872
   19CHL1  H12A 1364   0.655   1.217   9.510  0.3255 -0.3936 -0.3387
   19CHL1  H12B 1365   0.691   1.385   9.547  2.6178 -2.2091 -1.7478
   19CHL1   C11 1366   0.600   1.274   9.710  0.0553  0.4284  0.5168
   19CHL1  H11A 1367   0.555   1.173   9.720  0.8288  0.1029  0.8360
   19CHL1  H11B 1368   0.703   1.268   9.751 -0.5045  0.0909  1.9148
   19CHL1    C9 1369   0.517   1.382   9.785 -0.2354  0.9551  0.1123
   19CHL1    H9 1370   0.579   1.474   9.781 -1.1292  1.6329  1.2246
   19CHL1   C10 1371   0.504   1.348   9.934 -0.8960  0.4414  0.2648
   19CHL1   C19 1372   0.464   1.198   9.947  0.2550  0.6763 -0.6838
   19CHL1  H19A 1373   0.367   1.177   9.897 -1.5571 -0.8524  3.0706
   19CHL1  H19B 1374   0.549   1.136   9.913  0.9922  0.2529  1.7121
   19CHL1  H19C 1375   0.450   1.176  10.055 -3.1127  0.3213 -1.0792
   19CHL1    C1 1376   0.636   1.376  10.011  0.2136 -0.0338  0.5803
   19CHL1   H1A 1377   0.716   1.316   9.961 -0.8568 -0.1552 -1.0607
   19CHL1   H1B 1378   0.656   1.483   9.989  0.3964 -0.3155 -0.6684
   19CHL1    C2 1379   0.631   1.346  10.157  0.2932  0.0705 -0.0611
   19CHL1   H2A 1380   0.728   1.369  10.206 -0.3858  0.6034  1.0969
   19CHL1   H2B 1381   0.614   1.239  10.182  3.2943 -1.1324 -2.5441
   19CHL1   C20 1382   0.485   1.309   9.236 -0.9372 -0.2039 -0.0262
   19CHL1   H20 1383   0.390   1.252   9.239 -0.2551 -1.3380  1.3453
   19CHL1   C21 1384   0.605   1.218   9.253 -0.0087  0.2664  0.2125
   19CHL1  H21A 1385   0.593   1.154   9.343  1.5555 -1.5435 -0.7778
   19CHL1  H21B 1386   0.696   1.282   9.257 -1.1518  2.1151 -1.3928
   19CHL1  H21C 1387   0.629   1.150   9.168  0.8406  1.1933 -0.3092
   19CHL1   C22 1388   0.479   1.383   9.100  0.3627 -0.9681  0.9867
   19CHL1  H22A 1389   0.421   1.478   9.103 -1.5105 -2.0266  0.2657
   19CHL1  H22B 1390   0.580   1.421   9.076 -0.1308 -1.6283 -2.8917
   19CHL1   C23 1391   0.430   1.292   8.987 -0.3060  0.1182 -0.7382
   19CHL1  H23A 1392   0.499   1.205   8.993  0.9941  1.2039  2.5882
   19CHL1  H23B 1393   0.328   1.252   9.004 -0.2849 -0.8719 -2.7186
   19CHL1   C24 1394   0.442   1.376   8.853  0.0548  0.0804 -0.4216
   19CHL1  H24A 1395   0.387   1.471   8.867  0.3928  0.6871 -2.7877
   19CHL1  H24B 1396   0.550   1.404   8.849  0.4975 -1.5950 -0.9379
   19CHL1   C25 1397   0.378   1.306   8.734 -0.7418  0.2338 -0.2151
   19CHL1   H25 1398   0.425   1.207   8.721 -2.1051 -0.4548 -0.0947
   19CHL1   C26 1399   0.232   1.277   8.732 -0.1858  0.2158 -0.0519
   19CHL1  H26A 1400   0.173   1.371   8.736  0.4613  0.5883  1.6934
   19CHL1  H26B 1401   0.208   1.226   8.636  1.8861  2.2452 -1.7597
   19CHL1  H26C 1402   0.193   1.215   8.816  0.7377 -0.3748 -0.0496
   19CHL1   C27 1403   0.412   1.382   8.609 -0.0655 -0.1414  0.6174
   19CHL1  H27A 1404   0.513   1.426   8.596 -0.5501  0.8144 -0.0707
   19CHL1  H27B 1405   0.414   1.305   8.529 -4.8303 -0.9595  0.9775
   19CHL1  H27C 1406   0.345   1.465   8.577 -0.4003 -0.6280  0.0362
   20CHL1    C3 1407   2.192   3.694  10.338 -0.5311  0.2136 -0.3105
   20CHL1    H3 1408   2.247   3.790  10.331  0.4432 -0.3072  0.0187
   20CHL1    O3 1409   2.176   3.656  10.477 -1.0689  0.0699  0.0339
   20CHL1   H3' 1410   2.099   3.702  10.512 -1.9789 -0.1144 -1.5975
   20CHL1    C4 1411   2.052   3.720  10.285  0.3487  0.4402  0.1767
   20CHL1   H4A 1412   1.975   3.643  10.308  0.2396 -0.7055 -3.3465
   20CHL1   H4B 1413   2.020   3.810  10.341  1.7957 -0.4847  2.6625
   20CHL1    C5 1414   2.059   3.759  10.140  0.2185  0.0036 -0.4706
   20CHL1    C6 1415   2.015   3.867  10.093  0.4054  0.4901  0.4102
   20CHL1    H6 1416   1.966   3.945  10.152  2.3080  3.9295 -2.1659
   20CHL1    C7 1417   2.020   3.918   9.948  0.3480 -0.6872  0.0762
   20CHL1   H7A 1418   1.927   3.973   9.922  0.9443  0.5308  0.4686
   20CHL1   H7B 1419   2.109   3.982   9.929  0.9787 -1.2571  1.0194
   20CHL1    C8 1420   2.034   3.796   9.848  0.5678  0.0272  0.0673
   20CHL1    H8 1421   1.933   3.749   9.844 -0.1618  1.5938 -3.3634
   20CHL1   C14 1422   2.071   3.837   9.705  0.4857  0.1415  0.0090
   20CHL1   H14 1423   2.165   3.896   9.709  0.1208  0.6782  1.0204
   20CHL1   C15 1424   1.971   3.935   9.645 -0.0882 -0.1374  0.3401
   20CHL1  H15A 1425   1.868   3.911   9.678  0.7987 -3.8062  0.9308
   20CHL1  H15B 1426   1.998   4.041   9.667  0.1153  0.0999 -0.9868
   20CHL1   C16 1427   1.988   3.915   9.494  0.5093 -0.0004  0.1738
   20CHL1  H16A 1428   1.886   3.896   9.455  0.6128 -4.4685  1.5705
   20CHL1  H16B 1429   2.032   4.005   9.446 -0.3371  0.8062  0.8701
   20CHL1   C17 1430   2.086   3.795   9.473 -0.5032 -0.8576  0.9554
   20CHL1   H17 1431   2.189   3.836   9.467 -0.5108 -1.0359 -1.1934
   20CHL1   C13 1432   2.072   3.714   9.606  0.0821 -0.3015 -0.6103
   20CHL1   C18 1433   1.932   3.638   9.603 -0.2587 -0.2196  0.3489
   20CHL1  H18A 1434   1.915   3.584   9.698 -0.9937  0.8731  0.8610
   20CHL1  H18B 1435   1.848   3.708   9.583  0.4804  0.6488  0.1893
   20CHL1  H18C 1436   1.933   3.569   9.517 -0.0310  1.8874 -1.4293
   20CHL1   C12 1437   2.187   3.619   9.645  0.6294 -0.5406 -0.2421
   20CHL1  H12A 1438   2.172   3.527   9.585  1.0339 -0.4775 -0.4375
   20CHL1  H12B 1439   2.286   3.666   9.630  0.5321  0.0172  0.7632
   20CHL1   C11 1440   2.174   3.578   9.798  0.6660  0.3213 -0.0846
   20CHL1  H11A 1441   2.100   3.495   9.805 -1.6632  2.1898 -1.2432
   20CHL1  H11B 1442   2.273   3.539   9.829  0.7233  3.4197  4.5617
   20CHL1    C9 1443   2.138   3.698   9.898 -0.4244 -0.4662  0.4202
   20CHL1    H9 1444   2.230   3.761   9.900  0.9735 -2.3184 -1.0276
   20CHL1   C10 1445   2.129   3.656  10.048 -0.0446 -0.2251  0.4212
   20CHL1   C19 1446   2.043   3.523  10.054  0.1459  0.2776  0.7247
   20CHL1  H19A 1447   2.099   3.434  10.020 -1.8430 -0.5347 -0.6216
   20CHL1  H19B 1448   2.009   3.505  10.158  0.1725  2.1838  1.1122
   20CHL1  H19C 1449   1.955   3.544   9.989  2.5518 -0.5592 -3.0893
   20CHL1    C1 1450   2.269   3.625  10.110 -0.3818 -0.7903 -0.5956
   20CHL1   H1A 1451   2.305   3.535  10.055 -0.8643 -0.3110 -1.7343
   20CHL1   H1B 1452   2.341   3.708  10.094 -0.7227 -0.8773 -2.9089
   20CHL1    C2 1453   2.267   3.584  10.265  0.1181 -1.0518 -0.3049
   20CHL1   H2A 1454   2.369   3.583  10.309  0.0851  2.1177  0.0477
   20CHL1   H2B 1455   2.213   3.488  10.275 -1.7166 -0.1840 -1.3990
   20CHL1   C20 1456   2.069   3.726   9.337 -0.1500  0.5498 -0.2223
   20CHL1   H20 1457   1.979   3.662   9.345  0.3323  0.0155  1.3757
   20CHL1   C21 1458   2.197   3.639   9.309  0.3627  0.6594  0.1651
   20CHL1  H21A 1459   2.292   3.697   9.311  0.9259 -0.2541  1.0528
   20CHL1  H21B 1460   2.179   3.585   9.213 -3.5911 -1.2739  1.7829
   20CHL1  H21C 1461   2.207   3.561   9.386  0.9515 -0.7361 -1.2626
   20CHL1   C22 1462   2.050   3.831   9.231 -0.1756 -0.3703  0.1191
   20CHL1  H22A 1463   1.948   3.874   9.240 -0.7549 -0.4752 -3.8201
   20CHL1  H22B 1464   2.118   3.918   9.238  0.9092 -0.8811 -2.6626
   20CHL1   C23 1465   2.057   3.766   9.094  0.1642  0.0037  0.3234
   20CHL1  H23A 1466   2.160   3.732   9.069  0.3918  0.6907  0.3206
   20CHL1  H23B 1467   1.982   3.685   9.083  0.4741 -0.2962  0.3970
   20CHL1   C24 1468   2.010   3.853   8.973  0.1750 -0.6744  0.4269
   20CHL1  H24A 1469   1.900   3.868   8.978  0.1011 -1.2699  0.6747
   20CHL1  H24B 1470   2.063   3.950   8.973 -0.1144 -0.5104  1.1341
   20CHL1   C25 1471   2.040   3.782   8.833  0.4188 -0.4284  0.3484
   20CHL1   H25 1472   2.146   3.749   8.838 -0.0510 -1.9094  1.0308
   20CHL1   C26 1473   1.949   3.661   8.821 -0.2708 -0.4259 -0.7297
   20CHL1  H26A 1474   1.842   3.668   8.850 -0.5291  3.2398 -2.0202
   20CHL1  H26B 1475   1.960   3.615   8.721  2.2411 -1.4174 -0.0804
   20CHL1  H26C 1476   1.986   3.593   8.901  0.2634 -0.4891 -1.0247
   20CHL1   C27 1477   2.031   3.881   8.711 -0.2153 -0.3080 -0.0039
   20CHL1  H27A 1478   2.060   3.821   8.622 -1.6687 -0.1302 -0.6241
   20CHL1  H27B 1479   1.930   3.923   8.699  0.1022  1.6379  2.9832
   20CHL1  H27C 1480   2.110   3.957   8.728 -0.4139 -0.4140  1.5008
   21CHL1    C3 1481   3.930   6.196   9.887  0.4221 -0.0651  0.0391
   21CHL1    H3 1482   3.868   6.110   9.856 -0.3797 -0.4054  2.3760
   21CHL1    O3 1483   3.940   6.172  10.026  0.2773  0.4948 -0.7515
   21CHL1   H3' 1484   4.033   6.174  10.050  0.0059 -0.5665  0.4953
   21CHL1    C4 1485   4.064   6.208   9.816  0.2088 -0.0792  0.4208
   21CHL1   H4A 1486   4.122   6.285   9.872  1.4528 -1.0199  0.4771
   21CHL1   H4B 1487   4.113   6.114   9.848  2.2656  1.2352  1.3285
   21CHL1    C5 1488   4.056   6.240   9.668  0.6656 -0.3425 -0.0697
   21CHL1    C6 1489   4.115   6.155   9.579  0.2787 -0.6925 -0.1345
   21CHL1    H6 1490   4.177   6.071   9.614  0.6912 -0.7258 -0.9037
   21CHL1    C7 1491   4.115   6.176   9.431 -0.0159 -0.9568  0.3503
   21CHL1   H7A 1492   4.218   6.177   9.389 -0.4042 -1.6167 -0.6389
   21CHL1   H7B 1493   4.052   6.090   9.399  0.9779 -1.5378 -0.0786
   21CHL1    C8 1494   4.027   6.310   9.390  0.0550  0.1202  0.1083
   21CHL1    H8 1495   4.093   6.399   9.395  1.7287 -0.9739 -1.1473
   21CHL1   C14 1496   3.981   6.288   9.243 -0.0581 -0.2659 -0.2985
   21CHL1   H14 1497   3.915   6.199   9.255 -2.8128  1.8961  2.0386
   21CHL1   C15 1498   4.098   6.263   9.140 -0.1432 -0.1794 -0.4009
   21CHL1  H15A 1499   4.182   6.336   9.148 -0.7830  0.7338 -1.5288
   21CHL1  H15B 1500   4.128   6.157   9.153  3.6732  0.9263  1.2599
   21CHL1   C16 1501   4.028   6.283   9.006  0.0386 -0.2412 -0.6604
   21CHL1  H16A 1502   4.089   6.335   8.929 -0.9253 -2.3004 -2.9534
   21CHL1  H16B 1503   4.006   6.183   8.963 -2.2754 -0.0543 -0.0448
   21CHL1   C17 1504   3.886   6.344   9.038 -0.1152 -0.1016 -0.6062
   21CHL1   H17 1505   3.820   6.255   9.042  1.5099 -1.3062  0.5580
   21CHL1   C13 1506   3.896   6.400   9.182 -0.6265  0.2643  0.0467
   21CHL1   C18 1507   3.970   6.533   9.180 -0.0753  0.7185 -0.5782
   21CHL1  H18A 1508   4.010   6.554   9.281 -1.7774  0.2789  0.2182
   21CHL1  H18B 1509   4.052   6.556   9.109 -1.8923  0.0324 -3.0305
   21CHL1  H18C 1510   3.896   6.614   9.164  0.7968  1.4279 -1.1190
   21CHL1   C12 1511   3.770   6.409   9.270 -0.4356 -0.6033 -0.2627
   21CHL1  H12A 1512   3.694   6.478   9.228 -0.0581 -0.4222 -0.6539
   21CHL1  H12B 1513   3.720   6.310   9.260  0.6181 -1.0255 -1.6949
   21CHL1   C11 1514   3.807   6.427   9.422 -0.1474 -0.3743  0.1371
   21CHL1  H11A 1515   3.863   6.524   9.425  0.5626 -0.7775  0.0679
   21CHL1  H11B 1516   3.711   6.418   9.477  0.4550 -3.1254  0.8493
   21CHL1    C9 1517   3.910   6.324   9.482  0.3954  0.4630 -0.0527
   21CHL1    H9 1518   3.855   6.228   9.489 -1.0263  1.3668  1.9050
   21CHL1   C10 1519   3.952   6.344   9.627 -0.1839 -1.0306 -0.2433
   21CHL1   C19 1520   4.017   6.489   9.649 -0.1637 -0.2972 -0.8105
   21CHL1  H19A 1521   4.043   6.503   9.756 -0.9979 -1.2649 -0.4563
   21CHL1  H19B 1522   4.111   6.507   9.593  1.3005 -2.1481  0.8984
   21CHL1  H19C 1523   3.948   6.569   9.615 -1.7934 -0.9728  0.7385
   21CHL1    C1 1524   3.826   6.337   9.711 -0.6943 -0.3849 -0.1190
   21CHL1   H1A 1525   3.754   6.419   9.690 -2.0361 -0.8503  2.2573
   21CHL1   H1B 1526   3.774   6.243   9.681  1.0109 -0.7247 -2.1979
   21CHL1    C2 1527   3.853   6.324   9.861  0.0668  0.2393 -0.3344
   21CHL1   H2A 1528   3.758   6.311   9.917  0.7948  2.3604  1.4858
   21CHL1   H2B 1529   3.904   6.416   9.897  2.7720 -1.0197 -0.7207
   21CHL1   C20 1530   3.825   6.433   8.923 -0.4641 -0.1989  0.5321
   21CHL1   H20 1531   3.896   6.515   8.900 -1.4048  0.6303  0.5203
   21CHL1   C21 1532   3.689   6.493   8.959 -0.2959 -0.3199 -0.8502
   21CHL1  H21A 1533   3.704   6.582   9.024 -1.0717 -0.7606 -0.0495
   21CHL1  H21B 1534   3.622   6.423   9.013 -2.2148  2.8848  1.2671
   21CHL1  H21C 1535   3.647   6.529   8.862  0.0225 -1.0181 -1.2557
   21CHL1   C22 1536   3.807   6.361   8.786  0.1776 -0.3429  0.3572
   21CHL1  H22A 1537   3.759   6.436   8.719  0.4086 -0.0451  0.5225
   21CHL1  H22B 1538   3.897   6.333   8.727 -1.6494 -3.7520 -1.1064
   21CHL1   C23 1539   3.719   6.233   8.790  0.6766 -0.0861  0.2604
   21CHL1  H23A 1540   3.768   6.159   8.857 -0.7625 -0.0461  1.3968
   21CHL1  H23B 1541   3.626   6.259   8.845 -0.1643  0.7032 -1.4273
   21CHL1   C24 1542   3.677   6.165   8.658 -0.5667  1.1560  0.6081
   21CHL1  H24A 1543   3.757   6.181   8.582  0.3767  2.2816  1.7963
   21CHL1  H24B 1544   3.677   6.056   8.683  2.3679  0.7520 -0.6553
   21CHL1   C25 1545   3.538   6.198   8.607  0.1326 -0.4214  0.1136
   21CHL1   H25 1546   3.465   6.174   8.688 -1.1295 -0.6120 -1.0285
   21CHL1   C26 1547   3.515   6.345   8.569 -0.2089 -0.4010  0.1340
   21CHL1  H26A 1548   3.590   6.379   8.495 -0.3904 -3.0459 -1.4097
   21CHL1  H26B 1549   3.412   6.363   8.531 -0.6284  1.2538  1.9249
   21CHL1  H26C 1550   3.534   6.416   8.652 -1.1888 -0.5721  0.5223
   21CHL1   C27 1551   3.501   6.125   8.479  0.2291  0.3140 -0.0727
   21CHL1  H27A 1552   3.406   6.163   8.435 -0.5132 -0.5539  0.7406
   21CHL1  H27B 1553   3.579   6.141   8.401  0.1002 -0.9723 -0.4797
   21CHL1  H27C 1554   3.500   6.014   8.486  0.6753  0.3617  1.1768
   22CHL1    C3 1555   3.216   2.640   9.925  0.0507  0.2684  0.3112
   22CHL1    H3 1556   3.112   2.658   9.891 -0.4282  0.1629  1.6601
   22CHL1    O3 1557   3.228   2.656  10.069  0.1131 -0.1616  0.0694
   22CHL1   H3' 1558   3.314   2.619  10.087  0.1043 -0.0061  0.4286
   22CHL1    C4 1559   3.256   2.492   9.887  0.1712 -0.2344 -0.4420
   22CHL1   H4A 1560   3.359   2.464   9.916  1.0270  1.9865 -1.1038
   22CHL1   H4B 1561   3.191   2.420   9.941  0.1598 -1.0851 -1.5570
   22CHL1    C5 1562   3.268   2.477   9.736  0.2443  0.3397  0.4739
   22CHL1    C6 1563   3.208   2.382   9.682  1.2487 -0.6932  0.3506
   22CHL1    H6 1564   3.157   2.311   9.749 -0.4752  1.3213  1.2918
   22CHL1    C7 1565   3.199   2.356   9.534  0.1580  0.2775  0.1328
   22CHL1   H7A 1566   3.213   2.246   9.529  1.3121  0.4099  0.1165
   22CHL1   H7B 1567   3.099   2.383   9.495  0.8558 -0.2165 -2.1971
   22CHL1    C8 1568   3.300   2.433   9.451  0.1285 -0.1176  0.1445
   22CHL1    H8 1569   3.396   2.380   9.468 -0.3734 -1.0304  0.2402
   22CHL1   C14 1570   3.256   2.439   9.309 -0.2029 -0.1234  0.4963
   22CHL1   H14 1571   3.162   2.499   9.303  0.3610  1.1591  2.9069
   22CHL1   C15 1572   3.219   2.310   9.244  0.4091  0.6466  0.4074
   22CHL1  H15A 1573   3.308   2.245   9.262  1.1907  0.5583 -3.0262
   22CHL1  H15B 1574   3.120   2.271   9.275  1.3287  0.0604  2.8357
   22CHL1   C16 1575   3.209   2.350   9.093  0.0892 -0.2821  0.3919
   22CHL1  H16A 1576   3.245   2.269   9.026 -1.7182  0.1067 -1.1590
   22CHL1  H16B 1577   3.103   2.373   9.066  0.3585  0.7535  0.1633
   22CHL1   C17 1578   3.274   2.500   9.083  0.2295 -0.3182 -0.4260
   22CHL1   H17 1579   3.189   2.571   9.083  1.2135  0.9257 -1.6071
   22CHL1   C13 1580   3.346   2.519   9.216 -0.5457 -0.2390 -0.3947
   22CHL1   C18 1581   3.489   2.453   9.224 -0.3802  0.4866  0.1285
   22CHL1  H18A 1582   3.549   2.510   9.150 -0.1295  0.3422  0.2193
   22CHL1  H18B 1583   3.537   2.461   9.323 -0.7870  0.0685  0.3611
   22CHL1  H18C 1584   3.473   2.346   9.196 -1.6324 -0.0088  2.4769
   22CHL1   C12 1585   3.352   2.664   9.268  0.0334 -0.3229  0.0230
   22CHL1  H12A 1586   3.401   2.738   9.202 -0.2557  0.5261  0.7524
   22CHL1  H12B 1587   3.244   2.690   9.269  0.1526  0.2627  1.7439
   22CHL1   C11 1588   3.410   2.668   9.412 -0.0770 -0.2081 -0.9543
   22CHL1  H11A 1589   3.516   2.636   9.428 -0.3699 -0.5610  0.3978
   22CHL1  H11B 1590   3.400   2.767   9.460  1.1960 -1.1423  1.4332
   22CHL1    C9 1591   3.318   2.580   9.508 -0.0418  0.5230 -0.2175
   22CHL1    H9 1592   3.221   2.634   9.505  1.5972  3.9632  1.9759
   22CHL1   C10 1593   3.351   2.585   9.659  0.3074  0.0756 -0.0333
   22CHL1   C19 1594   3.496   2.548   9.688 -0.2080 -0.2895 -0.5446
   22CHL1  H19A 1595   3.525   2.541   9.796 -0.2482 -0.4989 -0.5489
   22CHL1  H19B 1596   3.523   2.456   9.634  0.7798  0.4080 -1.2772
   22CHL1  H19C 1597   3.559   2.631   9.647  0.8211 -1.0386 -0.5131
   22CHL1    C1 1598   3.303   2.723   9.711 -0.1450  0.2173 -0.0698
   22CHL1   H1A 1599   3.368   2.802   9.668 -2.0041  1.1604 -1.2643
   22CHL1   H1B 1600   3.194   2.732   9.689 -0.5480 -1.4326  1.0438
   22CHL1    C2 1601   3.312   2.739   9.863 -0.5985  0.0550 -0.3132
   22CHL1   H2A 1602   3.291   2.839   9.906 -2.2183 -0.1280 -0.6094
   22CHL1   H2B 1603   3.418   2.735   9.895 -1.0099  1.6282  1.4357
   22CHL1   C20 1604   3.343   2.520   8.946  0.4457  0.2966  0.1155
   22CHL1   H20 1605   3.433   2.456   8.957  0.4636  0.6781  2.6801
   22CHL1   C21 1606   3.385   2.672   8.941  0.1099  0.1842  0.2972
   22CHL1  H21A 1607   3.289   2.728   8.938  0.1040  0.1460 -0.2496
   22CHL1  H21B 1608   3.429   2.691   8.841 -1.8022 -1.8118 -1.0110
   22CHL1  H21C 1609   3.463   2.695   9.018 -0.6610  0.2611  1.0751
   22CHL1   C22 1610   3.255   2.486   8.821 -0.7160  0.5547  0.3984
   22CHL1  H22A 1611   3.226   2.379   8.810 -2.8598  1.3213 -2.6948
   22CHL1  H22B 1612   3.162   2.547   8.819 -1.6718 -0.8660 -1.2995
   22CHL1   C23 1613   3.333   2.494   8.687 -0.4815  0.3003  0.0739
   22CHL1  H23A 1614   3.377   2.595   8.685  2.8314 -1.0044  0.7723
   22CHL1  H23B 1615   3.424   2.433   8.701 -0.4809  0.4845  0.9612
   22CHL1   C24 1616   3.260   2.465   8.555  0.1945 -0.2756  0.4543
   22CHL1  H24A 1617   3.339   2.455   8.477  1.4828  2.9314  1.1688
   22CHL1  H24B 1618   3.221   2.363   8.570  1.3587 -0.9648 -0.9412
   22CHL1   C25 1619   3.155   2.567   8.508  0.9677 -0.4247  0.6563
   22CHL1   H25 1620   3.088   2.579   8.595  0.8895  0.4195  0.4807
   22CHL1   C26 1621   3.204   2.708   8.485 -0.3031 -0.1032  0.5773
   22CHL1  H26A 1622   3.284   2.692   8.410 -1.8144  1.8424 -1.5891
   22CHL1  H26B 1623   3.131   2.764   8.422 -3.2470 -0.1103  3.6984
   22CHL1  H26C 1624   3.239   2.757   8.578  0.3159  1.9584 -0.6668
   22CHL1   C27 1625   3.072   2.503   8.392 -0.0371 -0.3776 -0.7595
   22CHL1  H27A 1626   3.032   2.403   8.421 -1.8674  0.1141 -1.4089
   22CHL1  H27B 1627   2.991   2.574   8.363 -0.1354 -1.0835 -2.3247
   22CHL1  H27C 1628   3.147   2.512   8.311  2.4462 -0.1931  1.4461
   23CHL1    C3 1629   5.772   0.886  10.391  0.0507  0.5534  0.2364
   23CHL1    H3 1630   5.670   0.846  10.373  0.4285  0.2241 -1.3690
   23CHL1    O3 1631   5.811   0.854  10.519 -0.1760  0.3260 -0.2505
   23CHL1   H3' 1632   5.900   0.889  10.526  0.2727 -0.8514  0.1315
   23CHL1    C4 1633   5.871   0.831  10.287 -0.7798  0.2982 -0.4751
   23CHL1   H4A 1634   5.972   0.861  10.321 -0.5675  1.1887 -1.8117
   23CHL1   H4B 1635   5.866   0.720  10.291  1.1915  0.1922  2.5755
   23CHL1    C5 1636   5.846   0.881  10.149 -1.1567 -0.9652  0.7977
   23CHL1    C6 1637   5.820   0.796  10.049 -0.7883 -0.7701  0.0789
   23CHL1    H6 1638   5.823   0.687  10.069  0.7180 -0.5831  0.9833
   23CHL1    C7 1639   5.785   0.833   9.910 -0.6289 -0.4039 -0.4947
   23CHL1   H7A 1640   5.830   0.771   9.830 -1.4963 -0.0382 -1.2877
   23CHL1   H7B 1641   5.675   0.824   9.896 -0.7713  0.2447  0.0963
   23CHL1    C8 1642   5.828   0.990   9.884  0.2879 -0.0771  0.4802
   23CHL1    H8 1643   5.938   0.997   9.888  0.3858 -0.6023 -0.8557
   23CHL1   C14 1644   5.772   1.045   9.750 -0.2204 -0.2288 -0.8296
   23CHL1   H14 1645   5.663   1.052   9.769  0.0837 -0.4485  1.1667
   23CHL1   C15 1646   5.785   0.970   9.616  0.0088  0.1763  0.0604
   23CHL1  H15A 1647   5.889   0.934   9.604  0.0622 -0.2001  1.4558
   23CHL1  H15B 1648   5.713   0.886   9.612  1.4830 -1.1185 -0.4194
   23CHL1   C16 1649   5.770   1.069   9.505  0.4702 -0.5484 -0.6068
   23CHL1  H16A 1650   5.855   1.076   9.434  0.4401 -0.0809 -0.6020
   23CHL1  H16B 1651   5.678   1.044   9.447  0.6226  0.8632 -1.5092
   23CHL1   C17 1652   5.759   1.216   9.576  0.0949  0.0620  1.1415
   23CHL1   H17 1653   5.649   1.226   9.587 -0.4604 -0.4421 -2.6554
   23CHL1   C13 1654   5.823   1.185   9.716  0.5999 -0.5679 -0.1292
   23CHL1   C18 1655   5.975   1.182   9.696  0.1527 -0.7230 -0.2396
   23CHL1  H18A 1656   5.998   1.112   9.613 -2.0471 -1.4351 -0.3021
   23CHL1  H18B 1657   6.008   1.286   9.677  0.8292 -0.7366  0.7236
   23CHL1  H18C 1658   6.031   1.146   9.786  1.4472 -0.6504 -0.9866
   23CHL1   C12 1659   5.762   1.278   9.828  0.2905  0.5553  0.1762
   23CHL1  H12A 1660   5.799   1.382   9.813  0.7287  0.1684 -1.5500
   23CHL1  H12B 1661   5.652   1.280   9.820  0.2475 -1.1111  0.0831
   23CHL1   C11 1662   5.811   1.239   9.966 -0.1582 -0.6620  0.2748
   23CHL1  H11A 1663   5.920   1.254   9.977 -0.0875 -1.7999  1.4271
   23CHL1  H11B 1664   5.763   1.302  10.044  1.2170  0.9510 -0.1307
   23CHL1    C9 1665   5.784   1.087   9.995  0.5071 -0.7691  0.1827
   23CHL1    H9 1666   5.675   1.070  10.011  0.8943 -1.7371  2.1765
   23CHL1   C10 1667   5.837   1.040  10.137 -0.4486  0.2032 -0.6375
   23CHL1   C19 1668   5.987   1.098  10.162  0.1547 -0.9952 -0.0849
   23CHL1  H19A 1669   6.056   1.062  10.083  0.5474  0.0414 -0.2309
   23CHL1  H19B 1670   5.971   1.208  10.166  0.0479 -1.0331  1.8725
   23CHL1  H19C 1671   6.033   1.065  10.258  1.5152  0.6700 -0.1220
   23CHL1    C1 1672   5.744   1.096  10.250  0.0324  0.1439  1.3741
   23CHL1   H1A 1673   5.742   1.207  10.259 -0.0864  0.3621 -0.7879
   23CHL1   H1B 1674   5.644   1.054  10.225  0.5061  0.1549 -0.7827
   23CHL1    C2 1675   5.771   1.037  10.392 -0.8245 -0.6322  0.3640
   23CHL1   H2A 1676   5.692   1.070  10.463  0.0878  2.9510 -0.0593
   23CHL1   H2B 1677   5.869   1.071  10.432 -0.3834 -0.3151 -0.9391
   23CHL1   C20 1678   5.807   1.328   9.480  0.8333 -0.0582 -0.1630
   23CHL1   H20 1679   5.915   1.314   9.459  0.8299 -3.1776  1.3722
   23CHL1   C21 1680   5.787   1.469   9.543 -0.5240  0.0617 -0.1548
   23CHL1  H21A 1681   5.836   1.482   9.641 -0.2020 -2.2175  0.0511
   23CHL1  H21B 1682   5.681   1.485   9.569 -0.0764  0.8079  1.2810
   23CHL1  H21C 1683   5.804   1.560   9.482 -0.1957 -0.5541 -1.0108
   23CHL1   C22 1684   5.729   1.309   9.342  0.5260 -0.2425  0.2317
   23CHL1  H22A 1685   5.771   1.220   9.289 -2.8888 -0.4096 -2.5789
   23CHL1  H22B 1686   5.620   1.298   9.359 -0.0043  3.4547  0.0050
   23CHL1   C23 1687   5.720   1.434   9.249  0.2130  0.2529  0.1934
   23CHL1  H23A 1688   5.648   1.505   9.294 -0.9140  0.7888 -2.2701
   23CHL1  H23B 1689   5.817   1.488   9.254 -0.5409  1.9616 -2.0626
   23CHL1   C24 1690   5.683   1.399   9.103 -1.1070  0.3036  0.4784
   23CHL1  H24A 1691   5.774   1.368   9.047 -1.2866 -0.1968  0.4571
   23CHL1  H24B 1692   5.598   1.328   9.097 -1.5979  0.9409 -0.2814
   23CHL1   C25 1693   5.629   1.524   9.036 -0.1429  0.2128  0.7533
   23CHL1   H25 1694   5.692   1.615   9.045 -0.8289  0.7424  0.2864
   23CHL1   C26 1695   5.626   1.487   8.887 -0.1249 -0.1480  0.2790
   23CHL1  H26A 1696   5.598   1.576   8.826  1.3115 -0.2207 -0.5222
   23CHL1  H26B 1697   5.726   1.453   8.854 -0.7493 -1.4212 -0.3652
   23CHL1  H26C 1698   5.549   1.411   8.864  0.9016 -0.7739 -1.2794
   23CHL1   C27 1699   5.488   1.569   9.086 -0.4728  0.6281  0.1058
   23CHL1  H27A 1700   5.435   1.641   9.019  2.5409  1.6083 -1.4038
   23CHL1  H27B 1701   5.420   1.483   9.101  0.8267 -0.3774  0.3212
   23CHL1  H27C 1702   5.501   1.618   9.184 -2.8220  1.1313  0.2176
   24CHL1    C3 1703   0.728   2.358  10.115  0.8735 -0.5678 -0.0697
   24CHL1    H3 1704   0.638   2.295  10.125  1.0408 -0.8666 -0.4441
   24CHL1    O3 1705   0.784   2.370  10.247  0.1399 -0.4492 -0.6264
   24CHL1   H3' 1706   0.875   2.400  10.247  0.4877 -1.4512  0.1961
   24CHL1    C4 1707   0.820   2.280  10.033 -0.1033 -0.1697  0.2603
   24CHL1   H4A 1708   0.924   2.314  10.056 -0.3048 -0.1266  1.1234
   24CHL1   H4B 1709   0.836   2.177  10.073  0.0336 -0.3970 -0.3627
   24CHL1    C5 1710   0.794   2.271   9.880 -0.3869 -0.3250  0.6158
   24CHL1    C6 1711   0.768   2.155   9.817 -0.0400  0.1194  0.5524
   24CHL1    H6 1712   0.776   2.062   9.876  0.2359 -0.0425  0.2660
   24CHL1    C7 1713   0.726   2.135   9.678 -0.0008 -0.4838  0.7485
   24CHL1   H7A 1714   0.798   2.070   9.624  2.0954  1.1706  1.3967
   24CHL1   H7B 1715   0.621   2.100   9.666  0.0026 -0.4178  0.5186
   24CHL1    C8 1716   0.748   2.269   9.596 -0.1336  0.1633 -0.3381
   24CHL1    H8 1717   0.858   2.282   9.591 -0.1913  1.7702  1.4256
   24CHL1   C14 1718   0.675   2.262   9.461  1.2557  0.6184  1.0501
   24CHL1   H14 1719   0.568   2.266   9.488 -0.6223  0.1161 -4.7647
   24CHL1   C15 1720   0.691   2.136   9.371  0.3712  0.0524  0.2536
   24CHL1  H15A 1721   0.799   2.117   9.353  0.4663 -1.2169  1.9611
   24CHL1  H15B 1722   0.641   2.046   9.411  1.7946  0.1083  2.3168
   24CHL1   C16 1723   0.636   2.180   9.235 -0.0090 -0.5376  0.1011
   24CHL1  H16A 1724   0.708   2.157   9.154 -0.0088  0.8660 -0.3284
   24CHL1  H16B 1725   0.549   2.126   9.193 -0.9236  0.9210  0.0404
   24CHL1   C17 1726   0.609   2.340   9.242 -0.3424  0.0939  0.3634
   24CHL1   H17 1727   0.508   2.359   9.283  0.4661  3.3176  1.1052
   24CHL1   C13 1728   0.689   2.382   9.368 -0.2411 -0.7914 -0.7811
   24CHL1   C18 1729   0.839   2.402   9.337  0.3683 -0.0859  1.0028
   24CHL1  H18A 1730   0.873   2.319   9.272 -0.8011  1.1593 -1.3395
   24CHL1  H18B 1731   0.844   2.489   9.267 -1.0519 -1.8809 -1.5069
   24CHL1  H18C 1732   0.909   2.411   9.423  0.9246 -3.5602  1.0368
   24CHL1   C12 1733   0.631   2.508   9.437 -0.0831 -0.9348 -0.2089
   24CHL1  H12A 1734   0.658   2.594   9.372 -0.5293 -1.7358 -1.4765
   24CHL1  H12B 1735   0.520   2.498   9.446 -0.1538 -3.3146 -2.5859
   24CHL1   C11 1736   0.698   2.519   9.578 -0.3647 -0.3569  0.4114
   24CHL1  H11A 1737   0.798   2.560   9.553 -1.2833  0.6505 -1.8462
   24CHL1  H11B 1738   0.645   2.601   9.633  0.7266 -0.1383  1.1693
   24CHL1    C9 1739   0.698   2.391   9.667 -0.0242 -0.1834 -0.2383
   24CHL1    H9 1740   0.589   2.374   9.684 -0.4368  0.8121 -1.6501
   24CHL1   C10 1741   0.759   2.404   9.812 -0.3422 -0.1133 -0.5935
   24CHL1   C19 1742   0.894   2.472   9.796  0.4196 -0.2960  0.3395
   24CHL1  H19A 1743   0.934   2.500   9.896 -1.0723 -0.3139  0.9619
   24CHL1  H19B 1744   0.961   2.405   9.738 -0.0727 -1.0539  0.6333
   24CHL1  H19C 1745   0.889   2.568   9.741  0.4278 -0.9669 -0.8815
   24CHL1    C1 1746   0.666   2.490   9.898 -0.0688 -0.0029 -0.9427
   24CHL1   H1A 1747   0.654   2.593   9.860  1.5493  1.5985  2.3947
   24CHL1   H1B 1748   0.565   2.444   9.905 -1.0336  1.9079 -1.7443
   24CHL1    C2 1749   0.700   2.498  10.053 -0.8338 -0.1586  0.4384
   24CHL1   H2A 1750   0.611   2.556  10.089 -2.1720 -2.2943  0.7343
   24CHL1   H2B 1751   0.790   2.564  10.052 -0.3963 -0.7112  1.7928
   24CHL1   C20 1752   0.628   2.420   9.104  0.1591  0.4038 -0.2665
   24CHL1   H20 1753   0.670   2.521   9.122  0.0245  0.0478  2.3548
   24CHL1   C21 1754   0.478   2.462   9.075 -0.0278 -0.0342  0.6411
   24CHL1  H21A 1755   0.406   2.378   9.073 -2.3765  1.8646 -0.8647
   24CHL1  H21B 1756   0.455   2.514   8.980  0.8457  0.1130  0.4960
   24CHL1  H21C 1757   0.441   2.533   9.153 -0.2383 -0.8454  1.2871
   24CHL1   C22 1758   0.700   2.342   8.992  0.2002  1.1990  0.2147
   24CHL1  H22A 1759   0.786   2.300   9.049 -1.0873 -2.3206 -0.2018
   24CHL1  H22B 1760   0.648   2.255   8.948  0.2740  1.4120 -0.3036
   24CHL1   C23 1761   0.759   2.426   8.877  1.3215 -1.3983  0.1637
   24CHL1  H23A 1762   0.674   2.476   8.826  2.8077  2.5046  1.1217
   24CHL1  H23B 1763   0.808   2.518   8.916 -0.1641 -0.4512 -0.0931
   24CHL1   C24 1764   0.844   2.348   8.775 -0.2462 -0.0224  0.5523
   24CHL1  H24A 1765   0.782   2.266   8.734  1.1939 -0.9281  0.1114
   24CHL1  H24B 1766   0.869   2.415   8.690 -0.5542 -0.5706  0.0195
   24CHL1   C25 1767   0.976   2.304   8.820 -0.0569  0.0738  0.2242
   24CHL1   H25 1768   0.957   2.238   8.907  1.2461 -3.2299 -1.7827
   24CHL1   C26 1769   1.042   2.219   8.710  0.4785 -0.3412 -0.3639
   24CHL1  H26A 1770   0.971   2.136   8.688  0.9849 -0.7365 -0.5333
   24CHL1  H26B 1771   1.051   2.292   8.628 -2.0023 -0.3626 -0.7554
   24CHL1  H26C 1772   1.145   2.198   8.745  0.6356  1.1566  0.1691
   24CHL1   C27 1773   1.070   2.410   8.869  0.4333 -0.5893  0.3788
   24CHL1  H27A 1774   1.163   2.360   8.904 -1.0182 -2.8476  1.2239
   24CHL1  H27B 1775   1.114   2.469   8.786  0.1772  0.7612  1.1674
   24CHL1  H27C 1776   1.022   2.475   8.945  1.5776 -1.3365  1.7883
   25CHL1    C3 1777   0.241   3.921  10.388  0.2040 -0.3599  0.4969
   25CHL1    H3 1778   0.219   3.812  10.383 -1.7545  0.0332 -0.5725
   25CHL1    O3 1779   0.223   3.981  10.516  0.2206 -0.3610  0.3189
   25CHL1   H3' 1780   0.299   4.038  10.527 -0.1954 -0.0238  1.6173
   25CHL1    C4 1781   0.389   3.932  10.345 -0.2053  0.0152  0.5761
   25CHL1   H4A 1782   0.410   4.040  10.361 -0.8548  0.1185  0.7478
   25CHL1   H4B 1783   0.452   3.882  10.422  1.2241 -1.3154 -1.3685
   25CHL1    C5 1784   0.420   3.894  10.198  0.5207 -0.6345 -0.1319
   25CHL1    C6 1785   0.505   3.792  10.169  0.1807 -0.4050  0.3031
   25CHL1    H6 1786   0.568   3.735  10.239 -1.6163 -4.0723 -0.8138
   25CHL1    C7 1787   0.541   3.758  10.022 -0.2676 -0.0441  0.1281
   25CHL1   H7A 1788   0.649   3.734  10.014  0.2392  2.2231 -0.3902
   25CHL1   H7B 1789   0.486   3.673   9.975  1.5302 -0.6273 -1.0451
   25CHL1    C8 1790   0.503   3.875   9.918 -0.2670  0.2706 -0.6106
   25CHL1    H8 1791   0.570   3.961   9.940 -0.6545  0.3602  0.2739
   25CHL1   C14 1792   0.518   3.823   9.775  0.0637 -0.3428  0.2324
   25CHL1   H14 1793   0.453   3.733   9.760 -0.8371  0.5380 -1.3518
   25CHL1   C15 1794   0.654   3.786   9.725  0.7261  0.3971  0.1674
   25CHL1  H15A 1795   0.710   3.880   9.746  0.5864  1.3190 -3.0752
   25CHL1  H15B 1796   0.701   3.706   9.787  0.2551  1.5378  2.0932
   25CHL1   C16 1797   0.639   3.773   9.571 -0.5336 -0.1913 -0.1950
   25CHL1  H16A 1798   0.717   3.828   9.515  0.0319 -1.2015 -0.4338
   25CHL1  H16B 1799   0.635   3.669   9.531 -0.1787  0.8955 -3.2919
   25CHL1   C17 1800   0.513   3.850   9.537  0.3651 -0.5751 -0.7215
   25CHL1   H17 1801   0.436   3.771   9.527  2.0129 -2.8854  2.7978
   25CHL1   C13 1802   0.473   3.928   9.667  0.5670  0.2456 -0.1263
   25CHL1   C18 1803   0.548   4.062   9.669  0.3275  0.0032 -0.0803
   25CHL1  H18A 1804   0.544   4.107   9.771 -1.0569 -0.8139  0.2510
   25CHL1  H18B 1805   0.657   4.048   9.655  0.4475  2.4263 -2.1949
   25CHL1  H18C 1806   0.499   4.131   9.598 -0.3836 -0.9959 -0.5865
   25CHL1   C12 1807   0.332   3.955   9.694  0.2146 -0.4105  0.1093
   25CHL1  H12A 1808   0.295   4.040   9.632  0.5165 -0.2084  0.2043
   25CHL1  H12B 1809   0.274   3.867   9.660 -0.3541 -0.6539  1.6526
   25CHL1   C11 1810   0.293   4.003   9.837  0.4143  0.2323 -0.5598
   25CHL1  H11A 1811   0.333   4.107   9.841  2.1938 -0.2819 -2.8346
   25CHL1  H11B 1812   0.182   3.997   9.845  0.4681  1.3909  2.0290
   25CHL1    C9 1813   0.358   3.909   9.947  0.0283 -0.1592  0.4025
   25CHL1    H9 1814   0.310   3.810   9.933 -1.5304  0.3825  1.5720
   25CHL1   C10 1815   0.335   3.966  10.093  0.0224  0.1977 -0.6375
   25CHL1   C19 1816   0.383   4.113  10.098  0.1859  0.0813  0.0976
   25CHL1  H19A 1817   0.478   4.123  10.041  0.8177  0.1087  1.1093
   25CHL1  H19B 1818   0.301   4.179  10.065 -0.4030  0.0327  1.4007
   25CHL1  H19C 1819   0.397   4.161  10.198 -0.4240 -1.5863  1.0271
   25CHL1    C1 1820   0.180   3.944  10.135 -0.8200 -0.6974  0.0619
   25CHL1   H1A 1821   0.127   4.006  10.060  0.0057 -0.0657 -0.0158
   25CHL1   H1B 1822   0.134   3.844  10.125 -0.5743 -0.8935  0.7943
   25CHL1    C2 1823   0.151   3.997  10.287  0.4197  0.8595 -0.2733
   25CHL1   H2A 1824   0.046   3.967  10.305  0.6692  0.4293  0.5324
   25CHL1   H2B 1825   0.172   4.106  10.285 -1.7057  1.2923 -0.7384
   25CHL1   C20 1826   0.518   3.943   9.408 -0.2600 -0.2736  0.6772
   25CHL1   H20 1827   0.583   4.032   9.421 -0.9214  0.5309 -1.1443
   25CHL1   C21 1828   0.385   4.020   9.375  0.6157  0.1292 -0.1412
   25CHL1  H21A 1829   0.371   4.096   9.454  0.2556  0.1589 -0.2330
   25CHL1  H21B 1830   0.307   3.941   9.378  0.6860 -0.0876 -2.1923
   25CHL1  H21C 1831   0.393   4.083   9.284 -0.7120  2.2263  1.1180
   25CHL1   C22 1832   0.565   3.869   9.276  0.6484 -1.0925  0.1457
   25CHL1  H22A 1833   0.653   3.807   9.303  1.8614  0.3404 -0.3917
   25CHL1  H22B 1834   0.481   3.805   9.241 -2.7999  2.3925  1.2959
   25CHL1   C23 1835   0.615   3.975   9.163  0.3752  0.1633 -0.0117
   25CHL1  H23A 1836   0.522   4.012   9.114 -1.5137 -1.1360  2.3699
   25CHL1  H23B 1837   0.671   4.052   9.220  2.3819 -0.8880 -0.5095
   25CHL1   C24 1838   0.708   3.904   9.061  0.6682 -0.0392 -0.0299
   25CHL1  H24A 1839   0.792   3.862   9.121 -0.8892 -2.1686  0.7973
   25CHL1  H24B 1840   0.659   3.812   9.022  2.8890 -1.8103  1.0905
   25CHL1   C25 1841   0.746   3.994   8.943 -0.5962  0.2283  0.6685
   25CHL1   H25 1842   0.673   4.078   8.942  0.2102  0.9552  1.3959
   25CHL1   C26 1843   0.888   4.048   8.959 -0.9865  0.4969  0.4182
   25CHL1  H26A 1844   0.956   3.969   8.996  0.6599  1.8266  0.3507
   25CHL1  H26B 1845   0.932   4.096   8.869  0.5932 -0.9748  0.3622
   25CHL1  H26C 1846   0.887   4.119   9.044  2.2762 -1.8699  2.6266
   25CHL1   C27 1847   0.729   3.923   8.809 -0.3253 -0.2308  0.3096
   25CHL1  H27A 1848   0.772   3.821   8.809  1.7625  0.6066 -0.6062
   25CHL1  H27B 1849   0.621   3.912   8.782 -0.3528 -0.2795  0.4426
   25CHL1  H27C 1850   0.772   3.979   8.723 -1.3872 -1.0356 -0.7789
   26CHL1    C3 1851   3.631   6.649  10.138 -0.4646  0.2998 -0.0633
   26CHL1    H3 1852   3.719   6.673  10.075  1.6770 -2.4028  1.6133
   26CHL1    O3 1853   3.670   6.648  10.277  0.3906  0.2505 -0.0514
   26CHL1   H3' 1854   3.589   6.612  10.313 -0.1290 -0.7413 -2.0511
   26CHL1    C4 1855   3.511   6.743  10.115 -0.1807  0.2785 -0.2432
   26CHL1   H4A 1856   3.429   6.725  10.188 -2.6338  0.6975 -2.7321
   26CHL1   H4B 1857   3.551   6.844  10.140  0.8520 -0.5500  1.6929
   26CHL1    C5 1858   3.456   6.735   9.976  0.2905  0.2552 -0.3161
   26CHL1    C6 1859   3.439   6.847   9.913  0.1872  0.1389 -0.0640
   26CHL1    H6 1860   3.471   6.944   9.955 -2.7410  0.8561  0.7687
   26CHL1    C7 1861   3.385   6.856   9.776 -0.0815 -0.1092  0.0103
   26CHL1   H7A 1862   3.302   6.929   9.772 -0.9812 -1.1378 -3.2241
   26CHL1   H7B 1863   3.468   6.911   9.727  0.9256  0.2236  1.9695
   26CHL1    C8 1864   3.355   6.726   9.707  0.5757  0.5496  0.4823
   26CHL1    H8 1865   3.248   6.706   9.727  0.5604 -0.1484 -0.2375
   26CHL1   C14 1866   3.364   6.737   9.558 -0.8796 -0.2353 -0.4349
   26CHL1   H14 1867   3.473   6.749   9.539 -0.2389  0.7512  3.1578
   26CHL1   C15 1868   3.300   6.853   9.481 -0.3307  0.1307 -0.1424
   26CHL1  H15A 1869   3.193   6.867   9.506  0.0452  0.4306  1.4342
   26CHL1  H15B 1870   3.358   6.945   9.503 -3.4188  2.1772  0.1101
   26CHL1   C16 1871   3.296   6.813   9.331 -0.1450 -0.4020  0.2376
   26CHL1  H16A 1872   3.190   6.827   9.302  0.4686  1.0093 -1.4996
   26CHL1  H16B 1873   3.355   6.877   9.262  0.9287  0.0033  1.4777
   26CHL1   C17 1874   3.342   6.662   9.330  0.0505  0.6936 -0.0471
   26CHL1   H17 1875   3.453   6.660   9.319  0.1028 -1.3406  0.4668
   26CHL1   C13 1876   3.322   6.613   9.476  0.4952  0.0390 -0.1767
   26CHL1   C18 1877   3.175   6.582   9.504  0.4432  0.1616  0.8540
   26CHL1  H18A 1878   3.107   6.657   9.457  1.7794  0.9136  0.0748
   26CHL1  H18B 1879   3.141   6.485   9.463 -0.6661  0.7778  0.2774
   26CHL1  H18C 1880   3.152   6.577   9.613  0.7558 -0.8911  0.8779
   26CHL1   C12 1881   3.411   6.498   9.522 -0.0214 -0.0008 -0.0683
   26CHL1  H12A 1882   3.393   6.400   9.472  1.0404 -0.2129 -0.0538
   26CHL1  H12B 1883   3.519   6.520   9.507  0.5705 -1.3987  1.7413
   26CHL1   C11 1884   3.393   6.476   9.674  0.0845  0.0803 -0.2813
   26CHL1  H11A 1885   3.293   6.432   9.690 -0.9733  0.8179 -3.9007
   26CHL1  H11B 1886   3.464   6.396   9.703  2.1491  1.9426  0.1578
   26CHL1    C9 1887   3.437   6.605   9.753  0.1849 -0.4868 -0.4804
   26CHL1    H9 1888   3.542   6.624   9.724  0.5410  1.1600  1.6118
   26CHL1   C10 1889   3.427   6.597   9.910  0.2589  0.6907 -0.1113
   26CHL1   C19 1890   3.293   6.536   9.964 -0.0648  0.0080 -0.0603
   26CHL1  H19A 1891   3.210   6.602   9.932 -0.0808  1.4147  2.6407
   26CHL1  H19B 1892   3.270   6.433   9.927 -2.4096  0.0374  1.1465
   26CHL1  H19C 1893   3.292   6.531  10.075 -0.0748 -1.1823 -0.1030
   26CHL1    C1 1894   3.548   6.503   9.957  0.4627  0.1555  0.0909
   26CHL1   H1A 1895   3.510   6.403   9.927 -0.7842  0.5704  0.2099
   26CHL1   H1B 1896   3.640   6.529   9.901 -0.2986  0.9088 -0.8654
   26CHL1    C2 1897   3.587   6.509  10.105  0.2791 -0.2432 -0.7337
   26CHL1   H2A 1898   3.662   6.428  10.114 -2.1871 -2.5078  0.8179
   26CHL1   H2B 1899   3.515   6.467  10.177  0.9520  1.7553  1.2254
   26CHL1   C20 1900   3.275   6.588   9.215  0.4719  0.5622  0.2772
   26CHL1   H20 1901   3.168   6.615   9.227  0.0570 -0.9114  0.0253
   26CHL1   C21 1902   3.287   6.440   9.228 -0.3997 -0.1236 -0.0363
   26CHL1  H21A 1903   3.263   6.412   9.332 -1.2025  1.0413  0.1098
   26CHL1  H21B 1904   3.391   6.416   9.198 -0.6196  0.8625 -1.7165
   26CHL1  H21C 1905   3.220   6.386   9.158 -1.0038  2.5427 -1.6880
   26CHL1   C22 1906   3.335   6.634   9.079  0.0786  0.1348  0.0088
   26CHL1  H22A 1907   3.339   6.745   9.080 -0.1336  0.1547 -0.6780
   26CHL1  H22B 1908   3.442   6.605   9.070  0.3620  0.9081  0.7299
   26CHL1   C23 1909   3.259   6.580   8.959 -0.4585  0.5850  0.0840
   26CHL1  H23A 1910   3.270   6.471   8.940  0.4055  0.9227 -1.5485
   26CHL1  H23B 1911   3.150   6.600   8.962 -0.6320 -0.1625 -0.8325
   26CHL1   C24 1912   3.321   6.649   8.836 -0.2757 -0.5077  0.1572
   26CHL1  H24A 1913   3.340   6.757   8.855  0.8170 -0.7283  0.4080
   26CHL1  H24B 1914   3.421   6.601   8.830 -0.3364 -0.9263  1.9757
   26CHL1   C25 1915   3.257   6.623   8.696 -0.2908 -0.1975  0.0721
   26CHL1   H25 1916   3.234   6.518   8.668 -0.6306 -0.1767  0.2681
   26CHL1   C26 1917   3.128   6.703   8.694  0.5183  0.0328 -0.6056
   26CHL1  H26A 1918   3.078   6.710   8.595 -1.6219 -0.2880  0.3877
   26CHL1  H26B 1919   3.059   6.664   8.772  1.5081 -1.8285 -0.6111
   26CHL1  H26C 1920   3.134   6.811   8.719 -2.7199  0.4444 -1.1540
   26CHL1   C27 1921   3.347   6.664   8.583  0.0835 -0.0536  0.0812
   26CHL1  H27A 1922   3.304   6.643   8.483 -1.2307  2.2986  0.0926
   26CHL1  H27B 1923   3.361   6.773   8.592 -0.7783 -0.0862  2.6596
   26CHL1  H27C 1924   3.444   6.611   8.601  0.5271 -0.0111 -1.9189
   27CHL1    C3 1925   2.289   1.695  10.268  0.2335 -0.3211 -0.4591
   27CHL1    H3 1926   2.190   1.648  10.249  0.4003 -2.2508  2.8789
   27CHL1    O3 1927   2.315   1.671  10.406 -0.2695 -0.0799  0.3086
   27CHL1   H3' 1928   2.398   1.718  10.413 -0.9197  0.9638  1.4064
   27CHL1    C4 1929   2.397   1.626  10.187  0.4395  0.1450  0.6344
   27CHL1   H4A 1930   2.500   1.666  10.202  0.0601  1.4172 -0.0029
   27CHL1   H4B 1931   2.389   1.520  10.218 -0.2600  0.7246  2.5305
   27CHL1    C5 1932   2.370   1.635  10.035  0.4022 -0.6995 -0.0473
   27CHL1    C6 1933   2.368   1.522   9.955 -0.6019 -0.9299  0.7501
   27CHL1    H6 1934   2.375   1.421   9.998 -1.0122 -2.4576 -2.4237
   27CHL1    C7 1935   2.361   1.537   9.802  1.1760  0.2017  0.6183
   27CHL1   H7A 1936   2.434   1.471   9.751  2.5255  1.5794  0.6801
   27CHL1   H7B 1937   2.266   1.508   9.754  2.7223 -1.6557 -1.5063
   27CHL1    C8 1938   2.395   1.677   9.753  0.0901  0.6278 -0.3921
   27CHL1    H8 1939   2.505   1.692   9.753  0.2025 -0.0183  0.8826
   27CHL1   C14 1940   2.342   1.686   9.603 -0.6176  0.1270 -0.4826
   27CHL1   H14 1941   2.232   1.670   9.604 -0.4731 -0.8976 -0.1579
   27CHL1   C15 1942   2.383   1.578   9.504  0.5235  0.0998  0.3696
   27CHL1  H15A 1943   2.487   1.549   9.530  0.5089  0.2369  0.5785
   27CHL1  H15B 1944   2.307   1.497   9.507  2.0192 -1.3220  1.0696
   27CHL1   C16 1945   2.376   1.647   9.370 -0.5988 -0.1470 -0.1206
   27CHL1  H16A 1946   2.472   1.639   9.314  0.2963 -1.2094  1.4866
   27CHL1  H16B 1947   2.297   1.601   9.308 -0.0169  2.0060 -2.6531
   27CHL1   C17 1948   2.326   1.791   9.388 -0.3029 -0.6301 -0.6286
   27CHL1   H17 1949   2.215   1.786   9.389 -0.7165  3.8612 -0.3273
   27CHL1   C13 1950   2.365   1.820   9.538 -0.2187 -0.5675 -0.8988
   27CHL1   C18 1951   2.511   1.864   9.548  0.0855 -0.2010 -0.1672
   27CHL1  H18A 1952   2.545   1.869   9.653  0.8243  0.6699 -0.4395
   27CHL1  H18B 1953   2.579   1.797   9.491  0.0144  0.0222 -0.5161
   27CHL1  H18C 1954   2.529   1.961   9.497  3.0417 -1.0386 -0.9073
   27CHL1   C12 1955   2.271   1.913   9.618  0.0861  0.0407  0.3086
   27CHL1  H12A 1956   2.279   2.019   9.584 -0.5016 -0.3831 -1.2612
   27CHL1  H12B 1957   2.164   1.886   9.605  0.1232  0.7713 -2.1332
   27CHL1   C11 1958   2.306   1.917   9.770 -0.2307  0.0996 -0.1712
   27CHL1  H11A 1959   2.398   1.978   9.775 -1.5022  2.0934  0.4322
   27CHL1  H11B 1960   2.226   1.978   9.819  0.9807  0.9180  0.8502
   27CHL1    C9 1961   2.315   1.782   9.833  0.4960  0.0758 -0.7144
   27CHL1    H9 1962   2.212   1.740   9.831  0.3268  0.4865 -2.6655
   27CHL1   C10 1963   2.358   1.779   9.986  0.3387 -0.5725  0.7768
   27CHL1   C19 1964   2.501   1.838   9.992  0.6664 -0.0938  0.2611
   27CHL1  H19A 1965   2.496   1.947   9.976 -1.2376 -0.3881 -1.4737
   27CHL1  H19B 1966   2.557   1.819  10.086 -0.8397  0.8729  1.3972
   27CHL1  H19C 1967   2.561   1.789   9.912  0.9274 -0.6149  0.7633
   27CHL1    C1 1968   2.263   1.858  10.079 -0.1139 -0.1172 -0.4109
   27CHL1   H1A 1969   2.272   1.966  10.055 -0.7503 -0.0187 -0.2461
   27CHL1   H1B 1970   2.159   1.826  10.057  0.0988 -0.8664 -0.3353
   27CHL1    C2 1971   2.274   1.839  10.232 -0.5872 -0.8906 -0.0098
   27CHL1   H2A 1972   2.191   1.875  10.296 -0.3229 -1.4127  0.6429
   27CHL1   H2B 1973   2.359   1.901  10.267 -2.0073  0.6545  0.8543
   27CHL1   C20 1974   2.363   1.893   9.270  0.7080 -0.1989 -0.1945
   27CHL1   H20 1975   2.473   1.910   9.272  0.5869  0.5480  1.2580
   27CHL1   C21 1976   2.277   2.022   9.290  0.0886  0.9786 -0.4281
   27CHL1  H21A 1977   2.292   2.098   9.211 -0.1607  2.0467  0.5262
   27CHL1  H21B 1978   2.312   2.073   9.383  1.5417 -0.9919  0.1985
   27CHL1  H21C 1979   2.170   1.994   9.289  0.3623 -0.1394 -0.6282
   27CHL1   C22 1980   2.322   1.832   9.134  0.8863 -0.0457  0.1634
   27CHL1  H22A 1981   2.368   1.731   9.124 -1.1517 -1.3456  2.5273
   27CHL1  H22B 1982   2.213   1.811   9.132  0.8817  0.0345 -0.6603
   27CHL1   C23 1983   2.347   1.930   9.010 -0.0023  0.1677  0.5960
   27CHL1  H23A 1984   2.281   2.018   9.022 -2.2475 -1.4143  0.4771
   27CHL1  H23B 1985   2.448   1.978   9.014 -1.3726  3.5673 -1.3757
   27CHL1   C24 1986   2.326   1.866   8.875 -0.2693  0.6396  0.0062
   27CHL1  H24A 1987   2.407   1.795   8.849 -1.3019 -0.2324 -0.9537
   27CHL1  H24B 1988   2.229   1.812   8.885  1.0641 -1.6426  1.4233
   27CHL1   C25 1989   2.294   1.964   8.754 -0.5717 -0.3921  0.0527
   27CHL1   H25 1990   2.206   2.031   8.767 -1.3325 -0.6885 -2.7369
   27CHL1   C26 1991   2.406   2.067   8.717  0.5960 -0.5251 -0.2600
   27CHL1  H26A 1992   2.382   2.119   8.622  0.9280  3.2971  1.5622
   27CHL1  H26B 1993   2.426   2.142   8.796  0.3435 -0.2418 -0.4602
   27CHL1  H26C 1994   2.503   2.012   8.711  1.0333 -0.0044  1.4696
   27CHL1   C27 1995   2.261   1.884   8.624 -0.4124  0.2407  1.2526
   27CHL1  H27A 1996   2.202   1.942   8.550  0.2616 -0.3548  0.2101
   27CHL1  H27B 1997   2.358   1.843   8.588 -0.8656 -2.5649  2.9896
   27CHL1  H27C 1998   2.218   1.785   8.646 -0.9108  0.6825  2.3507
   28CHL1    C3 1999   1.757   2.034  10.278  0.2577  0.3443 -0.4698
   28CHL1    H3 2000   1.661   1.985  10.252  0.6564  0.3046 -1.9362
   28CHL1    O3 2001   1.773   2.036  10.413 -0.0119 -0.1149 -0.5315
   28CHL1   H3' 2002   1.689   2.012  10.452  1.0255 -6.2355 -0.9343
   28CHL1    C4 2003   1.869   1.949  10.216  0.1777 -0.2643  0.0573
   28CHL1   H4A 2004   1.967   1.998  10.235 -0.5630  1.8081 -1.2471
   28CHL1   H4B 2005   1.876   1.847  10.262 -0.8091 -0.2523  0.2622
   28CHL1    C5 2006   1.840   1.942  10.067 -0.8820 -0.4443 -0.0789
   28CHL1    C6 2007   1.828   1.823  10.005  0.0300  0.0958 -0.0845
   28CHL1    H6 2008   1.834   1.732  10.068  2.0321 -0.3083 -0.7936
   28CHL1    C7 2009   1.829   1.805   9.862  0.3631 -0.2407 -0.4387
   28CHL1   H7A 2010   1.898   1.724   9.832  0.7243  0.2961 -1.0788
   28CHL1   H7B 2011   1.734   1.765   9.820 -1.2510  1.7986  1.0195
   28CHL1    C8 2012   1.851   1.939   9.783 -0.5619 -0.2655 -1.3383
   28CHL1    H8 2013   1.961   1.956   9.782 -0.5878  0.5555  1.2688
   28CHL1   C14 2014   1.800   1.925   9.639 -0.6186  0.3507  0.1209
   28CHL1   H14 2015   1.689   1.917   9.641 -0.8196  2.4528 -0.5894
   28CHL1   C15 2016   1.851   1.804   9.559  0.8736 -0.3285  0.2466
   28CHL1  H15A 2017   1.961   1.791   9.572  0.9451  0.4754  0.5096
   28CHL1  H15B 2018   1.798   1.708   9.573  1.2372 -0.3465  1.6086
   28CHL1   C16 2019   1.818   1.841   9.417 -0.1039 -0.1390 -0.5382
   28CHL1  H16A 2020   1.911   1.841   9.356 -0.7088 -0.0278 -1.4799
   28CHL1  H16B 2021   1.745   1.775   9.367 -0.2426 -0.1103 -0.3769
   28CHL1   C17 2022   1.766   1.997   9.420  0.0657  0.3695  0.4267
   28CHL1   H17 2023   1.657   1.984   9.435 -0.0646  1.2720  0.2613
   28CHL1   C13 2024   1.815   2.053   9.556 -0.0016 -0.0726  1.2973
   28CHL1   C18 2025   1.966   2.100   9.535 -0.2116  0.3487  0.3013
   28CHL1  H18A 2026   2.018   2.008   9.502 -1.5259 -1.0465  1.9536
   28CHL1  H18B 2027   1.973   2.180   9.457 -2.1911  0.6031  0.3450
   28CHL1  H18C 2028   2.020   2.128   9.628  1.6923 -0.9784 -0.3583
   28CHL1   C12 2029   1.732   2.169   9.620 -0.3304 -0.1493  0.3775
   28CHL1  H12A 2030   1.737   2.270   9.574 -2.4371  0.7469  2.0021
   28CHL1  H12B 2031   1.627   2.135   9.609 -1.4887  2.2324  2.8350
   28CHL1   C11 2032   1.783   2.187   9.760  0.3072  1.2211  0.2158
   28CHL1  H11A 2033   1.891   2.214   9.752  0.4206  0.5944 -0.5307
   28CHL1  H11B 2034   1.718   2.264   9.806  0.1623  0.3800  1.4500
   28CHL1    C9 2035   1.788   2.054   9.849  0.7566  0.0523 -0.2255
   28CHL1    H9 2036   1.680   2.028   9.848  0.5381  0.9630 -0.5373
   28CHL1   C10 2037   1.835   2.070   9.991  0.3312 -0.7934  0.1441
   28CHL1   C19 2038   1.973   2.146   9.989  0.1645  0.5692  0.0884
   28CHL1  H19A 2039   2.024   2.130  10.086 -0.1974  1.6548  0.4803
   28CHL1  H19B 2040   2.033   2.094   9.912 -2.6191 -3.5278  0.4323
   28CHL1  H19C 2041   1.961   2.255   9.970  1.6014  0.8255  0.5229
   28CHL1    C1 2042   1.730   2.162  10.060 -1.2855 -0.8228 -0.0358
   28CHL1   H1A 2043   1.750   2.259  10.008  1.1253 -0.5532  1.2412
   28CHL1   H1B 2044   1.624   2.130  10.047 -1.0715 -1.7309  0.3567
   28CHL1    C2 2045   1.747   2.172  10.214 -0.5678  0.4037 -0.4803
   28CHL1   H2A 2046   1.664   2.227  10.263 -1.0910  0.2260 -1.1542
   28CHL1   H2B 2047   1.842   2.223  10.240  0.7015 -1.5143 -1.1813
   28CHL1   C20 2048   1.801   2.062   9.281  0.0422 -0.0343 -0.0251
   28CHL1   H20 2049   1.912   2.065   9.276  0.0520  1.8941  0.4093
   28CHL1   C21 2050   1.762   2.209   9.283  0.3457 -1.1006  0.0610
   28CHL1  H21A 2051   1.652   2.220   9.276  0.5790  1.1481 -0.8865
   28CHL1  H21B 2052   1.795   2.257   9.189 -0.5451 -0.1943  0.1914
   28CHL1  H21C 2053   1.805   2.264   9.370 -1.2683 -1.9161  1.4327
   28CHL1   C22 2054   1.753   1.988   9.154 -0.2911  0.4025 -0.1461
   28CHL1  H22A 2055   1.794   1.885   9.163  1.1208  1.0767  1.4887
   28CHL1  H22B 2056   1.642   1.978   9.157 -0.0923 -2.1799  1.6118
   28CHL1   C23 2057   1.814   2.039   9.018  0.2382  0.2277 -0.9840
   28CHL1  H23A 2058   1.809   2.150   9.007  5.0399  0.9806  1.5541
   28CHL1  H23B 2059   1.924   2.023   9.011  0.1342 -0.3410 -1.3401
   28CHL1   C24 2060   1.752   1.969   8.895 -0.7175 -0.0085  0.7718
   28CHL1  H24A 2061   1.801   1.870   8.886 -0.8312  0.0841 -1.6640
   28CHL1  H24B 2062   1.642   1.953   8.896 -0.7319 -0.0098  0.0184
   28CHL1   C25 2063   1.772   2.051   8.761 -0.1887  0.2336  0.1589
   28CHL1   H25 2064   1.725   2.150   8.780 -0.2364  0.3635 -0.5965
   28CHL1   C26 2065   1.920   2.069   8.731  0.2753 -0.2423 -0.2263
   28CHL1  H26A 2066   1.981   1.977   8.737 -1.5062 -1.4538 -0.0185
   28CHL1  H26B 2067   1.926   2.111   8.628 -1.2295  0.2722 -0.1333
   28CHL1  H26C 2068   1.964   2.131   8.812  0.0817 -0.7842  0.2982
   28CHL1   C27 2069   1.701   1.986   8.636  1.0197  0.2859 -0.0280
   28CHL1  H27A 2070   1.597   1.950   8.627  1.3790 -0.3551 -2.7272
   28CHL1  H27B 2071   1.731   2.053   8.552 -0.7518 -1.2074 -1.9538
   28CHL1  H27C 2072   1.754   1.891   8.614  0.2686 -0.2926  0.6294
   29CHL1    C3 2073   0.852   6.183   6.755 -0.3190 -0.1157 -0.0841
   29CHL1    H3 2074   0.934   6.257   6.749  0.8478 -1.4759 -2.2712
   29CHL1    O3 2075   0.808   6.151   6.627  0.1555 -0.2488 -0.0655
   29CHL1   H3' 2076   0.720   6.116   6.644 -0.4425 -0.1049 -2.5055
   29CHL1    C4 2077   0.894   6.051   6.816 -0.2004 -0.3684  0.2980
   29CHL1   H4A 2078   0.807   5.981   6.813 -0.9107  0.5463 -1.0057
   29CHL1   H4B 2079   0.977   6.026   6.746  0.9934  1.0760  1.1274
   29CHL1    C5 2080   0.917   6.067   6.963 -0.4462  0.5985 -0.2140
   29CHL1    C6 2081   1.041   6.020   7.010  0.3029  0.0897  0.2051
   29CHL1    H6 2082   1.118   5.974   6.947 -0.9774 -0.3724 -1.0815
   29CHL1    C7 2083   1.065   6.025   7.158 -0.6841  0.5380 -0.3898
   29CHL1   H7A 2084   1.106   5.927   7.192  0.0509  1.6584  2.2269
   29CHL1   H7B 2085   1.153   6.088   7.181 -0.2741 -0.0195 -0.3967
   29CHL1    C8 2086   0.950   6.073   7.253 -0.0765  0.0265 -0.2008
   29CHL1    H8 2087   0.884   5.984   7.256  0.8866 -0.7147 -0.4261
   29CHL1   C14 2088   0.989   6.116   7.383  0.3429 -0.4553 -0.4502
   29CHL1   H14 2089   1.040   6.214   7.375  1.3036 -1.1100 -2.9799
   29CHL1   C15 2090   1.073   6.030   7.473 -0.1628  0.4344  0.3685
   29CHL1  H15A 2091   1.045   5.923   7.461  0.5962  0.3762 -0.9620
   29CHL1  H15B 2092   1.177   6.040   7.436 -1.0197 -2.3620 -3.4330
   29CHL1   C16 2093   1.060   6.091   7.611  0.3147 -0.6788 -0.3857
   29CHL1  H16A 2094   1.023   6.012   7.680 -1.8088  0.4052 -0.1853
   29CHL1  H16B 2095   1.149   6.135   7.661  0.1473 -1.7223  0.8970
   29CHL1   C17 2096   0.955   6.202   7.606  0.1179  0.3424  0.5893
   29CHL1   H17 2097   0.999   6.301   7.578  0.7020 -0.1757 -0.3568
   29CHL1   C13 2098   0.872   6.162   7.473  0.0075  0.2063  0.0230
   29CHL1   C18 2099   0.769   6.057   7.516  0.0349  0.3622 -0.7478
   29CHL1  H18A 2100   0.700   6.115   7.581 -1.6807  0.1816 -2.3289
   29CHL1  H18B 2101   0.709   6.012   7.434 -2.5014  0.7927  0.7442
   29CHL1  H18C 2102   0.818   5.973   7.569 -1.7702  1.0084  2.1987
   29CHL1   C12 2103   0.809   6.280   7.408 -0.1484 -0.1972  0.4219
   29CHL1  H12A 2104   0.724   6.332   7.456 -0.7697 -0.1266 -0.7199
   29CHL1  H12B 2105   0.890   6.355   7.397  0.1826 -0.8049 -2.0331
   29CHL1   C11 2106   0.749   6.244   7.277 -0.3082 -0.6978  0.4919
   29CHL1  H11A 2107   0.671   6.165   7.289 -1.9783  0.7798 -0.1584
   29CHL1  H11B 2108   0.695   6.325   7.223  0.3876 -1.1020 -0.8672
   29CHL1    C9 2109   0.863   6.184   7.181 -0.5835 -0.1801 -1.3385
   29CHL1    H9 2110   0.932   6.269   7.163 -0.5755  0.1127  0.0073
   29CHL1   C10 2111   0.807   6.138   7.043 -0.2188  0.0693 -0.2984
   29CHL1   C19 2112   0.685   6.040   7.062 -0.0137 -0.2575  0.1971
   29CHL1  H19A 2113   0.645   5.997   6.968  0.9669 -1.6562  0.3876
   29CHL1  H19B 2114   0.704   5.963   7.140  0.2963  1.3436  1.7869
   29CHL1  H19C 2115   0.605   6.106   7.101 -1.3670  0.1220 -2.9752
   29CHL1    C1 2116   0.760   6.270   6.967 -0.5360  0.3281 -0.1142
   29CHL1   H1A 2117   0.663   6.292   7.016 -0.2326  0.3475  0.4910
   29CHL1   H1B 2118   0.837   6.348   6.988  0.3326  0.0248 -1.9780
   29CHL1    C2 2119   0.731   6.252   6.823  0.4420  0.4730 -0.5853
   29CHL1   H2A 2120   0.697   6.350   6.784  0.4312  0.3641 -0.8541
   29CHL1   H2B 2121   0.639   6.189   6.821 -0.6217  1.9822 -0.5931
   29CHL1   C20 2122   0.886   6.236   7.742 -0.0430  0.4033 -0.2374
   29CHL1   H20 2123   0.833   6.143   7.770 -1.3433  1.2520  0.1860
   29CHL1   C21 2124   0.783   6.348   7.719 -0.6689  0.6790  1.2526
   29CHL1  H21A 2125   0.824   6.441   7.673 -2.3217  1.4223  1.2192
   29CHL1  H21B 2126   0.729   6.374   7.813 -1.8802  0.9631  0.4987
   29CHL1  H21C 2127   0.711   6.302   7.649  0.3112  1.8830 -0.6272
   29CHL1   C22 2128   0.987   6.264   7.855  0.5788 -0.0552  0.4202
   29CHL1  H22A 2129   1.063   6.183   7.857 -0.6882 -1.3240 -0.3833
   29CHL1  H22B 2130   1.031   6.360   7.822  0.3837 -0.3154 -0.6416
   29CHL1   C23 2131   0.921   6.266   7.994  0.0967 -0.3378 -0.1240
   29CHL1  H23A 2132   0.839   6.340   7.999  0.1929 -0.0865 -1.6285
   29CHL1  H23B 2133   0.864   6.171   8.002  0.7458 -0.8751 -1.4170
   29CHL1   C24 2134   1.009   6.303   8.111 -0.3062  0.1647 -0.6043
   29CHL1  H24A 2135   1.112   6.262   8.099 -0.9423 -1.6139 -0.2749
   29CHL1  H24B 2136   1.024   6.414   8.113 -1.6299  0.3549  0.9098
   29CHL1   C25 2137   0.957   6.272   8.254 -0.1088  0.1004  0.2059
   29CHL1   H25 2138   0.984   6.165   8.266  3.0248  0.4929 -2.0141
   29CHL1   C26 2139   1.048   6.343   8.354 -0.1891 -1.1238  0.5079
   29CHL1  H26A 2140   1.017   6.319   8.458 -1.0294  0.6770  0.7194
   29CHL1  H26B 2141   1.157   6.321   8.355  0.2052  0.6601  0.2499
   29CHL1  H26C 2142   1.036   6.453   8.338  1.4551 -1.1595 -1.2476
   29CHL1   C27 2143   0.808   6.306   8.278  0.0945  0.4872  0.7828
   29CHL1  H27A 2144   0.779   6.412   8.259 -1.1355  0.2369  1.1724
   29CHL1  H27B 2145   0.748   6.255   8.199  1.4610  0.9659 -0.6119
   29CHL1  H27C 2146   0.775   6.278   8.380  2.2469  1.3489  1.7644
   30CHL1    C3 2147   2.849   6.359   7.283  0.2609 -0.1116 -0.3520
   30CHL1    H3 2148   2.919   6.293   7.338 -1.2280  0.2472  2.1127
   30CHL1    O3 2149   2.836   6.342   7.144  0.1117 -0.1303  0.1439
   30CHL1   H3' 2150   2.799   6.255   7.134  2.0978 -1.1010  0.6746
   30CHL1    C4 2151   2.708   6.339   7.341  0.6138  0.5677 -0.0454
   30CHL1   H4A 2152   2.630   6.398   7.287 -0.7826 -0.0782  1.1805
   30CHL1   H4B 2153   2.680   6.232   7.325  3.4492 -0.0054 -1.6642
   30CHL1    C5 2154   2.711   6.378   7.489 -0.7086  0.6954  0.7336
   30CHL1    C6 2155   2.674   6.285   7.580 -0.1264  0.2785 -0.5186
   30CHL1    H6 2156   2.632   6.186   7.557  3.1346 -0.8147 -2.4313
   30CHL1    C7 2157   2.687   6.307   7.732 -0.9976  0.2628  0.2036
   30CHL1   H7A 2158   2.592   6.288   7.786 -0.5151  0.7169  1.2386
   30CHL1   H7B 2159   2.761   6.235   7.773 -1.0771  0.2857  0.3874
   30CHL1    C8 2160   2.722   6.448   7.772  0.4094 -0.1763 -0.9749
   30CHL1    H8 2161   2.628   6.507   7.768  1.7692  2.1484 -0.4201
   30CHL1   C14 2162   2.773   6.457   7.918  0.0444  0.6497  0.5745
   30CHL1   H14 2163   2.878   6.423   7.918  0.0853  0.7173 -0.5633
   30CHL1   C15 2164   2.706   6.376   8.033  0.0581  0.0015  0.1675
   30CHL1  H15A 2165   2.596   6.376   8.023  0.0030  0.2270  0.7398
   30CHL1  H15B 2166   2.739   6.269   8.034  1.3998  0.3924  1.5607
   30CHL1   C16 2167   2.741   6.450   8.160  0.8114  0.4458  0.6071
   30CHL1  H16A 2168   2.650   6.487   8.212  0.3809  1.0824 -0.5810
   30CHL1  H16B 2169   2.794   6.385   8.232  0.1238  0.4756  1.1566
   30CHL1   C17 2170   2.825   6.575   8.113 -0.0300 -0.2420 -1.4063
   30CHL1   H17 2171   2.930   6.539   8.102  0.0501  0.3419 -2.6924
   30CHL1   C13 2172   2.786   6.601   7.969  0.3022  0.0848  1.1895
   30CHL1   C18 2173   2.647   6.671   7.969  0.6669 -0.2145  0.5982
   30CHL1  H18A 2174   2.608   6.680   7.865  1.3481 -2.7059  0.0780
   30CHL1  H18B 2175   2.562   6.606   7.997  0.1671 -0.4183 -1.2581
   30CHL1  H18C 2176   2.639   6.771   8.018  0.6840  0.3820 -0.5726
   30CHL1   C12 2177   2.881   6.674   7.879 -0.5152 -0.4891 -0.1678
   30CHL1  H12A 2178   2.887   6.782   7.908  1.1462 -0.9334  1.3783
   30CHL1  H12B 2179   2.985   6.638   7.895  1.2516  3.2433 -1.9232
   30CHL1   C11 2180   2.837   6.670   7.730  0.3869 -0.4643  0.0268
   30CHL1  H11A 2181   2.748   6.735   7.714  2.0632  1.7044 -0.8848
   30CHL1  H11B 2182   2.923   6.712   7.673  2.2652 -2.2058  1.4312
   30CHL1    C9 2183   2.820   6.529   7.687 -0.6918 -0.2955  0.0479
   30CHL1    H9 2184   2.920   6.482   7.697 -1.6139 -2.1560  1.0410
   30CHL1   C10 2185   2.776   6.512   7.535  0.6451  0.0844  0.6915
   30CHL1   C19 2186   2.662   6.615   7.501 -0.2864 -0.6708  0.1574
   30CHL1  H19A 2187   2.567   6.604   7.557 -2.5059  2.3254 -2.6705
   30CHL1  H19B 2188   2.700   6.718   7.513 -0.8567 -0.6701  2.4302
   30CHL1  H19C 2189   2.632   6.606   7.394  2.0135 -0.6886 -0.5457
   30CHL1    C1 2190   2.897   6.536   7.444  0.1012 -0.6794  0.5740
   30CHL1   H1A 2191   2.925   6.643   7.449  1.4536 -0.9662 -0.4277
   30CHL1   H1B 2192   2.978   6.475   7.488  0.6755 -0.7879 -0.5834
   30CHL1    C2 2193   2.889   6.501   7.299 -0.3173 -0.4121  0.4123
   30CHL1   H2A 2194   2.980   6.498   7.236 -1.6922 -1.2108 -1.6369
   30CHL1   H2B 2195   2.808   6.551   7.242 -1.6078 -3.2468 -0.4134
   30CHL1   C20 2196   2.834   6.695   8.214 -0.2252  0.2972 -0.1796
   30CHL1   H20 2197   2.771   6.781   8.181 -0.7136 -0.3625 -0.9967
   30CHL1   C21 2198   2.979   6.748   8.206  0.5113  0.0759  0.4955
   30CHL1  H21A 2199   2.957   6.857   8.211 -0.9003 -0.0490 -1.8094
   30CHL1  H21B 2200   3.018   6.728   8.104 -0.5367  0.0569  0.0968
   30CHL1  H21C 2201   3.050   6.714   8.285 -0.8800 -2.8766  0.5823
   30CHL1   C22 2202   2.798   6.654   8.359 -0.2718  0.2369 -0.3590
   30CHL1  H22A 2203   2.697   6.607   8.360  0.1536 -0.6955 -0.5684
   30CHL1  H22B 2204   2.867   6.575   8.396 -1.8173 -1.3898 -0.8234
   30CHL1   C23 2205   2.802   6.764   8.460  0.2705  0.0815 -0.1635
   30CHL1  H23A 2206   2.908   6.787   8.485  0.1720 -2.7811  3.8857
   30CHL1  H23B 2207   2.756   6.857   8.419 -1.2251 -0.5622 -0.0197
   30CHL1   C24 2208   2.730   6.731   8.596  0.7207 -0.1963  1.0386
   30CHL1  H24A 2209   2.633   6.678   8.590  0.0384  1.1775 -1.0212
   30CHL1  H24B 2210   2.806   6.664   8.644  1.5646  0.3851  0.5442
   30CHL1   C25 2211   2.691   6.848   8.683  0.0376  0.2224 -0.2317
   30CHL1   H25 2212   2.648   6.932   8.624  1.4220 -0.2389 -1.9876
   30CHL1   C26 2213   2.600   6.810   8.801  0.7443 -0.6872 -0.2813
   30CHL1  H26A 2214   2.505   6.760   8.771 -0.6018  1.3288  0.3828
   30CHL1  H26B 2215   2.651   6.747   8.877 -0.3517 -0.3976  0.7416
   30CHL1  H26C 2216   2.563   6.903   8.849 -0.2490 -0.7246 -0.9522
   30CHL1   C27 2217   2.813   6.920   8.747 -0.1050  0.7977  0.1575
   30CHL1  H27A 2218   2.901   6.942   8.684  1.9888 -0.1799  2.5535
   30CHL1  H27B 2219   2.784   7.012   8.803 -2.5274  1.3311 -1.7998
   30CHL1  H27C 2220   2.865   6.851   8.816 -0.1905 -0.2077 -0.7728
   31CHL1    C3 2221   0.220   4.584   6.957  0.1056  0.3051  0.3806
   31CHL1    H3 2222   0.207   4.479   6.988  0.1243  0.0897 -0.3180
   31CHL1    O3 2223   0.180   4.586   6.822 -0.4752 -0.4940 -0.3195
   31CHL1   H3' 2224   0.141   4.668   6.792 -0.0593 -0.8224 -1.8989
   31CHL1    C4 2225   0.139   4.688   7.039  0.1308 -0.0223 -0.1635
   31CHL1   H4A 2226   0.169   4.783   6.989 -0.6759 -0.3215 -1.2550
   31CHL1   H4B 2227   0.030   4.686   7.016 -0.8882  5.3786  2.4999
   31CHL1    C5 2228   0.178   4.675   7.186 -0.3554  0.3725  0.2896
   31CHL1    C6 2229   0.102   4.639   7.281  0.5398  0.1597 -0.0672
   31CHL1    H6 2230  -0.004   4.633   7.252 -0.3393  4.3148  1.5279
   31CHL1    C7 2231   0.129   4.634   7.431 -0.2840  0.1589  0.0929
   31CHL1   H7A 2232   0.052   4.676   7.499  0.3351 -0.8385  1.4414
   31CHL1   H7B 2233   0.149   4.528   7.454 -1.7399  0.2228  1.8551
   31CHL1    C8 2234   0.254   4.717   7.461  0.2465 -0.0046 -0.3577
   31CHL1    H8 2235   0.219   4.823   7.452 -1.8658 -0.4987  1.2710
   31CHL1   C14 2236   0.306   4.701   7.608  0.4136 -0.0524 -0.0864
   31CHL1   H14 2237   0.344   4.596   7.614 -0.4426 -0.6044 -2.9817
   31CHL1   C15 2238   0.202   4.705   7.724 -0.1294  0.3498 -0.7157
   31CHL1  H15A 2239   0.131   4.788   7.706 -3.1294 -2.0225 -0.7482
   31CHL1  H15B 2240   0.126   4.625   7.737  0.2962  0.2288  1.2947
   31CHL1   C16 2241   0.278   4.742   7.847 -0.2884  0.0769 -0.2025
   31CHL1  H16A 2242   0.241   4.835   7.895  0.4387  0.4967 -0.4287
   31CHL1  H16B 2243   0.258   4.658   7.917 -1.3659  1.3046  1.0210
   31CHL1   C17 2244   0.426   4.771   7.807  0.8762  0.2022 -0.5607
   31CHL1   H17 2245   0.484   4.678   7.817  0.9716  0.1187 -1.7732
   31CHL1   C13 2246   0.411   4.797   7.652  0.0142 -1.0175  0.0506
   31CHL1   C18 2247   0.355   4.942   7.623 -0.0596  0.7820 -0.1767
   31CHL1  H18A 2248   0.433   5.018   7.644 -0.1758  0.5155  1.2736
   31CHL1  H18B 2249   0.344   4.960   7.514 -1.3748 -0.2348 -0.2251
   31CHL1  H18C 2250   0.259   4.964   7.675 -1.0712 -1.2084 -1.0910
   31CHL1   C12 2251   0.530   4.759   7.563 -0.3892  0.0925 -0.2798
   31CHL1  H12A 2252   0.616   4.827   7.582 -0.9029  0.7125 -0.1416
   31CHL1  H12B 2253   0.571   4.659   7.591  1.3614  1.1855  1.2496
   31CHL1   C11 2254   0.496   4.763   7.415  0.5342  0.2432 -0.2470
   31CHL1  H11A 2255   0.481   4.871   7.391  0.1148  0.1988 -0.2040
   31CHL1  H11B 2256   0.589   4.726   7.368  1.3315  1.3859  0.3799
   31CHL1    C9 2257   0.370   4.685   7.372 -0.0493  0.2138  0.0309
   31CHL1    H9 2258   0.384   4.574   7.376  0.0901  0.1853 -0.9371
   31CHL1   C10 2259   0.325   4.712   7.218 -0.2064  0.1715  0.8174
   31CHL1   C19 2260   0.351   4.858   7.172  0.3552 -0.1693 -0.3366
   31CHL1  H19A 2261   0.278   4.922   7.226 -0.6907 -0.5628 -1.2678
   31CHL1  H19B 2262   0.453   4.897   7.197  1.1102 -2.8663  1.2537
   31CHL1  H19C 2263   0.336   4.881   7.065  1.5610 -1.5762 -0.8317
   31CHL1    C1 2264   0.413   4.624   7.120  0.4272  0.0196 -0.2292
   31CHL1   H1A 2265   0.519   4.657   7.132  1.3652 -2.1369 -1.9590
   31CHL1   H1B 2266   0.402   4.525   7.168  0.8594  0.8397  1.6643
   31CHL1    C2 2267   0.364   4.620   6.968  0.0789 -0.6554 -0.1739
   31CHL1   H2A 2268   0.413   4.532   6.922 -1.4969 -0.6059 -2.0498
   31CHL1   H2B 2269   0.389   4.709   6.906  0.6656 -1.1534 -0.6682
   31CHL1   C20 2270   0.496   4.879   7.890 -0.1131  0.5526 -0.5627
   31CHL1   H20 2271   0.443   4.976   7.879  2.0170  1.6412 -2.0076
   31CHL1   C21 2272   0.637   4.910   7.841  0.2497 -0.1229 -0.0747
   31CHL1  H21A 2273   0.699   4.818   7.848  1.2873  0.4938 -0.7977
   31CHL1  H21B 2274   0.687   4.982   7.910  0.5650 -0.5688  0.1691
   31CHL1  H21C 2275   0.650   4.948   7.738  3.8528 -0.5754  0.0904
   31CHL1   C22 2276   0.491   4.860   8.046  0.1729 -0.5014  0.6995
   31CHL1  H22A 2277   0.529   4.953   8.092  1.7838 -0.0525 -1.3498
   31CHL1  H22B 2278   0.386   4.846   8.079  0.5692 -2.2882  1.3297
   31CHL1   C23 2279   0.570   4.730   8.086 -0.2237  0.3471  0.1534
   31CHL1  H23A 2280   0.529   4.640   8.035 -0.2334  0.6047 -0.3009
   31CHL1  H23B 2281   0.680   4.728   8.070 -0.0486  1.6054  1.0131
   31CHL1   C24 2282   0.559   4.714   8.236  0.4350 -0.2419 -0.3884
   31CHL1  H24A 2283   0.621   4.631   8.276 -0.2587 -0.5257  0.1333
   31CHL1  H24B 2284   0.607   4.795   8.295  1.6332 -0.3717 -1.1611
   31CHL1   C25 2285   0.422   4.684   8.301  0.0349  0.1826  0.2710
   31CHL1   H25 2286   0.353   4.766   8.273  1.0500  0.7537 -0.5873
   31CHL1   C26 2287   0.365   4.547   8.257  0.7772 -0.2643 -0.5538
   31CHL1  H26A 2288   0.309   4.502   8.342 -1.9439 -0.1209 -2.1499
   31CHL1  H26B 2289   0.310   4.558   8.161  0.3366 -1.8588 -0.5074
   31CHL1  H26C 2290   0.448   4.474   8.251  0.4091 -1.0918  2.6065
   31CHL1   C27 2291   0.436   4.678   8.455 -0.4004 -0.3648  0.1561
   31CHL1  H27A 2292   0.346   4.698   8.516  1.2542  1.9065  2.0531
   31CHL1  H27B 2293   0.505   4.759   8.489  1.4727 -1.2767 -1.2582
   31CHL1  H27C 2294   0.473   4.579   8.489 -0.8209 -1.1303 -1.4957
   32CHL1    C3 2295   0.736   4.948   6.851 -0.0641  0.9157  0.3380
   32CHL1    H3 2296   0.639   4.917   6.895  0.8343 -2.2655  0.3089
   32CHL1    O3 2297   0.714   4.958   6.712 -0.1566  0.5868  0.3889
   32CHL1   H3' 2298   0.702   4.868   6.680 -1.0843  0.7460  0.2694
   32CHL1    C4 2299   0.773   5.086   6.912  0.1037  0.7802  0.9163
   32CHL1   H4A 2300   0.860   5.131   6.859 -1.1791  1.2104 -0.9381
   32CHL1   H4B 2301   0.686   5.150   6.886  0.5565  0.7659 -0.8152
   32CHL1    C5 2302   0.808   5.061   7.054 -0.0194 -0.9402 -0.1614
   32CHL1    C6 2303   0.762   5.156   7.140  0.0780 -0.9969 -0.1509
   32CHL1    H6 2304   0.698   5.241   7.111  0.6448 -0.7260 -0.6400
   32CHL1    C7 2305   0.791   5.153   7.281  0.4536 -0.9252  0.5822
   32CHL1   H7A 2306   0.827   5.254   7.313 -0.1331 -0.3149 -0.6336
   32CHL1   H7B 2307   0.698   5.136   7.339  0.6527  2.1758  2.0581
   32CHL1    C8 2308   0.909   5.064   7.328 -0.2754  0.0920 -0.2671
   32CHL1    H8 2309   0.998   5.128   7.309  0.0015  1.1047  3.5684
   32CHL1   C14 2310   0.897   5.024   7.477 -0.4544  0.0087 -0.4840
   32CHL1   H14 2311   0.811   4.954   7.485  0.8289 -1.4461  2.2381
   32CHL1   C15 2312   0.851   5.129   7.575 -0.3157 -0.0409 -0.0833
   32CHL1  H15A 2313   0.896   5.227   7.547 -0.1377 -0.7326 -2.4015
   32CHL1  H15B 2314   0.743   5.155   7.580 -0.0649  0.8072  1.8297
   32CHL1   C16 2315   0.916   5.076   7.709 -0.1554 -1.0085  0.0804
   32CHL1  H16A 2316   0.992   5.154   7.733 -1.0661  0.2280 -0.8772
   32CHL1  H16B 2317   0.843   5.065   7.792  2.4253 -3.2836  2.2468
   32CHL1   C17 2318   0.981   4.940   7.685  0.5485 -0.2943  0.0587
   32CHL1   H17 2319   0.903   4.862   7.697  1.6175 -1.6709 -1.5009
   32CHL1   C13 2320   1.016   4.948   7.535 -0.4913  0.5153 -0.2601
   32CHL1   C18 2321   1.146   5.023   7.521  0.0369  0.7164  0.1838
   32CHL1  H18A 2322   1.152   5.128   7.556  1.7296 -0.3310  3.3996
   32CHL1  H18B 2323   1.233   4.967   7.563 -0.9939 -1.2453 -0.1509
   32CHL1  H18C 2324   1.175   5.031   7.414  0.4199 -2.4822 -0.0521
   32CHL1   C12 2325   1.024   4.813   7.460  0.3418 -0.6971  0.2504
   32CHL1  H12A 2326   1.115   4.758   7.491  0.2220 -0.2919  1.3687
   32CHL1  H12B 2327   0.933   4.758   7.492 -0.5623  0.8723  0.4776
   32CHL1   C11 2328   1.018   4.839   7.305 -0.8405  0.0899 -0.1695
   32CHL1  H11A 2329   1.120   4.873   7.276 -1.1821  0.3977 -1.0231
   32CHL1  H11B 2330   1.006   4.735   7.268  0.8581  0.4929 -1.9904
   32CHL1    C9 2331   0.911   4.939   7.247  0.0677  0.6244  0.2849
   32CHL1    H9 2332   0.811   4.902   7.277  0.4491 -2.2138 -1.5771
   32CHL1   C10 2333   0.914   4.949   7.095  0.4293 -0.1284 -0.1872
   32CHL1   C19 2334   1.049   5.007   7.043  0.1081 -0.1887  0.1129
   32CHL1  H19A 2335   1.133   4.949   7.086  0.1342  0.8072  1.4465
   32CHL1  H19B 2336   1.059   5.013   6.932  2.3531  0.8710  0.3318
   32CHL1  H19C 2337   1.065   5.105   7.093  1.4189  0.3135 -1.2192
   32CHL1    C1 2338   0.881   4.808   7.032  0.2434  0.0974  0.4908
   32CHL1   H1A 2339   0.973   4.747   7.041  0.0968 -0.0985  0.6698
   32CHL1   H1B 2340   0.795   4.758   7.081  0.0210 -0.0866 -0.0757
   32CHL1    C2 2341   0.841   4.837   6.880  0.2534  0.7983 -0.3091
   32CHL1   H2A 2342   0.810   4.740   6.837  1.1104 -0.5660  2.0041
   32CHL1   H2B 2343   0.930   4.863   6.820  1.6382 -0.5511  1.0951
   32CHL1   C20 2344   1.081   4.890   7.797 -0.2772 -0.1307 -0.3861
   32CHL1   H20 2345   1.145   4.805   7.766  0.8345 -0.0131  1.4708
   32CHL1   C21 2346   0.998   4.840   7.912  0.5970 -0.3820  0.5059
   32CHL1  H21A 2347   0.939   4.747   7.897  0.9902 -0.4136 -0.9580
   32CHL1  H21B 2348   0.930   4.922   7.946  0.4799  0.1150 -0.8652
   32CHL1  H21C 2349   1.057   4.823   8.004 -0.1886 -0.1846  1.0650
   32CHL1   C22 2350   1.189   4.999   7.840 -0.1755  0.6996 -0.1272
   32CHL1  H22A 2351   1.249   5.039   7.755 -2.6248 -0.9016 -2.8279
   32CHL1  H22B 2352   1.144   5.095   7.874  0.6567  0.4090  1.9204
   32CHL1   C23 2353   1.288   4.957   7.953 -0.1709 -0.2540 -0.1594
   32CHL1  H23A 2354   1.236   4.970   8.050 -1.2475 -0.7114 -0.6519
   32CHL1  H23B 2355   1.306   4.848   7.937  2.5274  0.4039 -2.4999
   32CHL1   C24 2356   1.411   5.044   7.980 -0.1199  0.3603 -0.0170
   32CHL1  H24A 2357   1.478   5.041   7.892 -1.8653  0.7333 -1.4195
   32CHL1  H24B 2358   1.391   5.152   7.997  2.4244  0.8329  0.4116
   32CHL1   C25 2359   1.472   4.985   8.107 -0.0163  0.9718 -0.6044
   32CHL1   H25 2360   1.389   4.969   8.180 -0.8629  1.2540 -1.4843
   32CHL1   C26 2361   1.537   4.842   8.096 -0.0145 -0.1758 -0.3539
   32CHL1  H26A 2362   1.580   4.814   8.194  0.2905  0.1329 -0.3974
   32CHL1  H26B 2363   1.453   4.771   8.093 -0.5389  0.3489  1.0365
   32CHL1  H26C 2364   1.607   4.835   8.010 -2.2728  0.3611 -2.3343
   32CHL1   C27 2365   1.564   5.088   8.178 -0.1422 -0.1584 -0.2097
   32CHL1  H27A 2366   1.525   5.192   8.191  2.1437  0.6663  0.4309
   32CHL1  H27B 2367   1.585   5.042   8.277 -1.5858  0.1767  0.2809
   32CHL1  H27C 2368   1.662   5.091   8.126  0.2665  1.0293  0.5778
   33CHL1    C3 2369   2.070   4.075   7.022 -0.0230  0.4004 -0.7093
   33CHL1    H3 2370   1.987   4.008   7.052  2.0186 -2.2418 -0.6510
   33CHL1    O3 2371   2.074   4.080   6.884 -0.1672  0.3568  0.6822
   33CHL1   H3' 2372   2.054   4.172   6.865  4.4797  1.8598  1.6574
   33CHL1    C4 2373   2.058   4.216   7.072  0.7510  0.3573 -0.3375
   33CHL1   H4A 2374   2.133   4.273   7.014  0.3628 -0.7622 -2.0060
   33CHL1   H4B 2375   1.958   4.251   7.039  0.9432 -0.5737 -2.0282
   33CHL1    C5 2376   2.077   4.236   7.219 -0.1123  0.5199  0.5220
   33CHL1    C6 2377   1.988   4.307   7.290  0.2766  0.8376  0.2422
   33CHL1    H6 2378   1.910   4.361   7.236  0.7954  2.3978  0.9743
   33CHL1    C7 2379   1.993   4.328   7.444 -0.2876 -0.0923 -0.0746
   33CHL1   H7A 2380   1.976   4.432   7.481  0.5834 -0.5593  1.7326
   33CHL1   H7B 2381   1.908   4.275   7.491 -1.0624  1.4620  0.3641
   33CHL1    C8 2382   2.130   4.273   7.507 -0.3377 -0.0787  0.2178
   33CHL1    H8 2383   2.203   4.356   7.493 -0.9957  0.3859 -0.5092
   33CHL1   C14 2384   2.114   4.248   7.657 -0.0764  0.1763 -0.5590
   33CHL1   H14 2385   2.040   4.168   7.676 -0.5700  0.6629 -0.4127
   33CHL1   C15 2386   2.064   4.363   7.737 -0.0166 -0.2916  0.1388
   33CHL1  H15A 2387   2.112   4.452   7.692  0.1877  0.0555  1.0341
   33CHL1  H15B 2388   1.954   4.382   7.737  0.0506  0.0893  0.1189
   33CHL1   C16 2389   2.107   4.328   7.885 -0.5338  0.3524 -0.6026
   33CHL1  H16A 2390   2.166   4.402   7.944  0.7489 -0.5181 -0.7485
   33CHL1  H16B 2391   2.018   4.286   7.937 -0.5326 -0.6606 -1.3803
   33CHL1   C17 2392   2.206   4.207   7.872 -0.6475  0.4930 -0.0550
   33CHL1   H17 2393   2.143   4.115   7.876 -0.3625  0.3427  1.0248
   33CHL1   C13 2394   2.250   4.200   7.722 -0.0275 -1.0570 -0.0337
   33CHL1   C18 2395   2.367   4.302   7.700 -0.0147 -0.7317  0.9464
   33CHL1  H18A 2396   2.349   4.393   7.761 -0.3495 -2.7258  4.0541
   33CHL1  H18B 2397   2.462   4.255   7.734 -0.2618 -0.9186  1.3886
   33CHL1  H18C 2398   2.377   4.328   7.592 -1.5832  2.4665  1.4769
   33CHL1   C12 2399   2.272   4.059   7.664 -0.0446  0.3568  0.1915
   33CHL1  H12A 2400   2.369   4.016   7.699  0.0776  1.0046  0.6576
   33CHL1  H12B 2401   2.191   3.988   7.692 -0.3025  1.4294  2.3225
   33CHL1   C11 2402   2.285   4.066   7.511  0.6814 -0.1065 -0.1051
   33CHL1  H11A 2403   2.374   4.127   7.484 -0.4003  1.3906 -0.4283
   33CHL1  H11B 2404   2.289   3.967   7.461 -0.1614 -0.9563  1.4312
   33CHL1    C9 2405   2.172   4.141   7.435 -0.0217  0.1323 -0.0909
   33CHL1    H9 2406   2.079   4.084   7.454 -0.5266  1.1810  0.7729
   33CHL1   C10 2407   2.193   4.159   7.286  0.8385  0.9443  0.6090
   33CHL1   C19 2408   2.322   4.243   7.261  0.1198 -0.1130 -0.4536
   33CHL1  H19A 2409   2.415   4.191   7.291 -0.1647 -1.3001 -1.5623
   33CHL1  H19B 2410   2.323   4.255   7.151  0.6273 -0.7445 -0.5248
   33CHL1  H19C 2411   2.316   4.343   7.310  0.8867 -0.6202  0.7205
   33CHL1    C1 2412   2.205   4.018   7.225  0.5096  0.2957  0.3765
   33CHL1   H1A 2413   2.308   3.983   7.248  1.3114  0.2031 -2.8038
   33CHL1   H1B 2414   2.128   3.954   7.274 -0.3293  0.5047 -0.6393
   33CHL1    C2 2415   2.190   4.006   7.071  0.7227 -0.8836  0.1425
   33CHL1   H2A 2416   2.202   3.901   7.038  1.9220 -0.8288  0.3611
   33CHL1   H2B 2417   2.277   4.068   7.040  3.9515 -4.2492  1.7105
   33CHL1   C20 2418   2.319   4.199   7.973 -0.6976  0.0514  0.1596
   33CHL1   H20 2419   2.392   4.280   7.953 -1.4142  0.6687 -0.0147
   33CHL1   C21 2420   2.379   4.059   7.971 -0.3296  0.6823 -0.3491
   33CHL1  H21A 2421   2.297   3.986   7.955  1.2288 -0.8088 -1.8837
   33CHL1  H21B 2422   2.421   4.038   8.072  0.2151  2.1977 -0.2379
   33CHL1  H21C 2423   2.457   4.036   7.896  0.0619 -0.9380  0.5090
   33CHL1   C22 2424   2.263   4.237   8.115 -0.1102 -0.7070  0.2569
   33CHL1  H22A 2425   2.211   4.335   8.130 -0.1034 -0.4744 -1.0801
   33CHL1  H22B 2426   2.179   4.169   8.144 -0.7077  0.4793  1.4641
   33CHL1   C23 2427   2.372   4.240   8.227 -0.5981 -0.0732  0.7203
   33CHL1  H23A 2428   2.410   4.138   8.249 -0.5123  0.3118  2.4810
   33CHL1  H23B 2429   2.455   4.309   8.204 -2.1807  0.7684 -3.4972
   33CHL1   C24 2430   2.318   4.290   8.361 -0.0402 -0.1196  0.9398
   33CHL1  H24A 2431   2.388   4.349   8.424 -1.5869 -1.3759  3.9903
   33CHL1  H24B 2432   2.246   4.374   8.353  0.2491  0.0949  0.5240
   33CHL1   C25 2433   2.253   4.191   8.457 -0.0401  0.6722  0.2790
   33CHL1   H25 2434   2.164   4.146   8.408 -0.9926  3.3581 -0.6887
   33CHL1   C26 2435   2.354   4.092   8.514  0.1332  0.1793  0.6798
   33CHL1  H26A 2436   2.425   4.142   8.582  2.3134 -1.2835 -0.4175
   33CHL1  H26B 2437   2.310   4.002   8.563 -1.1746  0.2375 -0.3384
   33CHL1  H26C 2438   2.411   4.056   8.426 -1.5122  0.4597 -0.5653
   33CHL1   C27 2439   2.203   4.262   8.588 -0.1337  0.2897  0.0930
   33CHL1  H27A 2440   2.118   4.331   8.567 -1.1173 -0.1121  2.4098
   33CHL1  H27B 2441   2.167   4.179   8.652 -0.2919  0.1829 -0.1308
   33CHL1  H27C 2442   2.283   4.320   8.638 -0.3952 -0.4900  1.4581
   34CHL1    C3 2443   3.251   6.052   7.034  0.4747  0.6017 -0.3983
   34CHL1    H3 2444   3.250   5.942   7.047 -2.1667  0.3937 -1.7913
   34CHL1    O3 2445   3.260   6.089   6.899  0.3910  0.8215  0.3212
   34CHL1   H3' 2446   3.257   6.185   6.901  0.8926  0.8336  0.6629
   34CHL1    C4 2447   3.113   6.105   7.091  0.3460 -0.2477  0.2941
   34CHL1   H4A 2448   3.112   6.211   7.056  1.1146 -0.6173 -0.9054
   34CHL1   H4B 2449   3.031   6.056   7.034  2.3677 -1.1840 -1.9627
   34CHL1    C5 2450   3.115   6.088   7.246 -0.0361 -0.5867 -0.0750
   34CHL1    C6 2451   3.009   6.032   7.312  0.2150 -0.0421 -0.0277
   34CHL1    H6 2452   2.926   5.985   7.256  2.0568 -2.3196 -1.0119
   34CHL1    C7 2453   2.991   6.005   7.462 -0.3606  0.0523  0.2694
   34CHL1   H7A 2454   2.885   6.015   7.495 -0.3351 -0.4011  0.4966
   34CHL1   H7B 2455   3.017   5.898   7.474  1.7719  0.2296 -2.0055
   34CHL1    C8 2456   3.098   6.091   7.540  0.3472  0.0994 -0.0825
   34CHL1    H8 2457   3.051   6.191   7.533  0.9411  0.2688 -2.7640
   34CHL1   C14 2458   3.111   6.047   7.689  0.5012  0.3884  0.2960
   34CHL1   H14 2459   3.164   5.950   7.688  0.1221  0.1856 -0.5268
   34CHL1   C15 2460   2.986   6.023   7.768  0.2459 -0.4669  0.1329
   34CHL1  H15A 2461   2.910   6.097   7.736 -0.5100 -0.7944  1.1232
   34CHL1  H15B 2462   2.943   5.922   7.751  0.7762 -0.6778  0.0094
   34CHL1   C16 2463   3.025   6.061   7.911 -0.5715 -0.1489 -0.1049
   34CHL1  H16A 2464   2.961   6.144   7.948 -1.0744  0.4084 -2.1328
   34CHL1  H16B 2465   3.005   5.977   7.981 -0.3162  0.6334  0.9334
   34CHL1   C17 2466   3.182   6.095   7.910  0.5844 -0.3579  1.0851
   34CHL1   H17 2467   3.226   5.994   7.920  2.3412  0.1330 -1.0389
   34CHL1   C13 2468   3.203   6.145   7.768  0.5104  0.3167 -0.1557
   34CHL1   C18 2469   3.158   6.285   7.751 -0.0806 -0.5286 -0.1895
   34CHL1  H18A 2470   3.226   6.358   7.800  0.6475 -2.3487  1.6449
   34CHL1  H18B 2471   3.141   6.327   7.649  0.2139  1.7602  0.6441
   34CHL1  H18C 2472   3.062   6.287   7.808  1.0080 -1.9961  1.8186
   34CHL1   C12 2473   3.338   6.113   7.710  0.5188  0.2264 -0.0757
   34CHL1  H12A 2474   3.425   6.158   7.761  0.1097 -0.0439  0.8939
   34CHL1  H12B 2475   3.359   6.005   7.725 -1.1633  0.1799  2.6508
   34CHL1   C11 2476   3.344   6.160   7.561  0.3802  0.1563  0.2758
   34CHL1  H11A 2477   3.341   6.271   7.559  1.2327  0.1806 -0.0389
   34CHL1  H11B 2478   3.443   6.132   7.520  1.0468 -1.5430  2.8451
   34CHL1    C9 2479   3.238   6.090   7.473  0.0290  0.1696  0.7649
   34CHL1    H9 2480   3.275   5.985   7.474 -1.6352 -0.6091 -2.9791
   34CHL1   C10 2481   3.237   6.137   7.324 -0.3781 -0.1958  0.3776
   34CHL1   C19 2482   3.233   6.292   7.321 -0.0251  0.3300  0.2081
   34CHL1  H19A 2483   3.188   6.321   7.224 -1.9654 -1.5044  0.4814
   34CHL1  H19B 2484   3.164   6.322   7.403 -1.9786  2.3227 -2.0250
   34CHL1  H19C 2485   3.329   6.345   7.339  0.2525  0.2129 -0.8560
   34CHL1    C1 2486   3.365   6.084   7.257 -0.4590 -0.2237  0.1612
   34CHL1   H1A 2487   3.449   6.143   7.298  0.5192 -0.7942 -0.9681
   34CHL1   H1B 2488   3.383   5.976   7.273 -0.7404 -0.4982 -1.2327
   34CHL1    C2 2489   3.369   6.108   7.103  0.1461 -0.0528 -0.0106
   34CHL1   H2A 2490   3.460   6.070   7.052 -0.4603  1.0884 -2.0317
   34CHL1   H2B 2491   3.367   6.217   7.085  0.8148 -0.2746 -1.4941
   34CHL1   C20 2492   3.223   6.174   8.035 -0.4835  0.3529 -0.1931
   34CHL1   H20 2493   3.165   6.268   8.028  1.1373  1.2651 -2.6561
   34CHL1   C21 2494   3.374   6.215   8.024 -1.0298 -0.3631  0.3127
   34CHL1  H21A 2495   3.410   6.260   8.119  0.0570  2.0586 -1.1501
   34CHL1  H21B 2496   3.380   6.288   7.941 -1.0344  0.7048  1.2289
   34CHL1  H21C 2497   3.443   6.135   7.991  0.4621  1.6724 -1.8062
   34CHL1   C22 2498   3.198   6.102   8.172  0.1703 -0.6126 -0.1849
   34CHL1  H22A 2499   3.212   6.176   8.253 -2.4302 -1.0598  0.7639
   34CHL1  H22B 2500   3.091   6.081   8.194  0.3892  0.7173  2.6171
   34CHL1   C23 2501   3.279   5.971   8.202  1.0246  0.4401 -0.0174
   34CHL1  H23A 2502   3.252   5.905   8.117 -3.9233  3.4658 -1.2582
   34CHL1  H23B 2503   3.387   5.994   8.186  0.9339  1.3542  0.6139
   34CHL1   C24 2504   3.251   5.899   8.339  0.2742 -0.5829  0.2887
   34CHL1  H24A 2505   3.320   5.812   8.339  0.6272 -0.4209 -3.1955
   34CHL1  H24B 2506   3.264   5.978   8.416  1.0283 -0.4201 -0.0059
   34CHL1   C25 2507   3.113   5.854   8.371  0.6509 -0.0033  0.0336
   34CHL1   H25 2508   3.053   5.945   8.395  0.4503 -0.5855  1.9172
   34CHL1   C26 2509   3.031   5.780   8.261  0.1371 -0.3530 -0.0997
   34CHL1  H26A 2510   3.027   5.841   8.168 -2.1892 -0.6760 -0.2672
   34CHL1  H26B 2511   3.076   5.682   8.236 -1.1797 -0.2508 -3.3423
   34CHL1  H26C 2512   2.926   5.774   8.298 -0.4817  1.5874 -1.3768
   34CHL1   C27 2513   3.120   5.777   8.501 -0.5822 -0.5297 -0.3686
   34CHL1  H27A 2514   3.166   5.679   8.476 -0.4487 -0.6047  0.1569
   34CHL1  H27B 2515   3.167   5.838   8.581 -1.2896  0.7242 -0.8793
   34CHL1  H27C 2516   3.018   5.749   8.536 -0.5651 -0.1295  0.0077
   35CHL1    C3 2517   6.691   3.012   7.078 -0.0084  0.2228  0.5385
   35CHL1    H3 2518   6.774   2.942   7.102  0.5022 -0.1537 -2.0149
   35CHL1    O3 2519   6.640   2.998   6.949 -0.0660 -0.1480  0.2947
   35CHL1   H3' 2520   6.632   3.088   6.918  3.9324 -0.3634 -2.0232
   35CHL1    C4 2521   6.572   2.988   7.175 -0.1741  0.8958  0.5100
   35CHL1   H4A 2522   6.482   3.049   7.150 -2.3008 -2.1527  0.1154
   35CHL1   H4B 2523   6.557   2.878   7.179  0.5311  0.8090  0.7758
   35CHL1    C5 2524   6.599   3.026   7.317 -0.0614  0.1710 -0.1350
   35CHL1    C6 2525   6.577   2.944   7.420 -0.0747 -0.5413 -0.5265
   35CHL1    H6 2526   6.520   2.853   7.394 -2.5307  0.3101  1.5071
   35CHL1    C7 2527   6.608   2.964   7.566  0.0142  0.0717 -0.2671
   35CHL1   H7A 2528   6.520   2.929   7.623 -0.4386 -0.9894 -1.5584
   35CHL1   H7B 2529   6.702   2.915   7.601  0.4449  0.0864 -1.3471
   35CHL1    C8 2530   6.638   3.116   7.587 -0.2055 -0.4181 -0.0580
   35CHL1    H8 2531   6.538   3.163   7.573  0.1163 -0.3418 -2.6126
   35CHL1   C14 2532   6.684   3.128   7.727 -0.2304 -0.9231  0.0102
   35CHL1   H14 2533   6.782   3.078   7.738  0.6152  0.7438  0.4030
   35CHL1   C15 2534   6.592   3.073   7.847  0.2728 -0.6267 -0.1636
   35CHL1  H15A 2535   6.487   3.106   7.832  1.4749  2.3678 -3.7539
   35CHL1  H15B 2536   6.610   2.964   7.856 -0.0891 -0.8380 -1.7246
   35CHL1   C16 2537   6.648   3.147   7.967 -0.4295  0.7679 -0.1151
   35CHL1  H16A 2538   6.567   3.204   8.018 -0.7672  1.2235 -1.1326
   35CHL1  H16B 2539   6.705   3.088   8.041 -0.9301  1.2195  0.6546
   35CHL1   C17 2540   6.748   3.261   7.913 -0.1742  0.0156  0.0001
   35CHL1   H17 2541   6.853   3.227   7.906  0.4836  1.9203 -0.0263
   35CHL1   C13 2542   6.708   3.277   7.765 -0.0578 -0.6100  0.3213
   35CHL1   C18 2543   6.575   3.359   7.747  0.0901  0.3697 -0.0689
   35CHL1  H18A 2544   6.532   3.370   7.645  0.1584  0.9788 -0.0367
   35CHL1  H18B 2545   6.491   3.325   7.812  0.2978  3.6077  2.1298
   35CHL1  H18C 2546   6.603   3.461   7.779  0.7720  0.6786 -1.5633
   35CHL1   C12 2547   6.824   3.324   7.666  0.1616  0.1245  0.0542
   35CHL1  H12A 2548   6.838   3.433   7.682 -2.1465  0.3691  0.6780
   35CHL1  H12B 2549   6.915   3.264   7.689  1.3206  0.4978 -3.0487
   35CHL1   C11 2550   6.790   3.306   7.517 -0.5676  0.2896 -0.2498
   35CHL1  H11A 2551   6.714   3.382   7.486  0.0377 -0.1444 -3.0486
   35CHL1  H11B 2552   6.886   3.336   7.469  1.8996 -0.7439  3.6456
   35CHL1    C9 2553   6.736   3.167   7.481 -0.4469 -0.4251 -0.0715
   35CHL1    H9 2554   6.821   3.096   7.486  0.0221  0.1046 -0.4243
   35CHL1   C10 2555   6.670   3.164   7.333 -1.3168  0.8089  0.2744
   35CHL1   C19 2556   6.560   3.268   7.317  0.0958  0.0290 -0.3897
   35CHL1  H19A 2557   6.505   3.257   7.221  1.4023  0.7445 -1.2467
   35CHL1  H19B 2558   6.481   3.259   7.395 -1.1754  0.4099 -1.5894
   35CHL1  H19C 2559   6.602   3.370   7.304  2.8238 -0.7111  1.5867
   35CHL1    C1 2560   6.786   3.190   7.235  0.5486  0.4646 -0.1940
   35CHL1   H1A 2561   6.814   3.296   7.250  0.1668  0.8128 -1.7529
   35CHL1   H1B 2562   6.870   3.130   7.276 -0.4119  0.6754  2.2647
   35CHL1    C2 2563   6.749   3.156   7.087 -0.0800  0.8154  0.3304
   35CHL1   H2A 2564   6.840   3.156   7.023 -0.8449  2.2246 -0.8090
   35CHL1   H2B 2565   6.675   3.228   7.048  0.6846  0.4075 -1.9850
   35CHL1   C20 2566   6.759   3.380   8.015 -0.9668  0.4064 -0.3810
   35CHL1   H20 2567   6.667   3.442   8.022  0.0711  1.8180  2.1994
   35CHL1   C21 2568   6.866   3.482   7.968  0.4370 -0.0408  0.4368
   35CHL1  H21A 2569   6.869   3.568   8.038 -2.3628  0.3509  0.1665
   35CHL1  H21B 2570   6.837   3.512   7.865 -0.5837 -0.1604  0.6803
   35CHL1  H21C 2571   6.970   3.443   7.957 -0.4571 -2.5998  0.3640
   35CHL1   C22 2572   6.791   3.335   8.159  0.0649  0.1305  0.6937
   35CHL1  H22A 2573   6.715   3.264   8.198  0.1738  0.1689  0.9834
   35CHL1  H22B 2574   6.887   3.278   8.158 -1.0114 -1.7787 -0.9372
   35CHL1   C23 2575   6.779   3.453   8.262  0.1650  0.2875  0.5517
   35CHL1  H23A 2576   6.835   3.418   8.351 -1.9359 -1.2945  1.3417
   35CHL1  H23B 2577   6.830   3.543   8.221  0.9038 -0.4999 -0.2908
   35CHL1   C24 2578   6.634   3.491   8.274 -0.1758  0.3300  1.1436
   35CHL1  H24A 2579   6.600   3.544   8.182 -0.7405  1.3002  1.8785
   35CHL1  H24B 2580   6.578   3.395   8.276  0.1551  0.0326 -1.2498
   35CHL1   C25 2581   6.588   3.575   8.397  0.3659 -0.7128  0.2869
   35CHL1   H25 2582   6.654   3.663   8.414 -0.8310  0.0073  1.4715
   35CHL1   C26 2583   6.456   3.651   8.378 -0.6708  0.4907  0.3755
   35CHL1  H26A 2584   6.380   3.576   8.347  1.0695 -0.4737 -1.9199
   35CHL1  H26B 2585   6.427   3.715   8.464  0.3888  0.7873  0.5307
   35CHL1  H26C 2586   6.482   3.716   8.292  1.0673 -0.0237  0.4669
   35CHL1   C27 2587   6.595   3.495   8.527 -0.0372  0.0055 -0.3009
   35CHL1  H27A 2588   6.531   3.404   8.525 -0.9221  0.6228 -1.5761
   35CHL1  H27B 2589   6.553   3.563   8.604  0.0098 -1.1308  0.7713
   35CHL1  H27C 2590   6.695   3.456   8.556  0.4437  2.0278  0.9365
   36CHL1    C3 2591   0.282   3.421   7.055  0.3420 -0.0859 -0.0686
   36CHL1    H3 2592   0.180   3.424   7.099 -0.4968 -0.6760 -1.8917
   36CHL1    O3 2593   0.267   3.442   6.914 -0.0446  0.1530  0.5149
   36CHL1   H3' 2594   0.344   3.402   6.872  0.1621  0.3975  0.6594
   36CHL1    C4 2595   0.355   3.541   7.110  0.1368 -0.2734 -0.0932
   36CHL1   H4A 2596   0.453   3.549   7.059  0.5770 -2.2710  0.3661
   36CHL1   H4B 2597   0.300   3.632   7.076  0.6626 -0.4831 -1.5743
   36CHL1    C5 2598   0.375   3.537   7.259 -0.6027  0.3798 -0.3835
   36CHL1    C6 2599   0.333   3.635   7.341 -0.3645  0.5993 -0.0764
   36CHL1    H6 2600   0.277   3.721   7.301 -1.6414 -0.1376  0.0703
   36CHL1    C7 2601   0.347   3.628   7.493 -0.3803 -0.2016  0.0029
   36CHL1   H7A 2602   0.365   3.729   7.537 -2.5026  0.3630 -0.3007
   36CHL1   H7B 2603   0.245   3.608   7.533 -0.2111 -0.4734  0.3040
   36CHL1    C8 2604   0.447   3.522   7.541  0.4195  0.2173  0.2318
   36CHL1    H8 2605   0.547   3.568   7.525  0.9635 -0.9013  0.3604
   36CHL1   C14 2606   0.428   3.511   7.688 -0.4750 -0.0335 -0.3993
   36CHL1   H14 2607   0.322   3.487   7.711 -1.0160  1.1998 -1.5046
   36CHL1   C15 2608   0.453   3.639   7.776 -0.0354 -1.0144  0.6189
   36CHL1  H15A 2609   0.542   3.681   7.724 -0.5687 -0.3382  0.2361
   36CHL1  H15B 2610   0.369   3.712   7.778  0.7373 -0.0604 -0.6297
   36CHL1   C16 2611   0.476   3.577   7.917 -0.2800 -0.1746  0.4895
   36CHL1  H16A 2612   0.563   3.626   7.965  0.2936 -3.6120  3.3190
   36CHL1  H16B 2613   0.384   3.601   7.975 -1.8517 -1.2584 -1.4038
   36CHL1   C17 2614   0.484   3.423   7.898  0.5023  0.2185  0.7124
   36CHL1   H17 2615   0.380   3.385   7.904 -0.1881  1.8074 -0.6844
   36CHL1   C13 2616   0.516   3.402   7.753 -0.8641 -0.3541 -0.7977
   36CHL1   C18 2617   0.663   3.421   7.732  0.2941  0.6989  0.0414
   36CHL1  H18A 2618   0.715   3.330   7.768  0.0080  0.9072  1.0420
   36CHL1  H18B 2619   0.696   3.436   7.628 -1.2069 -0.0210 -0.5724
   36CHL1  H18C 2620   0.706   3.500   7.798 -2.2284  1.4518  0.9308
   36CHL1   C12 2621   0.468   3.271   7.696  0.4178  0.3634  0.4529
   36CHL1  H12A 2622   0.524   3.191   7.749 -0.3646 -0.2293  0.3994
   36CHL1  H12B 2623   0.361   3.262   7.723 -0.0197  3.2685  0.0277
   36CHL1   C11 2624   0.481   3.260   7.541  0.2094  0.1680  0.4229
   36CHL1  H11A 2625   0.590   3.253   7.523  0.2651  0.9114  0.4304
   36CHL1  H11B 2626   0.422   3.173   7.507 -1.1653  1.2757 -0.1283
   36CHL1    C9 2627   0.425   3.387   7.472 -0.1800  0.3048  0.4354
   36CHL1    H9 2628   0.315   3.377   7.481 -0.0338 -2.4856  0.0240
   36CHL1   C10 2629   0.439   3.401   7.316 -0.3172 -0.1363  0.0379
   36CHL1   C19 2630   0.590   3.403   7.286  0.5557  0.0152  0.6571
   36CHL1  H19A 2631   0.640   3.485   7.342  0.0272  1.4123 -0.8405
   36CHL1  H19B 2632   0.630   3.304   7.317 -1.5299 -0.8635  0.7387
   36CHL1  H19C 2633   0.610   3.413   7.178 -1.2295 -0.5419  0.2303
   36CHL1    C1 2634   0.365   3.278   7.247 -0.2916 -0.1666  0.9899
   36CHL1   H1A 2635   0.425   3.190   7.277 -0.5700 -0.2336  1.3618
   36CHL1   H1B 2636   0.262   3.272   7.289 -0.0595  0.0576  1.5982
   36CHL1    C2 2637   0.346   3.282   7.092 -0.7104 -0.3876  0.3786
   36CHL1   H2A 2638   0.282   3.201   7.050  0.7755 -1.4988  0.1780
   36CHL1   H2B 2639   0.440   3.277   7.033 -1.7232 -2.2633 -1.1840
   36CHL1   C20 2640   0.557   3.341   8.002 -0.0445 -0.0488  0.3835
   36CHL1   H20 2641   0.651   3.299   7.960 -0.1369  0.2213 -0.1045
   36CHL1   C21 2642   0.461   3.214   8.032 -0.6046 -0.5235 -0.2611
   36CHL1  H21A 2643   0.491   3.150   8.117  2.3102  0.9826 -0.0325
   36CHL1  H21B 2644   0.464   3.154   7.939 -1.1219 -1.3579  0.2543
   36CHL1  H21C 2645   0.357   3.247   8.050  0.0221  0.9288  0.9517
   36CHL1   C22 2646   0.572   3.419   8.135 -0.2800 -0.1073 -0.0072
   36CHL1  H22A 2647   0.628   3.514   8.120 -2.0334  0.9680 -0.0029
   36CHL1  H22B 2648   0.469   3.445   8.168 -0.2942 -0.3251  0.1210
   36CHL1   C23 2649   0.652   3.350   8.242  0.2347 -0.3225 -0.1780
   36CHL1  H23A 2650   0.614   3.251   8.276 -0.6167  0.7105  2.0959
   36CHL1  H23B 2651   0.751   3.323   8.200  0.9028 -0.9369  1.6926
   36CHL1   C24 2652   0.662   3.440   8.370 -0.1424  0.7771  0.1723
   36CHL1  H24A 2653   0.702   3.539   8.337  0.8399  0.5845  0.7280
   36CHL1  H24B 2654   0.560   3.458   8.407 -0.3155  0.2847 -0.0549
   36CHL1   C25 2655   0.765   3.385   8.463 -0.4737 -0.1988 -0.4324
   36CHL1   H25 2656   0.762   3.274   8.463 -1.4567 -0.1790 -1.2351
   36CHL1   C26 2657   0.911   3.435   8.433  0.0883  0.1380  0.1813
   36CHL1  H26A 2658   0.920   3.545   8.445  1.0239  0.2346 -1.1867
   36CHL1  H26B 2659   0.986   3.383   8.496  2.5633  2.1525 -0.9311
   36CHL1  H26C 2660   0.943   3.418   8.328  1.1389  1.4467  0.2628
   36CHL1   C27 2661   0.737   3.432   8.601  0.0446  1.1380 -0.1770
   36CHL1  H27A 2662   0.651   3.375   8.644  0.4680 -0.6982 -1.6279
   36CHL1  H27B 2663   0.822   3.399   8.664 -1.6022  0.2708  1.7011
   36CHL1  H27C 2664   0.724   3.542   8.602 -0.2358  1.1318 -1.5590
   37CHL1    C3 2665   4.961   1.143   6.797  0.0556 -0.1677 -1.2391
   37CHL1    H3 2666   4.953   1.254   6.796 -1.3617 -0.2551 -0.6440
   37CHL1    O3 2667   4.964   1.117   6.656  0.3371 -0.0099 -0.4838
   37CHL1   H3' 2668   4.920   1.033   6.639 -1.6996  0.6866  0.9465
   37CHL1    C4 2669   5.102   1.117   6.861  0.2386 -0.0533 -0.1187
   37CHL1   H4A 2670   5.119   1.010   6.837  0.3112 -0.1353  0.2915
   37CHL1   H4B 2671   5.182   1.173   6.808  0.6317 -0.7734 -0.2944
   37CHL1    C5 2672   5.097   1.135   7.015  0.0311 -0.0427 -0.2616
   37CHL1    C6 2673   5.185   1.218   7.072 -0.2897  0.3031  0.2666
   37CHL1    H6 2674   5.267   1.257   7.011  2.1820 -0.2365  3.0036
   37CHL1    C7 2675   5.193   1.252   7.213  0.5928  0.6606  0.2517
   37CHL1   H7A 2676   5.299   1.237   7.243  0.1928  0.4862  1.6480
   37CHL1   H7B 2677   5.158   1.354   7.237 -2.0981  0.1399 -1.0675
   37CHL1    C8 2678   5.111   1.149   7.294 -0.8876 -0.0608 -0.1352
   37CHL1    H8 2679   5.177   1.061   7.291 -0.2677  0.3739  0.4282
   37CHL1   C14 2680   5.090   1.197   7.439  0.3702 -0.5933 -0.1191
   37CHL1   H14 2681   5.035   1.294   7.438  3.6392  1.4149 -1.5397
   37CHL1   C15 2682   5.213   1.235   7.521 -0.1551  0.0715 -0.2948
   37CHL1  H15A 2683   5.285   1.152   7.507 -2.1287 -1.7835 -0.0233
   37CHL1  H15B 2684   5.269   1.327   7.495 -0.5206  0.1705 -0.7521
   37CHL1   C16 2685   5.163   1.239   7.664  0.3497 -0.5252  0.4866
   37CHL1  H16A 2686   5.229   1.176   7.728  1.2200 -0.4258 -0.2834
   37CHL1  H16B 2687   5.159   1.345   7.696  0.1614 -0.4491  0.2158
   37CHL1   C17 2688   5.019   1.179   7.660 -0.1533 -0.1143 -0.4021
   37CHL1   H17 2689   4.961   1.271   7.637 -0.3013  0.1701  1.0295
   37CHL1   C13 2690   5.011   1.099   7.524 -0.1760 -0.3225 -0.2485
   37CHL1   C18 2691   5.087   0.970   7.546 -0.0371  0.3486 -0.6952
   37CHL1  H18A 2692   5.127   0.929   7.451  0.8876 -0.3627 -0.0124
   37CHL1  H18B 2693   5.174   0.972   7.615 -1.6123 -1.4125  1.5004
   37CHL1  H18C 2694   5.023   0.888   7.587  1.3755 -0.5177 -0.1475
   37CHL1   C12 2695   4.869   1.077   7.463  0.2920  0.4651 -0.4484
   37CHL1  H12A 2696   4.812   1.001   7.520  0.4981  1.3490  0.9796
   37CHL1  H12B 2697   4.817   1.175   7.469 -1.6914 -0.6586  2.4347
   37CHL1   C11 2698   4.886   1.029   7.323 -0.2384  0.1896  0.6497
   37CHL1  H11A 2699   4.934   0.929   7.314 -2.3591 -0.7215 -1.6392
   37CHL1  H11B 2700   4.785   1.006   7.284 -0.6595  0.5446  1.4975
   37CHL1    C9 2701   4.970   1.124   7.230 -1.0739 -0.3351  0.3372
   37CHL1    H9 2702   4.913   1.219   7.231  0.0528  0.3761  1.9065
   37CHL1   C10 2703   4.976   1.069   7.088  0.2972 -0.6302  0.4323
   37CHL1   C19 2704   5.005   0.916   7.086  0.3446 -0.0260  0.1769
   37CHL1  H19A 2705   4.917   0.862   7.126 -0.4974 -1.3249 -3.1713
   37CHL1  H19B 2706   4.997   0.883   6.981 -0.7616  2.0018 -0.4498
   37CHL1  H19C 2707   5.099   0.890   7.140  1.2194  2.3401 -0.0668
   37CHL1    C1 2708   4.841   1.103   7.016  0.1644 -0.3157  0.1810
   37CHL1   H1A 2709   4.759   1.045   7.065  0.4466  0.5038  1.7056
   37CHL1   H1B 2710   4.809   1.209   7.032 -0.7545 -0.0941 -2.6587
   37CHL1    C2 2711   4.841   1.077   6.865 -0.1730 -0.5473  0.2864
   37CHL1   H2A 2712   4.750   1.118   6.816  1.6356  0.9571 -2.0815
   37CHL1   H2B 2713   4.826   0.973   6.829 -3.2803  0.6123 -2.2267
   37CHL1   C20 2714   4.956   1.130   7.783  0.3172  0.2827 -0.1007
   37CHL1   H20 2715   4.864   1.076   7.751  1.9616 -2.4152 -0.5631
   37CHL1   C21 2716   4.905   1.252   7.867 -0.1044  0.3988  0.4473
   37CHL1  H21A 2717   4.841   1.214   7.950  0.1954 -0.6216  0.2352
   37CHL1  H21B 2718   4.840   1.324   7.814  1.0644  0.3841 -1.0799
   37CHL1  H21C 2719   4.988   1.311   7.911  0.8701  0.7517 -1.7031
   37CHL1   C22 2720   5.030   1.030   7.880  0.1481  0.6923 -0.6484
   37CHL1  H22A 2721   5.077   0.961   7.807  1.8763  1.4300 -0.2824
   37CHL1  H22B 2722   5.107   1.094   7.927 -1.1550  0.0686  2.6315
   37CHL1   C23 2723   4.943   0.967   7.987  0.4101  0.6919 -0.1599
   37CHL1  H23A 2724   4.933   1.044   8.067 -2.3018  0.3266 -0.0641
   37CHL1  H23B 2725   4.840   0.948   7.949  0.0471  0.0778  1.0826
   37CHL1   C24 2726   5.008   0.852   8.049 -0.3552  0.1644  0.1421
   37CHL1  H24A 2727   5.042   0.781   7.971 -1.4264  0.5806 -0.7206
   37CHL1  H24B 2728   5.092   0.892   8.110 -0.9809  1.8545 -0.0474
   37CHL1   C25 2729   4.927   0.771   8.154 -1.1028 -0.2681 -0.3343
   37CHL1   H25 2730   4.827   0.745   8.114 -1.3334  1.1507 -0.7374
   37CHL1   C26 2731   5.010   0.638   8.184  0.0674 -0.1239  0.7151
   37CHL1  H26A 2732   5.020   0.587   8.086 -0.5321 -0.0001  0.5853
   37CHL1  H26B 2733   5.106   0.679   8.222  1.4845 -0.6418 -2.0237
   37CHL1  H26C 2734   4.981   0.581   8.275 -2.8784  2.3336  1.4716
   37CHL1   C27 2735   4.898   0.843   8.286 -0.5807  0.1070  0.8782
   37CHL1  H27A 2736   4.994   0.832   8.341  1.4019 -4.4129 -2.7791
   37CHL1  H27B 2737   4.872   0.950   8.270  1.0287  0.5959  1.3720
   37CHL1  H27C 2738   4.818   0.793   8.343 -2.2319  2.2845  0.5933
   38CHL1    C3 2739   0.915   1.534   6.671  0.2414 -0.0508 -0.1585
   38CHL1    H3 2740   0.821   1.476   6.676 -0.9928  1.8667 -0.1033
   38CHL1    O3 2741   0.996   1.475   6.573  0.0310 -0.6138 -0.0037
   38CHL1   H3' 2742   1.000   1.539   6.501 -0.8726  0.6291  1.0043
   38CHL1    C4 2743   0.880   1.681   6.639  0.4308 -0.6169 -0.1284
   38CHL1   H4A 2744   0.973   1.741   6.633  0.1209  0.2259  2.4730
   38CHL1   H4B 2745   0.827   1.685   6.541  1.5448 -1.4061 -0.7809
   38CHL1    C5 2746   0.801   1.737   6.751  0.4638 -0.0809  0.0425
   38CHL1    C6 2747   0.677   1.791   6.723 -0.4176  0.5274  0.6526
   38CHL1    H6 2748   0.632   1.785   6.623  1.7994  0.2802 -0.3962
   38CHL1    C7 2749   0.587   1.838   6.829 -0.2669 -0.3142 -0.8339
   38CHL1   H7A 2750   0.540   1.935   6.803  0.9445  0.7940  0.8809
   38CHL1   H7B 2751   0.505   1.769   6.859 -0.6579  0.9388  1.1933
   38CHL1    C8 2752   0.663   1.867   6.964  0.6336 -0.2762  0.2332
   38CHL1    H8 2753   0.724   1.959   6.953  2.1581 -0.9919  2.0494
   38CHL1   C14 2754   0.557   1.877   7.071 -0.0469  0.4860  0.4144
   38CHL1   H14 2755   0.508   1.778   7.081  1.4395 -0.4543 -0.9639
   38CHL1   C15 2756   0.448   1.976   7.043  0.2304 -0.0640  0.1566
   38CHL1  H15A 2757   0.499   2.067   7.006 -0.6052  0.3777  0.0652
   38CHL1  H15B 2758   0.374   1.941   6.968 -0.9940  0.5714  1.0369
   38CHL1   C16 2759   0.392   2.001   7.185  1.0517  0.2161  0.0102
   38CHL1  H16A 2760   0.411   2.107   7.212 -0.6758  0.3454  0.8908
   38CHL1  H16B 2761   0.285   1.974   7.195  0.9197 -0.2485 -2.2428
   38CHL1   C17 2762   0.467   1.909   7.280 -0.1441  0.3767 -0.1806
   38CHL1   H17 2763   0.430   1.805   7.279 -1.1735  0.7166  0.9230
   38CHL1   C13 2764   0.602   1.896   7.211  0.2599 -0.2971  0.5117
   38CHL1   C18 2765   0.679   2.029   7.227 -0.4845  0.5977  0.1825
   38CHL1  H18A 2766   0.767   2.032   7.160  0.1923 -1.2433  0.9432
   38CHL1  H18B 2767   0.621   2.120   7.197  0.1838  0.9388 -0.0964
   38CHL1  H18C 2768   0.713   2.037   7.332  0.1546 -1.8240  0.2028
   38CHL1   C12 2769   0.692   1.778   7.246  0.4914  0.3538  0.2669
   38CHL1  H12A 2770   0.720   1.780   7.353 -1.0253 -0.9480  0.7311
   38CHL1  H12B 2771   0.636   1.685   7.222 -0.8804  1.6811 -1.9986
   38CHL1   C11 2772   0.810   1.768   7.152 -1.2093 -0.5603  0.2794
   38CHL1  H11A 2773   0.878   1.856   7.163 -2.4809  0.4851  0.0119
   38CHL1  H11B 2774   0.867   1.676   7.177  1.5022  1.3015  1.4085
   38CHL1    C9 2775   0.755   1.752   7.002  0.7865 -0.0073  0.5505
   38CHL1    H9 2776   0.686   1.665   7.014 -0.3654  0.9054  0.7004
   38CHL1   C10 2777   0.862   1.727   6.892  0.4114  0.5518 -0.2435
   38CHL1   C19 2778   0.987   1.822   6.907  0.2218 -0.7183  0.0984
   38CHL1  H19A 2779   1.053   1.798   6.993  0.4910 -0.8226 -0.1319
   38CHL1  H19B 2780   1.052   1.819   6.816 -0.9743  0.6495 -0.8499
   38CHL1  H19C 2781   0.957   1.929   6.904  1.7783 -0.2748 -0.7613
   38CHL1    C1 2782   0.904   1.575   6.923 -0.1879 -0.1139 -1.5967
   38CHL1   H1A 2783   0.974   1.567   7.009 -1.5199 -2.4320 -0.6573
   38CHL1   H1B 2784   0.815   1.511   6.940  1.8677 -2.6260  0.6983
   38CHL1    C2 2785   0.990   1.523   6.809 -0.6766  0.1825  0.6846
   38CHL1   H2A 2786   1.012   1.415   6.822  1.1174  0.0751 -2.4263
   38CHL1   H2B 2787   1.085   1.580   6.806 -1.3800  1.5040 -3.9371
   38CHL1   C20 2788   0.454   1.945   7.427  0.2932  0.2330 -0.0300
   38CHL1   H20 2789   0.494   2.047   7.445 -1.8161  0.9648  0.8882
   38CHL1   C21 2790   0.529   1.844   7.517  0.5255  0.5896 -0.2891
   38CHL1  H21A 2791   0.637   1.865   7.501  0.3928  0.2394 -1.8366
   38CHL1  H21B 2792   0.522   1.741   7.475 -1.5022  1.3412 -1.9899
   38CHL1  H21C 2793   0.507   1.860   7.625 -1.5463  2.1644 -0.8942
   38CHL1   C22 2794   0.300   1.955   7.468 -0.2076 -0.2130 -0.8587
   38CHL1  H22A 2795   0.245   2.019   7.396  0.8976 -0.0925 -1.6303
   38CHL1  H22B 2796   0.255   1.853   7.463 -0.5055 -0.2306  1.3207
   38CHL1   C23 2797   0.272   2.014   7.616 -0.2849  0.1611  0.0483
   38CHL1  H23A 2798   0.362   1.987   7.677  1.3207 -2.4007 -3.1403
   38CHL1  H23B 2799   0.272   2.125   7.618 -0.4649  0.1682  1.8356
   38CHL1   C24 2800   0.136   1.976   7.686  0.5388 -0.7103 -0.4512
   38CHL1  H24A 2801   0.054   1.979   7.611 -1.2800  1.1468  1.4995
   38CHL1  H24B 2802   0.130   1.867   7.706 -2.7707 -0.7535 -1.2020
   38CHL1   C25 2803   0.088   2.052   7.813  0.5475 -0.0848  0.0350
   38CHL1   H25 2804   0.120   2.157   7.797  1.9320 -0.3326  1.0194
   38CHL1   C26 2805  -0.067   2.044   7.832 -0.1918 -0.4973 -0.3000
   38CHL1  H26A 2806  -0.121   2.100   7.753  0.8699 -1.4088 -1.7277
   38CHL1  H26B 2807  -0.085   1.934   7.839 -2.4980 -0.1112  0.9536
   38CHL1  H26C 2808  -0.090   2.092   7.930  0.5698 -2.0208  0.6681
   38CHL1   C27 2809   0.161   1.998   7.932 -0.2983  0.6038 -0.1550
   38CHL1  H27A 2810   0.139   2.056   8.024  0.5420 -0.3230  0.6430
   38CHL1  H27B 2811   0.155   1.887   7.943  2.5128  0.5628  1.8366
   38CHL1  H27C 2812   0.266   2.027   7.914  0.0541 -0.8365 -0.5896
   39CHL1    C3 2813   0.083   4.166   6.879  0.5096  0.4157  0.5358
   39CHL1    H3 2814   0.101   4.275   6.878 -1.4932  0.7831  0.8464
   39CHL1    O3 2815   0.051   4.136   6.740  0.5786  0.1048 -0.2449
   39CHL1   H3' 2816   0.024   4.045   6.756  1.3222 -0.1665 -0.4724
   39CHL1    C4 2817   0.212   4.090   6.912 -0.0986 -0.6197  0.4185
   39CHL1   H4A 2818   0.219   3.979   6.905  0.4549 -0.7751  2.6032
   39CHL1   H4B 2819   0.275   4.126   6.828 -1.1315 -0.2578 -0.2210
   39CHL1    C5 2820   0.251   4.125   7.056 -1.3959  0.1643 -0.6388
   39CHL1    C6 2821   0.371   4.191   7.069  0.1986 -0.0422 -0.3949
   39CHL1    H6 2822   0.429   4.211   6.978 -1.7557 -2.4814 -2.3092
   39CHL1    C7 2823   0.419   4.221   7.212  0.0761  0.2152 -0.4662
   39CHL1   H7A 2824   0.523   4.187   7.227  0.6382  0.8764 -2.5439
   39CHL1   H7B 2825   0.408   4.329   7.235 -1.3234  0.0499 -0.2686
   39CHL1    C8 2826   0.330   4.148   7.327  0.3277  0.1491  0.7486
   39CHL1    H8 2827   0.358   4.041   7.333 -1.7539 -0.3740  2.2405
   39CHL1   C14 2828   0.355   4.229   7.451  0.5032 -0.2192 -0.0351
   39CHL1   H14 2829   0.321   4.335   7.448 -0.4542 -0.4981  0.5232
   39CHL1   C15 2830   0.494   4.248   7.512  0.3226  0.0508 -0.3722
   39CHL1  H15A 2831   0.557   4.157   7.499  0.7885  0.1189  1.1739
   39CHL1  H15B 2832   0.550   4.332   7.465  0.5570  1.3073  1.9557
   39CHL1   C16 2833   0.484   4.272   7.665  1.2020 -0.6012  0.3916
   39CHL1  H16A 2834   0.529   4.190   7.724  0.9535 -1.4615 -0.5935
   39CHL1  H16B 2835   0.523   4.373   7.692 -0.3049 -0.2990  1.5303
   39CHL1   C17 2836   0.331   4.271   7.688  0.1694  0.0720  0.0013
   39CHL1   H17 2837   0.290   4.371   7.662  0.6483  0.4839  0.7914
   39CHL1   C13 2838   0.274   4.181   7.573  0.8013  0.0277 -0.2408
   39CHL1   C18 2839   0.315   4.034   7.592  0.6340  0.1993 -0.9944
   39CHL1  H18A 2840   0.421   4.018   7.621 -0.2517 -1.3417  1.7875
   39CHL1  H18B 2841   0.259   3.995   7.679 -1.1834  3.4489 -0.5248
   39CHL1  H18C 2842   0.280   3.961   7.516 -1.3301 -1.8187  1.6660
   39CHL1   C12 2843   0.120   4.202   7.538 -0.2945 -0.0983  0.2022
   39CHL1  H12A 2844   0.054   4.181   7.626  0.9726 -1.8632  0.8136
   39CHL1  H12B 2845   0.112   4.311   7.521  1.6792 -0.3040 -2.5121
   39CHL1   C11 2846   0.075   4.131   7.409 -0.5235 -0.2934 -0.1324
   39CHL1  H11A 2847   0.070   4.023   7.432 -0.1451 -0.4837 -0.8858
   39CHL1  H11B 2848  -0.024   4.170   7.376 -0.7681 -2.0223 -1.6375
   39CHL1    C9 2849   0.178   4.163   7.294 -0.0658 -0.1199  0.8816
   39CHL1    H9 2850   0.168   4.272   7.272  1.0064 -0.3409 -0.8869
   39CHL1   C10 2851   0.143   4.096   7.161 -0.0757  0.0249 -0.7288
   39CHL1   C19 2852   0.147   3.944   7.176  0.0679  0.2280 -0.4753
   39CHL1  H19A 2853   0.120   3.888   7.085  1.5872 -0.9865 -0.2185
   39CHL1  H19B 2854   0.251   3.918   7.206  0.4356 -1.3491 -2.8173
   39CHL1  H19C 2855   0.077   3.912   7.256  0.4175  0.8844  0.1092
   39CHL1    C1 2856   0.009   4.146   7.112  1.0385  0.0323 -0.3791
   39CHL1   H1A 2857  -0.072   4.098   7.173  0.0897  1.6557 -0.3011
   39CHL1   H1B 2858  -0.006   4.255   7.126 -0.2645 -0.0392 -1.0186
   39CHL1    C2 2859  -0.029   4.125   6.969  0.1600  0.5412 -0.3304
   39CHL1   H2A 2860  -0.124   4.180   6.951 -0.8493  0.3616  3.5345
   39CHL1   H2B 2861  -0.059   4.020   6.952 -2.7917  1.4670 -1.5020
   39CHL1   C20 2862   0.286   4.236   7.827  0.2018 -0.9538  0.1234
   39CHL1   H20 2863   0.177   4.215   7.823 -0.0917  0.4031  0.4133
   39CHL1   C21 2864   0.306   4.366   7.912 -0.4915  0.7372  0.7101
   39CHL1  H21A 2865   0.244   4.352   8.004  0.4225  1.8538  1.5133
   39CHL1  H21B 2866   0.265   4.451   7.853  2.0204  0.7281 -1.2273
   39CHL1  H21C 2867   0.409   4.390   7.945 -0.0074  4.2821 -2.6604
   39CHL1   C22 2868   0.346   4.116   7.905  0.3285 -0.1795 -0.4494
   39CHL1  H22A 2869   0.409   4.046   7.846 -0.3537 -1.1056 -0.1083
   39CHL1  H22B 2870   0.412   4.168   7.978 -0.6511 -1.2683  1.2887
   39CHL1   C23 2871   0.251   4.030   7.980  0.8022 -0.4385 -0.1478
   39CHL1  H23A 2872   0.167   4.094   8.013  0.4439  0.8935 -3.3447
   39CHL1  H23B 2873   0.205   3.950   7.918 -0.3181 -1.5889  2.0203
   39CHL1   C24 2874   0.308   3.964   8.101  0.4640 -0.3097  0.4507
   39CHL1  H24A 2875   0.400   3.905   8.078 -0.7783 -1.1256 -2.9319
   39CHL1  H24B 2876   0.355   4.039   8.169 -0.7452  0.7637  0.1408
   39CHL1   C25 2877   0.212   3.880   8.172  0.6157  0.9269 -0.2046
   39CHL1   H25 2878   0.141   3.825   8.106  1.7729 -1.7028  0.6018
   39CHL1   C26 2879   0.293   3.784   8.253 -0.1947 -0.0153 -0.3008
   39CHL1  H26A 2880   0.366   3.717   8.202  0.1120 -1.1934  1.5968
   39CHL1  H26B 2881   0.348   3.842   8.329  1.1545 -2.3149  0.5758
   39CHL1  H26C 2882   0.213   3.721   8.298 -1.1932 -2.2536 -4.5877
   39CHL1   C27 2883   0.120   3.958   8.265  0.1595  0.0829  0.0987
   39CHL1  H27A 2884   0.187   3.997   8.345  1.5582 -1.5593 -0.2043
   39CHL1  H27B 2885   0.064   4.040   8.217 -2.0280 -0.5182  1.5158
   39CHL1  H27C 2886   0.045   3.896   8.318  1.4432 -0.6101  1.1955
   40CHL1    C3 2887   3.675   1.160   6.997 -0.0527  0.2792 -0.1458
   40CHL1    H3 2888   3.750   1.089   7.036 -1.1794 -0.5301  0.5840
   40CHL1    O3 2889   3.687   1.155   6.855  0.3789 -0.0034 -0.4945
   40CHL1   H3' 2890   3.595   1.157   6.829 -0.1738 -0.0150  1.3244
   40CHL1    C4 2891   3.535   1.124   7.036 -0.6288 -0.4330  0.5212
   40CHL1   H4A 2892   3.472   1.208   6.998 -0.2971 -0.6560 -0.5772
   40CHL1   H4B 2893   3.509   1.028   6.987 -0.8646 -0.8993  1.5369
   40CHL1    C5 2894   3.527   1.129   7.184  0.4788  0.7187 -0.1182
   40CHL1    C6 2895   3.489   1.019   7.256  0.7606 -0.0982  0.4165
   40CHL1    H6 2896   3.477   0.921   7.206  0.2782 -0.5210  1.3478
   40CHL1    C7 2897   3.470   1.022   7.405  0.1120 -0.1041 -0.5480
   40CHL1   H7A 2898   3.372   0.975   7.430 -0.7781  3.0174  2.6189
   40CHL1   H7B 2899   3.548   0.957   7.451  0.7530  0.4531 -0.8401
   40CHL1    C8 2900   3.473   1.166   7.462  0.3489 -0.3278  0.1985
   40CHL1    H8 2901   3.376   1.216   7.441  1.0535  1.1112  0.2332
   40CHL1   C14 2902   3.479   1.150   7.618 -0.5982 -0.6649 -0.2104
   40CHL1   H14 2903   3.585   1.116   7.627 -0.4687 -0.2829 -0.2811
   40CHL1   C15 2904   3.399   1.047   7.690  0.1645 -0.2931 -0.1178
   40CHL1  H15A 2905   3.297   1.040   7.647  0.3579 -2.0865 -0.3748
   40CHL1  H15B 2906   3.453   0.950   7.699 -1.6405 -1.3185 -0.0185
   40CHL1   C16 2907   3.395   1.102   7.837  0.7495 -0.8358 -0.3702
   40CHL1  H16A 2908   3.291   1.132   7.861  1.3483  0.8807  0.1983
   40CHL1  H16B 2909   3.427   1.029   7.913 -0.4939 -0.9634  0.0602
   40CHL1   C17 2910   3.484   1.233   7.842 -0.2712 -0.0502 -0.0147
   40CHL1   H17 2911   3.591   1.212   7.861  0.4012  3.5162  0.9771
   40CHL1   C13 2912   3.477   1.282   7.693 -0.2007 -0.0377 -0.4451
   40CHL1   C18 2913   3.332   1.334   7.677  0.0553 -0.0118  0.2853
   40CHL1  H18A 2914   3.314   1.353   7.569 -2.1517 -1.1762  0.3831
   40CHL1  H18B 2915   3.258   1.257   7.710 -1.4516  0.7625 -1.1310
   40CHL1  H18C 2916   3.321   1.426   7.738  1.2937  0.2508  0.1282
   40CHL1   C12 2917   3.589   1.370   7.642 -0.8398 -0.2555  0.0281
   40CHL1  H12A 2918   3.579   1.471   7.685 -0.0783 -0.7450  1.3988
   40CHL1  H12B 2919   3.691   1.338   7.671 -1.0551 -0.7996  0.2039
   40CHL1   C11 2920   3.583   1.389   7.486 -0.2949  0.3770  0.1822
   40CHL1  H11A 2921   3.500   1.461   7.467 -2.8918 -2.3673  0.3316
   40CHL1  H11B 2922   3.677   1.442   7.459 -0.8263  1.2055 -0.1111
   40CHL1    C9 2923   3.581   1.255   7.405  0.1903  0.4664 -0.2366
   40CHL1    H9 2924   3.685   1.219   7.420 -0.4798 -1.9872 -1.1394
   40CHL1   C10 2925   3.570   1.265   7.253 -0.8486  0.5389  0.5581
   40CHL1   C19 2926   3.461   1.373   7.226  1.2235  0.0168  0.4846
   40CHL1  H19A 2927   3.506   1.471   7.254  1.2862  0.4601 -1.0501
   40CHL1  H19B 2928   3.440   1.374   7.117  1.1086 -1.3062  0.4819
   40CHL1  H19C 2929   3.359   1.362   7.269  1.6809 -0.5788  1.4624
   40CHL1    C1 2930   3.708   1.304   7.192  0.2379 -0.7119  0.1579
   40CHL1   H1A 2931   3.738   1.400   7.238  0.6498 -1.7213  2.1097
   40CHL1   H1B 2932   3.766   1.215   7.226 -0.0338 -1.2463 -0.7565
   40CHL1    C2 2933   3.717   1.301   7.042  0.3261  0.1831  0.7743
   40CHL1   H2A 2934   3.816   1.338   7.010  1.1515  0.2664  3.2040
   40CHL1   H2B 2935   3.647   1.376   6.999 -0.2322 -0.4774  0.4898
   40CHL1   C20 2936   3.442   1.321   7.958 -0.1582 -0.6287 -0.7427
   40CHL1   H20 2937   3.335   1.348   7.941  0.2221  0.1787 -1.9811
   40CHL1   C21 2938   3.520   1.458   7.964 -0.5574 -1.0510  1.0604
   40CHL1  H21A 2939   3.498   1.514   7.870  1.1513  1.1247  1.8655
   40CHL1  H21B 2940   3.629   1.451   7.983 -0.2977  1.5039  0.9107
   40CHL1  H21C 2941   3.471   1.514   8.046 -0.9029  0.8482 -0.3669
   40CHL1   C22 2942   3.445   1.245   8.092 -0.4869  0.0295 -0.9930
   40CHL1  H22A 2943   3.383   1.154   8.097 -1.8551  0.9962  1.7288
   40CHL1  H22B 2944   3.553   1.223   8.109  0.7322  2.4629 -4.3220
   40CHL1   C23 2945   3.385   1.318   8.222  0.2546 -0.0095  0.5849
   40CHL1  H23A 2946   3.427   1.421   8.225 -0.0249  0.2264 -1.7994
   40CHL1  H23B 2947   3.278   1.337   8.198  0.1296 -2.0425 -0.7308
   40CHL1   C24 2948   3.407   1.246   8.354  0.9335  0.0811 -0.2109
   40CHL1  H24A 2949   3.376   1.140   8.344 -0.5820  0.4026  0.5903
   40CHL1  H24B 2950   3.517   1.239   8.362  1.0261  0.8093 -0.7414
   40CHL1   C25 2951   3.362   1.310   8.485  0.0099  0.8903 -0.5820
   40CHL1   H25 2952   3.400   1.414   8.484 -0.5232  1.1142  1.0899
   40CHL1   C26 2953   3.210   1.294   8.496  0.4043 -0.1227  0.0200
   40CHL1  H26A 2954   3.187   1.327   8.599  2.7012  0.1329  0.4903
   40CHL1  H26B 2955   3.166   1.364   8.422  2.5617  2.3455  0.8962
   40CHL1  H26C 2956   3.177   1.189   8.481 -2.1229  0.6603 -0.4902
   40CHL1   C27 2957   3.432   1.228   8.596  0.7245  0.1783 -0.6230
   40CHL1  H27A 2958   3.542   1.244   8.596  1.1506 -2.0461  1.7797
   40CHL1  H27B 2959   3.399   1.265   8.695 -0.9317  1.2228 -1.5099
   40CHL1  H27C 2960   3.413   1.119   8.591  0.7996  0.1196  0.1939
   41CHL1    C3 2961   3.963   5.637   7.060  0.4999  0.0815 -0.4879
   41CHL1    H3 2962   3.871   5.576   7.052  1.1422 -0.8299 -1.0022
   41CHL1    O3 2963   4.014   5.650   6.925 -0.0123 -0.0922  0.3854
   41CHL1   H3' 2964   4.067   5.730   6.928  0.0208 -0.0605 -0.6121
   41CHL1    C4 2965   3.925   5.779   7.106  0.1154  0.4161  0.9601
   41CHL1   H4A 2966   4.005   5.853   7.083  0.4969 -0.0054  0.9133
   41CHL1   H4B 2967   3.844   5.816   7.040  2.3687  1.5194 -1.3699
   41CHL1    C5 2968   3.879   5.774   7.243  0.1044 -0.5620 -0.3063
   41CHL1    C6 2969   3.758   5.820   7.271  0.5437  0.4667  0.3733
   41CHL1    H6 2970   3.696   5.852   7.187 -0.9605  2.6606  2.1757
   41CHL1    C7 2971   3.703   5.841   7.409  0.6308  0.4619  0.5416
   41CHL1   H7A 2972   3.644   5.934   7.428 -0.8662 -0.4374  0.4136
   41CHL1   H7B 2973   3.623   5.767   7.430 -0.8317  2.1069  1.1153
   41CHL1    C8 2974   3.813   5.839   7.513  0.5347 -0.1696 -1.3700
   41CHL1    H8 2975   3.859   5.940   7.508  0.8185 -0.0339  1.9406
   41CHL1   C14 2976   3.762   5.826   7.659  0.6190  0.1584  0.3207
   41CHL1   H14 2977   3.721   5.723   7.664 -0.4489  0.5523 -0.1623
   41CHL1   C15 2978   3.639   5.907   7.701  0.5096  0.7834  0.1630
   41CHL1  H15A 2979   3.665   6.010   7.668 -0.2967  0.6673 -0.8682
   41CHL1  H15B 2980   3.542   5.878   7.656 -0.7168  0.4239  2.8686
   41CHL1   C16 2981   3.646   5.899   7.857 -0.1778  0.3061 -0.4223
   41CHL1  H16A 2982   3.656   6.000   7.901 -0.0968 -0.5679  1.6846
   41CHL1  H16B 2983   3.558   5.856   7.909  1.8313 -1.0614  2.0913
   41CHL1   C17 2984   3.773   5.818   7.894 -0.8556  0.1792 -0.1653
   41CHL1   H17 2985   3.742   5.712   7.900 -1.2690  0.3475  0.7120
   41CHL1   C13 2986   3.869   5.833   7.769  0.0844 -0.7122 -0.0993
   41CHL1   C18 2987   3.939   5.976   7.772 -0.1844 -0.0730 -0.3192
   41CHL1  H18A 2988   3.970   6.001   7.668  1.4651  0.6106  0.2933
   41CHL1  H18B 2989   3.866   6.057   7.790 -1.1411 -0.8332 -0.6968
   41CHL1  H18C 2990   4.030   5.970   7.836 -0.3451 -2.2826 -0.2423
   41CHL1   C12 2991   3.968   5.717   7.748  0.2462 -0.1789  0.5330
   41CHL1  H12A 2992   4.054   5.731   7.816  2.1847  0.6427 -1.9225
   41CHL1  H12B 2993   3.921   5.617   7.760  0.3633 -0.3662 -0.4886
   41CHL1   C11 2994   4.022   5.723   7.604  0.1240  0.1758 -0.3969
   41CHL1  H11A 2995   4.085   5.812   7.589 -1.2039  1.3615  0.7835
   41CHL1  H11B 2996   4.074   5.626   7.586 -0.4065 -0.1940 -0.0009
   41CHL1    C9 2997   3.918   5.733   7.489 -0.8631 -0.6621 -0.6523
   41CHL1    H9 2998   3.862   5.638   7.501 -0.1816 -0.7456  2.6747
   41CHL1   C10 2999   3.979   5.734   7.348  0.0609  0.4333 -0.0880
   41CHL1   C19 3000   4.103   5.824   7.341  0.4950 -0.7449 -0.1060
   41CHL1  H19A 3001   4.087   5.913   7.405 -2.7752 -1.8606  0.8484
   41CHL1  H19B 3002   4.188   5.758   7.367  2.8643  1.8438 -0.8721
   41CHL1  H19C 3003   4.133   5.872   7.246  0.1243 -0.5984 -0.1512
   41CHL1    C1 3004   4.011   5.585   7.297 -0.1721  0.0301  0.0133
   41CHL1   H1A 3005   4.090   5.560   7.371  0.3156  0.9862 -0.1648
   41CHL1   H1B 3006   3.928   5.516   7.320  0.4260 -0.4154  0.8569
   41CHL1    C2 3007   4.059   5.568   7.156 -0.3456 -0.1990  0.7294
   41CHL1   H2A 3008   4.072   5.463   7.121 -1.5375 -0.3694  0.7343
   41CHL1   H2B 3009   4.159   5.615   7.149 -0.4444 -0.1772 -0.9336
   41CHL1   C20 3010   3.814   5.851   8.037 -0.1784  0.3538  0.2777
   41CHL1   H20 3011   3.820   5.961   8.048  1.2548  1.0563 -4.9752
   41CHL1   C21 3012   3.946   5.787   8.076  0.8782  0.4896 -0.4716
   41CHL1  H21A 3013   3.932   5.678   8.060 -1.1599  0.7740 -0.8813
   41CHL1  H21B 3014   3.980   5.811   8.179  2.4439 -1.8427 -0.3558
   41CHL1  H21C 3015   4.025   5.818   8.005 -0.1536 -0.5613 -2.1494
   41CHL1   C22 3016   3.706   5.804   8.133 -0.4532  0.5250  0.0062
   41CHL1  H22A 3017   3.616   5.868   8.118 -0.2762  0.7141 -0.2610
   41CHL1  H22B 3018   3.668   5.705   8.102  2.3067 -0.2979 -0.9405
   41CHL1   C23 3019   3.739   5.783   8.283  0.0418 -0.0211  0.7313
   41CHL1  H23A 3020   3.812   5.702   8.306  0.0312 -1.0941 -2.5858
   41CHL1  H23B 3021   3.780   5.879   8.319 -2.2488  1.7325 -1.0634
   41CHL1   C24 3022   3.606   5.754   8.359 -0.1201  0.4945 -0.3140
   41CHL1  H24A 3023   3.530   5.834   8.347 -1.9503 -1.4615 -2.5370
   41CHL1  H24B 3024   3.569   5.662   8.310  2.6249 -0.4330 -0.8170
   41CHL1   C25 3025   3.632   5.722   8.507 -0.5117 -0.2044 -0.5931
   41CHL1   H25 3026   3.695   5.804   8.545  0.3264 -1.2498  0.3429
   41CHL1   C26 3027   3.508   5.717   8.598  0.5010 -0.0601 -0.7181
   41CHL1  H26A 3028   3.540   5.705   8.704  0.4189 -2.8063 -0.9160
   41CHL1  H26B 3029   3.452   5.811   8.582 -0.0338 -0.5932 -2.1151
   41CHL1  H26C 3030   3.439   5.631   8.586 -0.5675  0.0021  3.3945
   41CHL1   C27 3031   3.716   5.600   8.527 -0.0290  0.4539 -0.1352
   41CHL1  H27A 3032   3.676   5.516   8.466  0.5158  1.0741 -1.3798
   41CHL1  H27B 3033   3.823   5.612   8.498  0.5366 -1.7472  0.7993
   41CHL1  H27C 3034   3.716   5.565   8.632 -0.9981  1.0810  0.0804
   42CHL1    C3 3035   4.640   2.581   6.852 -0.3997  0.3172  0.5307
   42CHL1    H3 3036   4.538   2.540   6.866 -0.1862  0.2089  1.9027
   42CHL1    O3 3037   4.665   2.598   6.708  0.3330 -0.0535 -0.0075
   42CHL1   H3' 3038   4.754   2.634   6.706  0.4664 -0.3761  0.2003
   42CHL1    C4 3039   4.650   2.718   6.930  0.1032 -0.4460  0.3359
   42CHL1   H4A 3040   4.747   2.768   6.911 -0.3661  0.0255 -1.0089
   42CHL1   H4B 3041   4.579   2.788   6.881 -0.4357  1.4349  3.5187
   42CHL1    C5 3042   4.616   2.705   7.075 -0.0726  0.8574  0.4121
   42CHL1    C6 3043   4.535   2.790   7.137 -0.3770  0.4263  0.0527
   42CHL1    H6 3044   4.496   2.869   7.072  0.6545  1.4977  0.7071
   42CHL1    C7 3045   4.505   2.791   7.281  0.2247 -0.2985  0.6705
   42CHL1   H7A 3046   4.504   2.896   7.316 -0.4363  0.2349 -0.8624
   42CHL1   H7B 3047   4.404   2.745   7.290 -0.7636  1.6921  0.2664
   42CHL1    C8 3048   4.611   2.704   7.365 -0.0390 -0.2662  0.4716
   42CHL1    H8 3049   4.705   2.763   7.362  0.6550 -1.3785 -0.5030
   42CHL1   C14 3050   4.572   2.681   7.506  0.5588 -0.0808  0.5065
   42CHL1   H14 3051   4.475   2.627   7.500 -0.8420  2.4454 -1.6172
   42CHL1   C15 3052   4.525   2.811   7.580 -0.3838 -0.6628  0.0664
   42CHL1  H15A 3053   4.604   2.888   7.566 -0.9608 -0.6276 -4.1387
   42CHL1  H15B 3054   4.425   2.854   7.555  0.1971 -0.3213 -1.7640
   42CHL1   C16 3055   4.529   2.757   7.721 -0.5790  0.4062  0.3329
   42CHL1  H16A 3056   4.585   2.818   7.795  1.4483 -0.5143 -0.3827
   42CHL1  H16B 3057   4.424   2.741   7.756  0.0268 -0.2358  1.9549
   42CHL1   C17 3058   4.594   2.614   7.722 -0.2426 -0.6328 -0.0762
   42CHL1   H17 3059   4.500   2.556   7.708 -2.4729  2.8019 -0.4701
   42CHL1   C13 3060   4.669   2.597   7.592 -0.4786 -0.1950 -0.7914
   42CHL1   C18 3061   4.800   2.683   7.604 -0.3171  0.0698 -0.1073
   42CHL1  H18A 3062   4.799   2.786   7.646  0.5143  0.0952 -0.1314
   42CHL1  H18B 3063   4.871   2.633   7.674 -1.5799  0.3163  1.3955
   42CHL1  H18C 3064   4.847   2.677   7.503 -0.2062 -0.2549 -0.0373
   42CHL1   C12 3065   4.675   2.453   7.533 -0.2552  0.2185  0.5977
   42CHL1  H12A 3066   4.740   2.373   7.574 -0.6794 -1.2865 -1.4888
   42CHL1  H12B 3067   4.570   2.419   7.545 -0.2837  0.1629  0.2093
   42CHL1   C11 3068   4.710   2.461   7.387  0.2600 -0.2662  0.3252
   42CHL1  H11A 3069   4.819   2.483   7.377  0.0337  0.4019 -0.8355
   42CHL1  H11B 3070   4.687   2.361   7.346 -0.1749 -0.8886  2.0135
   42CHL1    C9 3071   4.633   2.568   7.293  0.3417 -0.7477  0.2178
   42CHL1    H9 3072   4.527   2.538   7.279 -1.1330  3.5962  0.5854
   42CHL1   C10 3073   4.694   2.589   7.147  0.5677  0.0358  0.1351
   42CHL1   C19 3074   4.839   2.653   7.162  0.3271 -0.9011 -0.2197
   42CHL1  H19A 3075   4.883   2.665   7.061  2.3690 -0.4078  0.6613
   42CHL1  H19B 3076   4.840   2.750   7.215  1.9557  0.1649 -2.0653
   42CHL1  H19C 3077   4.904   2.579   7.215  1.0087 -0.6546 -0.7001
   42CHL1    C1 3078   4.696   2.453   7.066  0.0166 -0.5358  0.4844
   42CHL1   H1A 3079   4.765   2.379   7.112  1.5025 -0.3699 -1.4011
   42CHL1   H1B 3080   4.590   2.419   7.070 -0.5123  0.6133 -2.0768
   42CHL1    C2 3081   4.728   2.467   6.910  0.9929 -0.5629 -0.5076
   42CHL1   H2A 3082   4.718   2.373   6.851  0.8452 -1.7721  1.3879
   42CHL1   H2B 3083   4.832   2.503   6.894  0.0976  2.3863 -0.3108
   42CHL1   C20 3084   4.668   2.577   7.850 -0.5103  0.1398 -0.3391
   42CHL1   H20 3085   4.758   2.641   7.859  1.5237 -2.2064 -2.4989
   42CHL1   C21 3086   4.714   2.433   7.844  0.6146 -0.1017  0.7946
   42CHL1  H21A 3087   4.633   2.377   7.791  1.6338  0.1026 -1.0587
   42CHL1  H21B 3088   4.756   2.388   7.936 -1.6922 -2.9439  0.6338
   42CHL1  H21C 3089   4.799   2.425   7.774  1.3927 -0.7210  1.7925
   42CHL1   C22 3090   4.582   2.609   7.976 -0.1831 -0.2071  0.0823
   42CHL1  H22A 3091   4.556   2.718   7.974  1.9043  0.3176 -0.5496
   42CHL1  H22B 3092   4.488   2.550   7.978 -0.5401  0.1856 -2.5261
   42CHL1   C23 3093   4.666   2.608   8.098 -0.6667  0.6196  0.0408
   42CHL1  H23A 3094   4.680   2.502   8.125 -0.8989  0.3088 -0.9968
   42CHL1  H23B 3095   4.768   2.644   8.071 -0.9585  1.3356 -0.1413
   42CHL1   C24 3096   4.613   2.693   8.212 -0.0464 -0.1162  0.0385
   42CHL1  H24A 3097   4.593   2.797   8.181 -2.5305 -0.4158  0.4095
   42CHL1  H24B 3098   4.513   2.646   8.231 -0.7613  1.7091  0.9532
   42CHL1   C25 3099   4.695   2.711   8.342  0.5654  0.3702  0.1815
   42CHL1   H25 3100   4.734   2.612   8.374  2.6274  1.2626  0.6065
   42CHL1   C26 3101   4.806   2.821   8.331 -0.1974 -0.3199  0.0875
   42CHL1  H26A 3102   4.879   2.797   8.252 -1.5675  1.5691 -1.8555
   42CHL1  H26B 3103   4.751   2.909   8.294  1.0267  0.4026 -0.0606
   42CHL1  H26C 3104   4.850   2.840   8.432  1.0948 -0.1503 -0.4951
   42CHL1   C27 3105   4.600   2.760   8.460  0.1957  0.0369  0.0674
   42CHL1  H27A 3106   4.657   2.768   8.555  0.2532  0.5190 -0.0045
   42CHL1  H27B 3107   4.516   2.687   8.465  2.2025 -2.3263  2.2270
   42CHL1  H27C 3108   4.564   2.858   8.423 -2.8797 -0.6278  0.9841
   43CHL1    C3 3109   3.404   5.563   6.883 -0.4461 -0.0427  0.1015
   43CHL1    H3 3110   3.487   5.630   6.914  0.8573 -1.7248  0.4252
   43CHL1    O3 3111   3.410   5.545   6.738 -0.4056 -0.0561 -0.4532
   43CHL1   H3' 3112   3.344   5.479   6.715 -0.8621  0.0371  0.5300
   43CHL1    C4 3113   3.443   5.428   6.944 -1.0606  0.0445 -0.1196
   43CHL1   H4A 3114   3.363   5.355   6.919  0.7295 -2.3691  0.7812
   43CHL1   H4B 3115   3.538   5.394   6.897 -1.3071 -1.4411  0.3919
   43CHL1    C5 3116   3.460   5.445   7.098  0.7841  0.0946  0.7903
   43CHL1    C6 3117   3.573   5.417   7.158 -0.1589  0.6923 -0.3229
   43CHL1    H6 3118   3.657   5.377   7.100  0.8982  1.8373  0.3817
   43CHL1    C7 3119   3.603   5.427   7.306  0.1849  0.4167  0.1878
   43CHL1   H7A 3120   3.641   5.328   7.337 -1.0315  0.3184  1.4886
   43CHL1   H7B 3121   3.665   5.518   7.325 -1.2580  1.3197  0.8517
   43CHL1    C8 3122   3.467   5.452   7.380 -0.0870  0.1848  0.0294
   43CHL1    H8 3123   3.407   5.359   7.386  1.2982 -0.7158  0.3018
   43CHL1   C14 3124   3.491   5.498   7.523 -0.9478 -0.5338 -1.1301
   43CHL1   H14 3125   3.539   5.596   7.503 -0.9247 -0.1404  0.7184
   43CHL1   C15 3126   3.576   5.415   7.615  0.4677 -0.3884 -0.2210
   43CHL1  H15A 3127   3.551   5.307   7.613 -2.2053  0.1657 -1.4059
   43CHL1  H15B 3128   3.682   5.411   7.583 -0.0515 -4.5603 -2.0268
   43CHL1   C16 3129   3.557   5.479   7.750 -0.4329 -0.1218 -0.5546
   43CHL1  H16A 3130   3.534   5.399   7.823 -1.6472 -3.4092 -4.1631
   43CHL1  H16B 3131   3.645   5.536   7.786 -0.9354 -0.6786  1.6603
   43CHL1   C17 3132   3.436   5.571   7.741  0.1424 -0.2923 -0.6653
   43CHL1   H17 3133   3.473   5.675   7.727 -1.4554  0.4791  0.5346
   43CHL1   C13 3134   3.373   5.529   7.605  0.4438  0.1827  0.0787
   43CHL1   C18 3135   3.290   5.405   7.626  0.8584 -0.5658  0.3095
   43CHL1  H18A 3136   3.195   5.429   7.678  2.5855  1.1568  2.8988
   43CHL1  H18B 3137   3.246   5.359   7.535  0.1765 -1.1313  0.9102
   43CHL1  H18C 3138   3.337   5.326   7.688  2.2444 -0.7100 -0.8612
   43CHL1   C12 3139   3.287   5.637   7.531 -0.2879 -0.0913 -0.1481
   43CHL1  H12A 3140   3.195   5.647   7.593 -0.6482  0.2951 -0.7413
   43CHL1  H12B 3141   3.339   5.734   7.526 -0.1055 -0.0685  1.5711
   43CHL1   C11 3142   3.245   5.590   7.391  0.8620 -0.2537  0.4051
   43CHL1  H11A 3143   3.168   5.510   7.402 -0.7634  1.3655  1.5688
   43CHL1  H11B 3144   3.193   5.675   7.343  1.0031 -1.9250 -2.9902
   43CHL1    C9 3145   3.370   5.551   7.308  0.1528  0.1583  0.9062
   43CHL1    H9 3146   3.436   5.640   7.300 -1.5337  1.3317 -1.0442
   43CHL1   C10 3147   3.330   5.508   7.168 -0.2665  0.0067  0.0768
   43CHL1   C19 3148   3.228   5.394   7.173 -0.1708  0.2989  0.2020
   43CHL1  H19A 3149   3.263   5.311   7.237 -1.2511  1.3369  2.2167
   43CHL1  H19B 3150   3.129   5.422   7.215 -0.0959 -0.3253  0.8041
   43CHL1  H19C 3151   3.210   5.354   7.071 -0.9426  3.1980 -0.9275
   43CHL1    C1 3152   3.268   5.628   7.083 -0.7992  0.1853  0.0758
   43CHL1   H1A 3153   3.173   5.671   7.121  0.4507  3.4973 -0.2104
   43CHL1   H1B 3154   3.339   5.712   7.102 -0.1113 -0.3990  0.0987
   43CHL1    C2 3155   3.273   5.612   6.933  0.0628 -0.2765  0.3785
   43CHL1   H2A 3156   3.250   5.707   6.879  1.2807 -0.7669 -1.0821
   43CHL1   H2B 3157   3.190   5.545   6.905 -1.0391  1.0233  0.4668
   43CHL1   C20 3158   3.351   5.573   7.872  0.5044 -0.3395 -0.2522
   43CHL1   H20 3159   3.297   5.477   7.881  0.4638 -0.1783  1.5932
   43CHL1   C21 3160   3.252   5.693   7.855 -0.2903 -0.8379 -0.5970
   43CHL1  H21A 3161   3.230   5.745   7.951 -1.2138  1.8955 -2.1605
   43CHL1  H21B 3162   3.155   5.658   7.812 -0.6012 -0.9236  0.1426
   43CHL1  H21C 3163   3.283   5.773   7.786 -0.1790  0.7120  1.1580
   43CHL1   C22 3164   3.422   5.591   8.008  0.8655 -0.3433 -0.0863
   43CHL1  H22A 3165   3.522   5.541   8.007  0.5008 -1.2050  1.7863
   43CHL1  H22B 3166   3.438   5.697   8.037 -0.5433  0.1043 -0.8194
   43CHL1   C23 3167   3.341   5.549   8.131 -0.2437  0.3927  0.2849
   43CHL1  H23A 3168   3.374   5.582   8.232  0.7366  1.2856 -0.3150
   43CHL1  H23B 3169   3.236   5.586   8.123 -1.0176 -1.7386 -0.0765
   43CHL1   C24 3170   3.339   5.391   8.136 -0.1491 -0.3799 -0.1530
   43CHL1  H24A 3171   3.280   5.361   8.047  0.6610 -0.3870 -0.6924
   43CHL1  H24B 3172   3.437   5.342   8.121 -0.8615 -2.3031  1.0673
   43CHL1   C25 3173   3.259   5.340   8.256  0.3354 -0.4914 -0.5066
   43CHL1   H25 3174   3.264   5.229   8.246 -0.6354 -0.6488  0.5625
   43CHL1   C26 3175   3.318   5.370   8.398 -0.2332 -0.2848  0.1629
   43CHL1  H26A 3176   3.268   5.299   8.467  0.7655 -0.7117  0.4613
   43CHL1  H26B 3177   3.424   5.336   8.405  0.5033  1.3552 -1.9226
   43CHL1  H26C 3178   3.309   5.478   8.421 -3.2917 -0.6362  1.0444
   43CHL1   C27 3179   3.108   5.380   8.252  0.1072 -0.3175 -1.0718
   43CHL1  H27A 3180   3.057   5.360   8.155 -0.3598 -0.2621 -0.8421
   43CHL1  H27B 3181   3.033   5.347   8.327 -0.4392 -0.7475 -1.7900
   43CHL1  H27C 3182   3.104   5.490   8.271 -0.5982 -0.8543  2.7971
   44CHL1    C3 3183   4.803   4.462   6.779 -0.0576 -0.1621 -0.2332
   44CHL1    H3 3184   4.901   4.416   6.806  0.3096  0.2682 -0.8244
   44CHL1    O3 3185   4.796   4.486   6.643 -0.0720  0.5106 -0.0498
   44CHL1   H3' 3186   4.738   4.417   6.610 -1.2126  1.2442  0.3390
   44CHL1    C4 3187   4.680   4.376   6.820 -0.5332  0.9520 -0.4763
   44CHL1   H4A 3188   4.590   4.438   6.799 -0.5857  0.3737 -2.1240
   44CHL1   H4B 3189   4.656   4.283   6.764 -2.3998  0.8921  0.3385
   44CHL1    C5 3190   4.680   4.348   6.965 -0.3116 -0.2501  0.7685
   44CHL1    C6 3191   4.658   4.224   7.010 -0.1705 -0.1886  0.2593
   44CHL1    H6 3192   4.651   4.138   6.942  0.4403 -0.7564  0.8953
   44CHL1    C7 3193   4.642   4.194   7.155 -0.3820 -0.1145  0.1199
   44CHL1   H7A 3194   4.551   4.130   7.164 -2.5214  2.4213 -1.6902
   44CHL1   H7B 3195   4.733   4.139   7.186  0.4717  0.8289 -0.6632
   44CHL1    C8 3196   4.620   4.311   7.250  0.5181  0.2455 -0.4247
   44CHL1    H8 3197   4.517   4.347   7.232  0.0669 -1.3213 -1.1164
   44CHL1   C14 3198   4.645   4.266   7.393 -0.8358  0.0465  0.7021
   44CHL1   H14 3199   4.752   4.234   7.389 -1.4859 -2.0736 -1.8223
   44CHL1   C15 3200   4.576   4.141   7.449 -0.2088 -0.3512 -0.0953
   44CHL1  H15A 3201   4.471   4.141   7.415 -0.6832  0.5256  1.3117
   44CHL1  H15B 3202   4.624   4.047   7.414  1.2835 -0.0526  1.0468
   44CHL1   C16 3203   4.593   4.147   7.604  0.1089 -0.0155  0.1816
   44CHL1  H16A 3204   4.495   4.142   7.655  0.6210 -0.7039  1.1274
   44CHL1  H16B 3205   4.655   4.059   7.630  0.9461  0.4880 -0.0560
   44CHL1   C17 3206   4.662   4.281   7.628  0.0881  0.1333 -0.2664
   44CHL1   H17 3207   4.772   4.262   7.625  0.0539 -0.0829 -0.1840
   44CHL1   C13 3208   4.629   4.366   7.502  0.5193 -0.7580  0.4671
   44CHL1   C18 3209   4.484   4.415   7.518  0.6929 -0.0933 -0.7254
   44CHL1  H18A 3210   4.450   4.477   7.433  0.9212  0.9849 -0.0594
   44CHL1  H18B 3211   4.412   4.337   7.552  1.1053 -0.0094  0.4052
   44CHL1  H18C 3212   4.485   4.484   7.605 -1.1606 -4.2344  3.0237
   44CHL1   C12 3213   4.724   4.484   7.463  0.8473  0.7082  0.4745
   44CHL1  H12A 3214   4.722   4.572   7.530  1.4586 -2.0297  4.4340
   44CHL1  H12B 3215   4.829   4.447   7.471  0.2777 -1.8009 -1.9317
   44CHL1   C11 3216   4.703   4.533   7.319  0.8325 -0.7317 -0.3908
   44CHL1  H11A 3217   4.600   4.576   7.320  1.0782 -0.0209 -2.5060
   44CHL1  H11B 3218   4.784   4.604   7.295  0.1787  0.0833 -0.2138
   44CHL1    C9 3219   4.707   4.426   7.210 -0.3935  0.0066 -0.8124
   44CHL1    H9 3220   4.811   4.386   7.212 -0.1401  0.6720  0.8164
   44CHL1   C10 3221   4.686   4.478   7.061  0.1461  0.7857  1.1040
   44CHL1   C19 3222   4.552   4.558   7.047  0.1924  0.5111 -0.0402
   44CHL1  H19A 3223   4.467   4.494   7.079  0.1201 -0.0503 -1.3101
   44CHL1  H19B 3224   4.556   4.654   7.103 -0.7543 -0.1993  1.3046
   44CHL1  H19C 3225   4.510   4.582   6.947 -0.4370 -0.0691  0.0764
   44CHL1    C1 3226   4.804   4.561   7.011 -0.4882 -0.7864 -0.9103
   44CHL1   H1A 3227   4.789   4.658   7.063 -1.1916 -0.4109 -1.7747
   44CHL1   H1B 3228   4.905   4.530   7.046 -1.4001 -2.4312  0.4260
   44CHL1    C2 3229   4.796   4.593   6.862  0.2182 -0.6842 -0.2551
   44CHL1   H2A 3230   4.876   4.667   6.840  1.1113 -0.1759  3.9340
   44CHL1   H2B 3231   4.700   4.646   6.845  1.5086  2.3587  1.0781
   44CHL1   C20 3232   4.635   4.337   7.772  0.3489  0.3563 -1.2841
   44CHL1   H20 3233   4.525   4.330   7.787  0.5787 -0.6249  0.0839
   44CHL1   C21 3234   4.687   4.475   7.801 -0.1030 -0.2316  0.2858
   44CHL1  H21A 3235   4.687   4.491   7.911  2.3157  1.4279  0.1189
   44CHL1  H21B 3236   4.627   4.559   7.761 -0.1190  0.8619  2.4500
   44CHL1  H21C 3237   4.793   4.484   7.767 -0.5422  1.7803 -0.6567
   44CHL1   C22 3238   4.697   4.234   7.869 -0.1970  1.0806 -0.5467
   44CHL1  H22A 3239   4.651   4.138   7.837 -0.3310  1.0685 -0.3187
   44CHL1  H22B 3240   4.807   4.230   7.883 -0.4143  1.2291  1.5436
   44CHL1   C23 3241   4.649   4.246   8.014 -0.0609 -0.3832 -0.9008
   44CHL1  H23A 3242   4.693   4.327   8.076 -0.4402 -0.5911 -0.3576
   44CHL1  H23B 3243   4.538   4.257   8.016  0.1385  2.0071 -1.0089
   44CHL1   C24 3244   4.689   4.116   8.095 -0.5965 -0.2944  0.6542
   44CHL1  H24A 3245   4.631   4.033   8.051 -1.1369  0.5385 -0.2381
   44CHL1  H24B 3246   4.799   4.098   8.101 -0.1291  2.2342  1.2152
   44CHL1   C25 3247   4.633   4.132   8.240 -0.5668 -0.2168 -0.8065
   44CHL1   H25 3248   4.528   4.168   8.239  0.1203  2.0387  1.0818
   44CHL1   C26 3249   4.659   3.996   8.310  0.6927 -0.5054  0.0462
   44CHL1  H26A 3250   4.629   3.908   8.250 -0.1092 -0.3971  0.2756
   44CHL1  H26B 3251   4.768   3.988   8.329  0.9936  1.2495 -0.7055
   44CHL1  H26C 3252   4.620   3.987   8.414 -0.4942 -2.3145 -0.5264
   44CHL1   C27 3253   4.711   4.238   8.310  0.0281  0.2477  0.3743
   44CHL1  H27A 3254   4.695   4.218   8.418 -0.4118 -1.0178  0.0826
   44CHL1  H27B 3255   4.820   4.228   8.290  1.0596  1.6960  4.3150
   44CHL1  H27C 3256   4.668   4.337   8.282  0.7480  0.4273 -0.1362
   45CHL1    C3 3257   4.334   1.997   6.865  0.2563 -0.0421 -1.6491
   45CHL1    H3 3258   4.348   1.888   6.872 -3.1606 -0.5318 -0.4454
   45CHL1    O3 3259   4.334   2.023   6.726 -0.3719 -0.8548 -0.0692
   45CHL1   H3' 3260   4.317   2.117   6.719  1.3984 -0.4792  0.2339
   45CHL1    C4 3261   4.190   2.027   6.919 -0.5812 -0.0902 -0.2234
   45CHL1   H4A 3262   4.163   2.131   6.889 -0.1954  0.3041  0.7810
   45CHL1   H4B 3263   4.114   1.956   6.878 -0.1477 -0.7394  0.0828
   45CHL1    C5 3264   4.183   2.017   7.072 -0.0645  0.4030 -0.4783
   45CHL1    C6 3265   4.095   1.935   7.128 -0.3101 -0.1784  0.3670
   45CHL1    H6 3266   4.035   1.871   7.061 -0.0504  1.0681 -1.1100
   45CHL1    C7 3267   4.085   1.930   7.281  0.1834  0.7840  0.5585
   45CHL1   H7A 3268   3.980   1.932   7.317  0.2329 -0.5241  0.8007
   45CHL1   H7B 3269   4.115   1.832   7.324  0.3218  0.2736 -0.6794
   45CHL1    C8 3270   4.156   2.053   7.352  0.5125  0.5622  0.2576
   45CHL1    H8 3271   4.110   2.151   7.326  0.4680  0.0470 -1.7983
   45CHL1   C14 3272   4.165   2.022   7.505  0.3317  0.1430 -0.0080
   45CHL1   H14 3273   4.220   1.926   7.512 -0.7686 -0.3996  2.5676
   45CHL1   C15 3274   4.038   1.977   7.583 -0.2212  0.2315 -0.3487
   45CHL1  H15A 3275   3.967   2.060   7.564  0.6210  0.6785 -1.7073
   45CHL1  H15B 3276   3.988   1.880   7.562 -1.5363  0.8654 -0.2283
   45CHL1   C16 3277   4.076   1.988   7.730 -0.4085 -0.5076 -0.6285
   45CHL1  H16A 3278   4.006   2.051   7.789 -0.5024  0.1884 -1.4594
   45CHL1  H16B 3279   4.094   1.890   7.780 -2.7624 -0.1333  1.1169
   45CHL1   C17 3280   4.219   2.060   7.729  0.4080  0.3100  0.1389
   45CHL1   H17 3281   4.293   1.977   7.727 -0.1849 -0.2237 -0.6092
   45CHL1   C13 3282   4.233   2.121   7.585 -0.8685 -0.4510  0.2754
   45CHL1   C18 3283   4.160   2.253   7.575  0.1589 -0.2610 -0.5624
   45CHL1  H18A 3284   4.054   2.236   7.605  0.4341 -0.4878  0.3081
   45CHL1  H18B 3285   4.204   2.321   7.651 -1.2724 -0.3000  0.3461
   45CHL1  H18C 3286   4.161   2.304   7.476 -0.9135  0.0223 -0.4454
   45CHL1   C12 3287   4.385   2.139   7.532 -0.5162 -0.3240 -0.3664
   45CHL1  H12A 3288   4.425   2.230   7.581 -1.7309  0.4195 -0.7045
   45CHL1  H12B 3289   4.438   2.045   7.559  0.3014  0.1254 -0.4065
   45CHL1   C11 3290   4.388   2.173   7.378 -0.5272 -0.0587  0.1286
   45CHL1  H11A 3291   4.341   2.272   7.360  2.2286  0.8718 -2.9347
   45CHL1  H11B 3292   4.495   2.182   7.348 -0.3942  0.1963  0.6803
   45CHL1    C9 3293   4.298   2.067   7.297  0.4309  0.6289  0.0376
   45CHL1    H9 3294   4.336   1.963   7.306 -1.7366 -0.0947  1.5888
   45CHL1   C10 3295   4.288   2.099   7.145  0.1316  0.0835  0.0848
   45CHL1   C19 3296   4.260   2.255   7.120 -0.0010  0.2302  0.2209
   45CHL1  H19A 3297   4.169   2.297   7.169  1.1813  2.6817  0.4747
   45CHL1  H19B 3298   4.347   2.313   7.159  1.3425  0.1321 -2.4330
   45CHL1  H19C 3299   4.257   2.284   7.013 -0.4940  2.8318  0.8711
   45CHL1    C1 3300   4.429   2.062   7.089 -0.5126  0.0116 -0.1060
   45CHL1   H1A 3301   4.505   2.121   7.145  0.0408 -0.3346 -0.4740
   45CHL1   H1B 3302   4.457   1.958   7.117 -1.8172 -0.3527 -0.1253
   45CHL1    C2 3303   4.444   2.073   6.934  0.2659  0.2291  0.2178
   45CHL1   H2A 3304   4.548   2.048   6.905  0.3101 -1.3653  1.6043
   45CHL1   H2B 3305   4.444   2.182   6.912 -2.3215  0.0952 -0.8610
   45CHL1   C20 3306   4.241   2.137   7.858 -0.0138 -0.3113  0.0486
   45CHL1   H20 3307   4.184   2.231   7.872  1.6255  0.5990  0.9205
   45CHL1   C21 3308   4.391   2.192   7.857 -0.8822 -0.2502  0.2916
   45CHL1  H21A 3309   4.406   2.264   7.773 -0.9418 -2.2487 -1.5252
   45CHL1  H21B 3310   4.469   2.115   7.837  1.1889  1.3289  1.8249
   45CHL1  H21C 3311   4.425   2.234   7.954  1.0526 -1.8547  0.3900
   45CHL1   C22 3312   4.231   2.053   7.988 -0.0785 -0.1782 -0.3704
   45CHL1  H22A 3313   4.121   2.035   7.994 -0.6330  2.5742 -0.9510
   45CHL1  H22B 3314   4.288   1.959   7.969 -0.7114 -0.5841 -0.2926
   45CHL1   C23 3315   4.268   2.108   8.125  0.2503  0.6045  0.8556
   45CHL1  H23A 3316   4.234   2.031   8.197 -4.2052  3.3932  2.1192
   45CHL1  H23B 3317   4.378   2.126   8.130 -0.1137  2.8587  2.2471
   45CHL1   C24 3318   4.198   2.232   8.164  1.0816 -0.1918 -0.2323
   45CHL1  H24A 3319   4.210   2.316   8.092  2.0457 -1.4076 -1.5472
   45CHL1  H24B 3320   4.090   2.207   8.163  0.6209  1.4398  1.3539
   45CHL1   C25 3321   4.233   2.297   8.302  0.4165 -0.1359 -0.7135
   45CHL1   H25 3322   4.145   2.361   8.323 -1.8122 -3.5929  1.2640
   45CHL1   C26 3323   4.230   2.196   8.424 -1.2670 -0.3718  0.5418
   45CHL1  H26A 3324   4.327   2.143   8.433 -1.6257 -1.2669 -0.6587
   45CHL1  H26B 3325   4.229   2.253   8.520  1.6206 -2.1678  1.7538
   45CHL1  H26C 3326   4.138   2.135   8.409 -2.1448  0.6641  1.4851
   45CHL1   C27 3327   4.364   2.379   8.296 -0.6804 -0.1233 -0.4825
   45CHL1  H27A 3328   4.456   2.321   8.275 -0.0294  0.2331  1.2279
   45CHL1  H27B 3329   4.358   2.461   8.221  2.0802  1.0137  0.4244
   45CHL1  H27C 3330   4.384   2.424   8.395 -2.7251 -0.5630  0.1959
   46CHL1    C3 3331   5.512   4.748   6.858 -0.8246 -0.3566  0.6189
   46CHL1    H3 3332   5.493   4.639   6.849 -1.4961 -0.2255  0.3099
   46CHL1    O3 3333   5.544   4.791   6.729  0.0661 -0.4396 -0.2177
   46CHL1   H3' 3334   5.541   4.886   6.730  0.8943 -0.4088 -0.0619
   46CHL1    C4 3335   5.377   4.801   6.900 -0.2601  0.2614 -0.5426
   46CHL1   H4A 3336   5.377   4.912   6.900 -0.9225  0.2870  0.6946
   46CHL1   H4B 3337   5.301   4.770   6.825 -0.1157 -0.4094 -0.4232
   46CHL1    C5 3338   5.336   4.764   7.041  0.1153 -0.3724 -1.3878
   46CHL1    C6 3339   5.214   4.705   7.070 -0.1824 -0.2244 -0.6069
   46CHL1    H6 3340   5.141   4.676   6.993 -0.6363 -2.8574  0.7388
   46CHL1    C7 3341   5.172   4.655   7.204 -0.4293  0.1153  0.0379
   46CHL1   H7A 3342   5.077   4.698   7.244  0.7714 -0.4325  3.9273
   46CHL1   H7B 3343   5.170   4.545   7.195 -0.7764  0.2427 -2.0512
   46CHL1    C8 3344   5.274   4.703   7.315 -0.5054 -0.6381 -0.5352
   46CHL1    H8 3345   5.240   4.807   7.332  0.5879  0.0140 -2.1020
   46CHL1   C14 3346   5.242   4.628   7.448  0.2581 -0.0441 -0.2369
   46CHL1   H14 3347   5.265   4.521   7.426  2.5815  0.4657 -0.5194
   46CHL1   C15 3348   5.098   4.626   7.487 -0.4099  0.4587 -0.6676
   46CHL1  H15A 3349   5.046   4.720   7.462 -2.0900  0.2553  1.7742
   46CHL1  H15B 3350   5.057   4.537   7.435  1.4746 -0.9685  0.1538
   46CHL1   C16 3351   5.107   4.599   7.640  0.0350  0.2042  0.0408
   46CHL1  H16A 3352   5.063   4.679   7.704  0.6282 -0.7613  1.7222
   46CHL1  H16B 3353   5.065   4.497   7.655  0.8826 -0.1021  0.4071
   46CHL1   C17 3354   5.253   4.599   7.688 -0.7505  0.8407  0.7509
   46CHL1   H17 3355   5.274   4.490   7.679 -0.7551  0.9919 -1.6338
   46CHL1   C13 3356   5.323   4.675   7.572 -0.3026  0.4320 -0.6801
   46CHL1   C18 3357   5.296   4.823   7.602 -0.9285 -0.5609  0.4016
   46CHL1  H18A 3358   5.187   4.843   7.607 -1.0010 -0.8525  0.0465
   46CHL1  H18B 3359   5.355   4.868   7.684  2.4190 -1.2606 -1.4522
   46CHL1  H18C 3360   5.327   4.888   7.518 -0.0286 -0.3894  0.8542
   46CHL1   C12 3361   5.476   4.655   7.533  0.4339 -0.2875 -0.4576
   46CHL1  H12A 3362   5.546   4.697   7.609 -0.4375  1.3039 -0.4915
   46CHL1  H12B 3363   5.495   4.546   7.531 -1.4469 -0.7206  1.4929
   46CHL1   C11 3364   5.516   4.737   7.406 -0.6884 -0.4002  0.6615
   46CHL1  H11A 3365   5.523   4.846   7.430  0.7413 -0.5590  1.0664
   46CHL1  H11B 3366   5.617   4.705   7.371 -1.6920 -1.1840 -1.6804
   46CHL1    C9 3367   5.420   4.697   7.278 -0.1594  0.0975 -0.3600
   46CHL1    H9 3368   5.441   4.589   7.264  0.9545 -0.0537  1.9898
   46CHL1   C10 3369   5.449   4.780   7.152  1.3429  0.8581 -0.6011
   46CHL1   C19 3370   5.456   4.925   7.186  0.2810  0.2246 -0.1716
   46CHL1  H19A 3371   5.470   4.991   7.098  0.1071 -0.3524 -0.6355
   46CHL1  H19B 3372   5.367   4.958   7.244  0.7592  1.1239  0.0623
   46CHL1  H19C 3373   5.548   4.947   7.246  1.0787  0.0284 -1.2894
   46CHL1    C1 3374   5.583   4.725   7.095 -0.3017 -0.9555 -0.5155
   46CHL1   H1A 3375   5.665   4.746   7.167  0.6666 -0.9971 -1.5764
   46CHL1   H1B 3376   5.578   4.614   7.094  0.2254 -0.9826 -0.5272
   46CHL1    C2 3377   5.622   4.785   6.962 -0.0321  0.1832 -0.8259
   46CHL1   H2A 3378   5.717   4.741   6.927 -0.0428  1.5064 -2.6824
   46CHL1   H2B 3379   5.642   4.895   6.967  1.2813 -0.0888  0.6145
   46CHL1   C20 3380   5.273   4.639   7.836 -0.1932 -0.3632 -0.3007
   46CHL1   H20 3381   5.264   4.748   7.853  2.5247  0.4412 -3.1155
   46CHL1   C21 3382   5.423   4.617   7.875 -0.0478  0.2482  0.3285
   46CHL1  H21A 3383   5.456   4.523   7.825  0.5851  0.1284  0.9585
   46CHL1  H21B 3384   5.438   4.617   7.985 -0.9240 -0.5586  0.4653
   46CHL1  H21C 3385   5.475   4.700   7.823 -1.7038  1.0883 -0.0199
   46CHL1   C22 3386   5.168   4.560   7.932 -0.2982  0.0224 -1.1380
   46CHL1  H22A 3387   5.072   4.545   7.878 -0.8527  2.8496 -1.1044
   46CHL1  H22B 3388   5.218   4.465   7.961 -0.0630  0.8427  1.4503
   46CHL1   C23 3389   5.136   4.632   8.066  0.2394 -0.0460 -0.7655
   46CHL1  H23A 3390   5.104   4.563   8.146 -1.0965 -1.1682 -2.2219
   46CHL1  H23B 3391   5.231   4.685   8.089 -0.5328  0.6268  1.1080
   46CHL1   C24 3392   5.019   4.731   8.040 -0.4167  0.8222 -0.6422
   46CHL1  H24A 3393   5.049   4.792   7.952  1.1690 -0.8364 -1.3051
   46CHL1  H24B 3394   4.919   4.684   8.028  0.5438 -1.4836 -0.2340
   46CHL1   C25 3395   5.015   4.843   8.154 -0.1406  0.2603  0.0587
   46CHL1   H25 3396   5.123   4.868   8.161  0.3275 -1.2200 -1.3718
   46CHL1   C26 3397   4.923   4.958   8.122  0.6980  0.4018 -0.1607
   46CHL1  H26A 3398   4.817   4.927   8.127  0.8210  0.1419  1.5576
   46CHL1  H26B 3399   4.930   5.040   8.198  0.5247 -1.4859  2.0055
   46CHL1  H26C 3400   4.949   4.999   8.023 -0.0881  0.6805 -0.2608
   46CHL1   C27 3401   4.985   4.775   8.295  0.6128  0.3402 -0.0288
   46CHL1  H27A 3402   4.894   4.711   8.292  0.3606  0.7030 -0.2369
   46CHL1  H27B 3403   5.062   4.698   8.314 -0.6789 -0.4098  2.4670
   46CHL1  H27C 3404   4.987   4.851   8.376  0.8936 -1.8526  2.1394
   47CHL1    C3 3405   5.872   3.886   6.602 -0.1225 -0.4502  0.2001
   47CHL1    H3 3406   5.961   3.819   6.607  1.4874  1.6087  0.4416
   47CHL1    O3 3407   5.837   3.926   6.471  0.6310 -0.2000 -0.0417
   47CHL1   H3' 3408   5.744   3.946   6.474  0.5933 -0.0742 -1.4134
   47CHL1    C4 3409   5.754   3.803   6.657  0.3490  0.3624  0.0431
   47CHL1   H4A 3410   5.664   3.868   6.659  1.2384  1.6882 -0.9912
   47CHL1   H4B 3411   5.731   3.722   6.585 -1.4889  0.7692  0.1130
   47CHL1    C5 3412   5.784   3.761   6.798 -0.3673 -0.1589 -0.7559
   47CHL1    C6 3413   5.783   3.630   6.839 -0.4641  0.1885 -0.3633
   47CHL1    H6 3414   5.760   3.548   6.770  0.4668  0.9760 -1.6566
   47CHL1    C7 3415   5.809   3.586   6.980 -0.2634 -0.3016 -0.5600
   47CHL1   H7A 3416   5.732   3.513   7.010 -1.2243  0.7813 -0.3225
   47CHL1   H7B 3417   5.914   3.551   6.990 -0.2378 -0.6686 -1.9573
   47CHL1    C8 3418   5.798   3.705   7.086 -0.0230  0.1519 -0.1421
   47CHL1    H8 3419   5.689   3.726   7.084 -0.5086 -1.7673  1.8341
   47CHL1   C14 3420   5.845   3.662   7.223  0.6340 -0.5653  0.3721
   47CHL1   H14 3421   5.943   3.620   7.193  0.7286  0.0498 -0.1973
   47CHL1   C15 3422   5.774   3.550   7.288  0.6128  0.2835 -0.1026
   47CHL1  H15A 3423   5.664   3.557   7.288  0.5960  0.1473 -1.1018
   47CHL1  H15B 3424   5.811   3.463   7.231  0.1612  0.1282 -0.1567
   47CHL1   C16 3425   5.826   3.560   7.435  0.3529  0.1662 -0.9494
   47CHL1  H16A 3426   5.748   3.559   7.514  2.2938  1.1994  1.0732
   47CHL1  H16B 3427   5.884   3.466   7.444 -0.9604 -0.6668 -0.9286
   47CHL1   C17 3428   5.900   3.702   7.444  0.6543 -0.2953 -0.8139
   47CHL1   H17 3429   6.009   3.687   7.430  1.0437  1.7627 -0.3473
   47CHL1   C13 3430   5.865   3.776   7.320 -0.6872  0.0363  0.2105
   47CHL1   C18 3431   5.732   3.844   7.340  0.0265  0.4476  0.1370
   47CHL1  H18A 3432   5.659   3.773   7.385  2.6583 -1.2686  1.9973
   47CHL1  H18B 3433   5.750   3.939   7.395  0.6944  1.4286 -1.7024
   47CHL1  H18C 3434   5.700   3.878   7.239  1.0057 -0.3090 -0.4427
   47CHL1   C12 3435   5.969   3.876   7.264 -0.1892  0.8767 -1.0272
   47CHL1  H12A 3436   5.973   3.965   7.330 -0.3036  0.1523 -0.0307
   47CHL1  H12B 3437   6.066   3.823   7.250 -2.0010 -2.5574 -1.3762
   47CHL1   C11 3438   5.928   3.933   7.129  0.1637  0.0752  0.5030
   47CHL1  H11A 3439   5.847   4.003   7.158  1.1726  0.9207  1.3983
   47CHL1  H11B 3440   6.015   3.993   7.093 -0.0344  0.3374  0.4598
   47CHL1    C9 3441   5.887   3.823   7.030  0.0750 -0.2447 -0.2012
   47CHL1    H9 3442   5.988   3.780   7.009  0.3423  0.2814 -0.0146
   47CHL1   C10 3443   5.827   3.878   6.899  0.6552  0.0316  0.3521
   47CHL1   C19 3444   5.705   3.967   6.932  0.6222  1.0355 -0.0350
   47CHL1  H19A 3445   5.726   4.071   6.967 -0.2619  1.2955 -0.2417
   47CHL1  H19B 3446   5.655   4.001   6.838 -1.0545  0.6989  0.7082
   47CHL1  H19C 3447   5.632   3.920   7.001  0.3401  0.9168 -0.4104
   47CHL1    C1 3448   5.935   3.964   6.835  0.2020 -0.9813 -0.0597
   47CHL1   H1A 3449   5.953   4.055   6.897 -0.5122 -0.2985 -0.8201
   47CHL1   H1B 3450   6.025   3.899   6.831 -0.2904 -1.8235  1.7793
   47CHL1    C2 3451   5.907   4.011   6.687 -0.0367  0.5322  0.2950
   47CHL1   H2A 3452   6.004   4.049   6.649  1.1788 -1.7360  0.9459
   47CHL1   H2B 3453   5.831   4.092   6.691  0.7944  1.4808 -1.7241
   47CHL1   C20 3454   5.882   3.766   7.588  0.5362  0.3481 -0.1407
   47CHL1   H20 3455   5.773   3.785   7.599  0.6199  2.0671 -1.8449
   47CHL1   C21 3456   5.943   3.902   7.590  0.1929  0.5747 -0.2264
   47CHL1  H21A 3457   6.050   3.894   7.562 -0.4899 -0.3250 -2.8295
   47CHL1  H21B 3458   5.933   3.939   7.694 -3.1486 -2.9191  0.9481
   47CHL1  H21C 3459   5.899   3.984   7.530 -0.8945 -0.2716 -0.6225
   47CHL1   C22 3460   5.927   3.683   7.713 -0.0136 -0.2479 -0.5195
   47CHL1  H22A 3461   5.887   3.738   7.800 -2.3965 -1.9220 -0.4779
   47CHL1  H22B 3462   5.884   3.581   7.717 -1.8428  0.3991 -2.0170
   47CHL1   C23 3463   6.076   3.674   7.731 -0.4388 -0.0073 -0.6813
   47CHL1  H23A 3464   6.107   3.617   7.641 -0.4225  0.1759 -0.7931
   47CHL1  H23B 3465   6.124   3.774   7.734 -1.8775  0.6873  0.0028
   47CHL1   C24 3466   6.121   3.598   7.859 -0.4953  0.9567 -0.3355
   47CHL1  H24A 3467   6.096   3.649   7.954  1.2845  1.0859  0.1014
   47CHL1  H24B 3468   6.059   3.506   7.862 -0.6453  1.0809  2.8434
   47CHL1   C25 3469   6.275   3.569   7.865 -0.6727 -0.7014  0.6779
   47CHL1   H25 3470   6.303   3.520   7.769  1.1059  0.6342  0.4617
   47CHL1   C26 3471   6.366   3.687   7.882  0.2463 -0.6226 -0.0355
   47CHL1  H26A 3472   6.472   3.653   7.884  0.2175 -0.7244  2.8501
   47CHL1  H26B 3473   6.361   3.760   7.798  2.1516  0.6466  0.8765
   47CHL1  H26C 3474   6.343   3.757   7.965 -0.1855  0.9435 -1.4235
   47CHL1   C27 3475   6.305   3.484   7.993 -0.1395  0.7495  0.7256
   47CHL1  H27A 3476   6.415   3.477   8.002 -0.1461 -0.7770 -0.0432
   47CHL1  H27B 3477   6.261   3.550   8.071 -0.6943  1.6910 -0.3484
   47CHL1  H27C 3478   6.252   3.386   8.001  0.1282  0.5930  0.5652
   48CHL1    C3 3479   6.703   1.627   6.534  0.8382  0.0773  0.4590
   48CHL1    H3 3480   6.593   1.613   6.524  1.2420 -1.8404 -2.5992
   48CHL1    O3 3481   6.761   1.595   6.414 -0.1034  0.1327 -0.2039
   48CHL1   H3' 3482   6.850   1.630   6.413  0.0479 -0.2099 -1.9573
   48CHL1    C4 3483   6.744   1.764   6.560  0.1795 -0.8280 -0.7251
   48CHL1   H4A 3484   6.855   1.764   6.572  0.0706  2.8620  1.9643
   48CHL1   H4B 3485   6.733   1.827   6.469  1.1355 -0.2460 -0.4481
   48CHL1    C5 3486   6.691   1.825   6.691  0.1879  0.4033 -0.4502
   48CHL1    C6 3487   6.605   1.930   6.684 -0.3617 -1.0005 -0.0110
   48CHL1    H6 3488   6.569   1.970   6.588 -1.1174 -0.8225  0.3459
   48CHL1    C7 3489   6.551   1.989   6.813  0.0117  1.5414  0.4320
   48CHL1   H7A 3490   6.562   2.099   6.823  0.0623  1.3948  2.2980
   48CHL1   H7B 3491   6.446   1.957   6.826  0.0843  1.7441  1.6114
   48CHL1    C8 3492   6.620   1.935   6.940 -0.0456  0.2704  0.1332
   48CHL1    H8 3493   6.714   1.995   6.934 -0.7665  1.4458  0.2098
   48CHL1   C14 3494   6.529   1.969   7.064  0.2081 -0.6521 -0.6863
   48CHL1   H14 3495   6.437   1.908   7.051 -1.3170  1.4343 -0.3191
   48CHL1   C15 3496   6.472   2.109   7.084 -0.5299 -0.1260  0.0096
   48CHL1  H15A 3497   6.560   2.177   7.086 -0.8320  0.3231 -1.1414
   48CHL1  H15B 3498   6.398   2.132   7.004 -0.6568  1.0167  0.4400
   48CHL1   C16 3499   6.416   2.109   7.229  0.1224 -0.2400 -0.2816
   48CHL1  H16A 3500   6.435   2.207   7.278 -0.9971 -0.6047  0.9294
   48CHL1  H16B 3501   6.306   2.102   7.211  0.4243 -0.7261 -2.1649
   48CHL1   C17 3502   6.465   1.973   7.297 -0.2184 -0.4335 -0.0562
   48CHL1   H17 3503   6.382   1.900   7.287 -1.0687  0.2229  1.7364
   48CHL1   C13 3504   6.578   1.925   7.199  0.5521  0.1797 -0.0192
   48CHL1   C18 3505   6.713   1.993   7.243  0.3477 -0.0755  0.1165
   48CHL1  H18A 3506   6.712   2.102   7.266  1.3631 -0.1602  0.6453
   48CHL1  H18B 3507   6.753   1.949   7.337  0.5275  3.7380  2.0217
   48CHL1  H18C 3508   6.784   1.972   7.161 -0.9781 -1.2655 -0.7678
   48CHL1   C12 3509   6.598   1.780   7.194  0.1983  1.0425  0.3407
   48CHL1  H12A 3510   6.643   1.748   7.290 -3.0678 -0.6845  1.4474
   48CHL1  H12B 3511   6.498   1.731   7.194 -0.1456  1.7135 -0.2496
   48CHL1   C11 3512   6.677   1.725   7.073 -0.1172 -0.0669  0.1951
   48CHL1  H11A 3513   6.783   1.758   7.085 -0.0860  0.0731 -0.4347
   48CHL1  H11B 3514   6.670   1.614   7.076  0.5034 -0.1104  0.2742
   48CHL1    C9 3515   6.640   1.784   6.930  0.2149 -0.0161  0.0481
   48CHL1    H9 3516   6.540   1.743   6.903 -0.0359  1.3132 -1.1554
   48CHL1   C10 3517   6.732   1.742   6.816  0.2515  0.0945  0.0530
   48CHL1   C19 3518   6.879   1.778   6.854 -0.4495 -0.4387  0.2779
   48CHL1  H19A 3519   6.942   1.726   6.778 -1.4556 -0.1690 -0.7608
   48CHL1  H19B 3520   6.884   1.889   6.858 -2.4884 -0.3236  0.6058
   48CHL1  H19C 3521   6.918   1.738   6.950  0.8997  1.6478  0.6640
   48CHL1    C1 3522   6.710   1.592   6.790  0.1095  0.5778 -0.2845
   48CHL1   H1A 3523   6.762   1.524   6.861 -1.1624  0.7643  0.8725
   48CHL1   H1B 3524   6.602   1.572   6.803  0.2597 -0.4641 -0.5927
   48CHL1    C2 3525   6.756   1.545   6.650  0.9799  0.3194  1.2363
   48CHL1   H2A 3526   6.727   1.439   6.637  2.1222  0.0367  0.9261
   48CHL1   H2B 3527   6.866   1.548   6.637  0.6104  1.1448 -3.1840
   48CHL1   C20 3528   6.494   1.989   7.447 -0.4854 -0.2910  0.1777
   48CHL1   H20 3529   6.569   2.072   7.454 -0.0874 -0.4618 -1.5088
   48CHL1   C21 3530   6.551   1.875   7.525 -0.2720  0.6742  0.4206
   48CHL1  H21A 3531   6.656   1.847   7.500 -0.5697 -0.2832  0.2185
   48CHL1  H21B 3532   6.493   1.784   7.500 -2.5259  1.5860  2.0171
   48CHL1  H21C 3533   6.539   1.893   7.634  1.2791  1.2334  0.5326
   48CHL1   C22 3534   6.367   2.036   7.520 -0.4554  0.3746  0.1485
   48CHL1  H22A 3535   6.297   2.098   7.460  0.1756  1.6042  0.6427
   48CHL1  H22B 3536   6.311   1.941   7.533 -0.2005  0.0663 -0.9119
   48CHL1   C23 3537   6.381   2.122   7.641  0.2409 -0.3305 -0.0573
   48CHL1  H23A 3538   6.409   2.071   7.735 -0.7357  1.5795  1.3489
   48CHL1  H23B 3539   6.457   2.198   7.614  1.7659 -2.9849 -4.3506
   48CHL1   C24 3540   6.252   2.189   7.686 -0.0867 -0.1704 -0.0719
   48CHL1  H24A 3541   6.239   2.270   7.611  0.4671 -2.4124 -2.7480
   48CHL1  H24B 3542   6.163   2.125   7.671 -0.8508  1.0186 -0.7610
   48CHL1   C25 3543   6.258   2.259   7.830  0.2724  0.0111  0.5288
   48CHL1   H25 3544   6.352   2.318   7.835  0.0944  0.8186 -2.9097
   48CHL1   C26 3545   6.141   2.350   7.850  0.5049 -0.4763 -0.0586
   48CHL1  H26A 3546   6.041   2.302   7.842 -0.2568  0.7596  1.5355
   48CHL1  H26B 3547   6.149   2.388   7.954  0.5633  1.2594 -0.6532
   48CHL1  H26C 3548   6.154   2.429   7.773 -0.0892  1.1815  1.4760
   48CHL1   C27 3549   6.250   2.153   7.937 -0.6386  0.4457  0.6520
   48CHL1  H27A 3550   6.174   2.078   7.908  0.0933  0.2625 -0.8761
   48CHL1  H27B 3551   6.346   2.100   7.949 -1.6027 -1.8558 -1.1513
   48CHL1  H27C 3552   6.241   2.198   8.039  1.8003 -2.0809  2.1321
   49CHL1    C3 3553   6.658   1.132   6.885 -0.4419  0.1784  0.1377
   49CHL1    H3 3554   6.744   1.063   6.895 -0.2455  0.2185 -1.1235
   49CHL1    O3 3555   6.624   1.143   6.749 -0.4655  0.3405  0.4073
   49CHL1   H3' 3556   6.554   1.209   6.752 -0.8217 -0.0460  0.7777
   49CHL1    C4 3557   6.543   1.078   6.963  0.4329  0.1967  0.3643
   49CHL1   H4A 3558   6.455   1.140   6.936  0.0175 -1.3058 -2.0934
   49CHL1   H4B 3559   6.528   0.983   6.907 -0.9877  2.1532 -2.8215
   49CHL1    C5 3560   6.563   1.076   7.114  0.0165  0.1270  0.2619
   49CHL1    C6 3561   6.530   0.962   7.179  0.2905 -0.0128 -0.6752
   49CHL1    H6 3562   6.494   0.876   7.119 -1.6441  1.5574 -1.8845
   49CHL1    C7 3563   6.544   0.956   7.329 -0.3125 -0.7056  0.5147
   49CHL1   H7A 3564   6.453   0.922   7.383 -2.4465  2.8825 -0.4784
   49CHL1   H7B 3565   6.633   0.902   7.368  0.8587  2.1944  2.1391
   49CHL1    C8 3566   6.548   1.100   7.393 -0.6248 -0.1558  0.9017
   49CHL1    H8 3567   6.442   1.133   7.387 -1.2650 -1.9765  1.6591
   49CHL1   C14 3568   6.585   1.091   7.543  0.5227  0.3610 -0.5768
   49CHL1   H14 3569   6.687   1.048   7.544  1.1203  1.5924  2.3071
   49CHL1   C15 3570   6.508   0.998   7.637  0.2797  0.1810 -0.1356
   49CHL1  H15A 3571   6.399   1.021   7.631  0.0760 -1.1018 -3.1965
   49CHL1  H15B 3572   6.520   0.892   7.606  1.8024  0.1521  0.4919
   49CHL1   C16 3573   6.570   1.031   7.774 -0.2522  0.1533 -0.5196
   49CHL1  H16A 3574   6.491   1.017   7.851  1.9416  0.0178  1.8523
   49CHL1  H16B 3575   6.655   0.960   7.787 -1.3986 -1.2572 -0.5683
   49CHL1   C17 3576   6.632   1.177   7.762 -0.0456  0.1872 -0.2591
   49CHL1   H17 3577   6.743   1.173   7.772 -0.2773 -2.8744  2.7636
   49CHL1   C13 3578   6.597   1.222   7.618 -0.0034  0.1396  0.5781
   49CHL1   C18 3579   6.452   1.287   7.629 -0.1016  0.3400  0.6001
   49CHL1  H18A 3580   6.427   1.305   7.522  4.1091  0.6426 -0.5102
   49CHL1  H18B 3581   6.373   1.223   7.675  0.7885 -2.1581 -1.1213
   49CHL1  H18C 3582   6.462   1.385   7.681  0.0032  1.1780 -0.9585
   49CHL1   C12 3583   6.702   1.309   7.545  0.5141  0.6142 -0.2033
   49CHL1  H12A 3584   6.718   1.403   7.602 -0.2973  0.0255  1.0368
   49CHL1  H12B 3585   6.793   1.247   7.529 -1.1851 -1.6302 -1.7960
   49CHL1   C11 3586   6.661   1.335   7.399  0.3797 -1.0115 -0.3850
   49CHL1  H11A 3587   6.565   1.391   7.402  0.4607 -0.5469 -3.2517
   49CHL1  H11B 3588   6.744   1.396   7.356  1.3999 -1.3539  1.0138
   49CHL1    C9 3589   6.640   1.197   7.322  0.6894  0.2168 -0.2443
   49CHL1    H9 3590   6.741   1.153   7.314 -0.1646 -1.5382 -3.9074
   49CHL1   C10 3591   6.609   1.215   7.173 -0.4400  0.3340  0.0395
   49CHL1   C19 3592   6.495   1.324   7.164  0.2193  0.7056  0.5282
   49CHL1  H19A 3593   6.458   1.331   7.059  0.6498  0.0113  0.3234
   49CHL1  H19B 3594   6.405   1.293   7.222  0.7664  0.9278  1.5148
   49CHL1  H19C 3595   6.525   1.424   7.202 -0.9604  0.6816  1.5937
   49CHL1    C1 3596   6.736   1.259   7.087  0.4966  0.5647 -0.1680
   49CHL1   H1A 3597   6.764   1.360   7.122 -0.2170  1.1376 -1.1791
   49CHL1   H1B 3598   6.823   1.193   7.106  0.2451  0.4374  0.5894
   49CHL1    C2 3599   6.707   1.268   6.937 -0.2695  0.0147  0.7269
   49CHL1   H2A 3600   6.802   1.289   6.882 -1.4531  3.0824 -0.3719
   49CHL1   H2B 3601   6.639   1.355   6.923 -0.9283 -0.6327 -0.2102
   49CHL1   C20 3602   6.589   1.262   7.883  1.1076  0.3537 -0.1108
   49CHL1   H20 3603   6.477   1.264   7.882  1.1156  0.6073 -0.8269
   49CHL1   C21 3604   6.646   1.402   7.872 -0.3653 -0.4824  0.4650
   49CHL1  H21A 3605   6.753   1.403   7.845 -0.3540  2.1561  0.3799
   49CHL1  H21B 3606   6.649   1.456   7.968  3.1015 -1.0331  0.7785
   49CHL1  H21C 3607   6.587   1.466   7.803  3.3772  0.4780 -2.1260
   49CHL1   C22 3608   6.640   1.197   8.013  0.5336 -0.2352 -0.3246
   49CHL1  H22A 3609   6.574   1.109   8.031 -1.2972  0.5593 -2.6271
   49CHL1  H22B 3610   6.744   1.161   8.003  0.5294 -0.1930 -0.5126
   49CHL1   C23 3611   6.633   1.280   8.137 -0.2602  0.0992 -0.0621
   49CHL1  H23A 3612   6.735   1.319   8.159 -0.9066  1.5152  0.5912
   49CHL1  H23B 3613   6.566   1.367   8.119  1.0619  1.2292  0.2831
   49CHL1   C24 3614   6.591   1.209   8.264  0.8022  0.5878 -0.7393
   49CHL1  H24A 3615   6.480   1.204   8.264  0.8656 -1.5715 -0.4719
   49CHL1  H24B 3616   6.617   1.101   8.261 -1.9971 -0.1853 -0.4231
   49CHL1   C25 3617   6.623   1.274   8.387 -0.1393 -0.8385 -0.3528
   49CHL1   H25 3618   6.594   1.381   8.395  1.3026 -0.4107 -0.5966
   49CHL1   C26 3619   6.536   1.214   8.495 -0.0805  0.2704 -1.0086
   49CHL1  H26A 3620   6.577   1.248   8.592 -1.4672  1.8410 -0.9460
   49CHL1  H26B 3621   6.433   1.255   8.490  0.1147  1.3309  1.9378
   49CHL1  H26C 3622   6.539   1.103   8.492 -1.5416  0.1449  0.9047
   49CHL1   C27 3623   6.768   1.256   8.422 -0.9481  0.0853  0.9763
   49CHL1  H27A 3624   6.825   1.335   8.369 -1.3128  0.4966  1.1922
   49CHL1  H27B 3625   6.773   1.277   8.531 -0.1044  1.5201  0.6932
   49CHL1  H27C 3626   6.800   1.153   8.396 -1.7071  0.2441 -0.7077
   50CHL1    C3 3627   2.380   3.510   6.770  0.2719 -0.2238 -0.7688
   50CHL1    H3 3628   2.481   3.554   6.763  0.4679 -0.1005  1.8760
   50CHL1    O3 3629   2.329   3.494   6.642 -0.3765  0.0602 -0.1143
   50CHL1   H3' 3630   2.263   3.424   6.647 -0.7588  0.4681  0.6296
   50CHL1    C4 3631   2.401   3.376   6.837 -0.6423 -0.2794 -0.2208
   50CHL1   H4A 3632   2.306   3.321   6.822  0.0358 -1.0364 -1.9946
   50CHL1   H4B 3633   2.483   3.335   6.775 -0.5077 -0.5092  0.1097
   50CHL1    C5 3634   2.449   3.396   6.979  0.5808 -0.1889 -0.4664
   50CHL1    C6 3635   2.562   3.336   7.019  0.3058  0.8830 -1.7670
   50CHL1    H6 3636   2.602   3.257   6.954 -0.5796  2.1557 -3.9626
   50CHL1    C7 3637   2.619   3.335   7.164  0.1889  0.6234  0.6729
   50CHL1   H7A 3638   2.632   3.232   7.204 -0.5432  0.6182  0.9258
   50CHL1   H7B 3639   2.719   3.383   7.159  1.1978 -1.3410  0.7089
   50CHL1    C8 3640   2.527   3.408   7.266 -0.2900 -0.4600 -0.4176
   50CHL1    H8 3641   2.449   3.334   7.294 -0.2602 -0.8613 -1.3731
   50CHL1   C14 3642   2.612   3.450   7.382 -0.3374  0.4555  0.6109
   50CHL1   H14 3643   2.685   3.528   7.351  0.5484 -0.6898 -0.2674
   50CHL1   C15 3644   2.702   3.346   7.452  0.5615  0.8710 -0.1781
   50CHL1  H15A 3645   2.640   3.254   7.460 -2.5726  2.8073 -0.4572
   50CHL1  H15B 3646   2.798   3.329   7.399  1.0425  2.2255  0.2284
   50CHL1   C16 3647   2.731   3.404   7.583 -0.0743  0.0049 -1.1267
   50CHL1  H16A 3648   2.713   3.338   7.670  1.8583  1.5431  0.5426
   50CHL1  H16B 3649   2.837   3.435   7.582 -0.4339  1.5554  1.3782
   50CHL1   C17 3650   2.643   3.532   7.595 -0.1922 -0.3484 -0.2646
   50CHL1   H17 3651   2.711   3.613   7.561  1.1707 -2.8983 -4.1960
   50CHL1   C13 3652   2.532   3.518   7.490 -0.2436 -0.2384 -0.5058
   50CHL1   C18 3653   2.420   3.427   7.544 -0.1569 -0.2208 -0.5023
   50CHL1  H18A 3654   2.347   3.388   7.470 -0.5291  0.0253 -0.2699
   50CHL1  H18B 3655   2.470   3.339   7.590 -0.4092  0.3423  0.9299
   50CHL1  H18C 3656   2.363   3.486   7.619  1.1685  0.3725  0.0755
   50CHL1   C12 3657   2.486   3.646   7.433 -0.2420  0.4819  0.4357
   50CHL1  H12A 3658   2.413   3.700   7.498 -1.5060 -0.9768  0.2765
   50CHL1  H12B 3659   2.561   3.714   7.388 -0.7026  1.0979  0.5815
   50CHL1   C11 3660   2.391   3.614   7.307 -0.0926  0.2895  0.3957
   50CHL1  H11A 3661   2.300   3.562   7.345 -0.7435  0.6500 -0.6437
   50CHL1  H11B 3662   2.346   3.701   7.255 -0.2812 -1.0260 -1.7982
   50CHL1    C9 3663   2.463   3.531   7.204  0.0604 -0.6131 -0.4459
   50CHL1    H9 3664   2.549   3.594   7.172  1.7719 -1.1099  2.6986
   50CHL1   C10 3665   2.382   3.499   7.074  0.2801  0.2359  0.0402
   50CHL1   C19 3666   2.253   3.437   7.111  0.1696  0.1093  0.1658
   50CHL1  H19A 3667   2.269   3.343   7.168 -1.4733 -0.9037 -0.9442
   50CHL1  H19B 3668   2.188   3.506   7.169 -0.1034 -1.9041  2.4262
   50CHL1  H19C 3669   2.199   3.392   7.024  0.3280 -0.8348  0.5392
   50CHL1    C1 3670   2.352   3.625   6.997 -0.0510  0.8920 -0.3090
   50CHL1   H1A 3671   2.284   3.691   7.055  1.1477  0.8975  1.1476
   50CHL1   H1B 3672   2.442   3.687   6.977  0.1096  1.9320  2.9981
   50CHL1    C2 3673   2.295   3.604   6.856 -0.1161 -0.1122 -0.1291
   50CHL1   H2A 3674   2.288   3.702   6.804 -2.4825  0.0725  0.4211
   50CHL1   H2B 3675   2.189   3.573   6.866 -0.1445 -0.0404 -0.2106
   50CHL1   C20 3676   2.614   3.558   7.747 -0.2117  0.0073 -0.0031
   50CHL1   H20 3677   2.549   3.472   7.773  2.6250 -2.2132  0.3329
   50CHL1   C21 3678   2.552   3.698   7.764  0.0902  0.9857 -0.1848
   50CHL1  H21A 3679   2.535   3.729   7.869 -1.8760 -0.0885 -0.1450
   50CHL1  H21B 3680   2.452   3.711   7.717  0.0398  0.5564 -0.1935
   50CHL1  H21C 3681   2.617   3.778   7.722  0.9800 -0.0162 -0.7703
   50CHL1   C22 3682   2.731   3.542   7.843 -0.2609  0.0359 -0.0980
   50CHL1  H22A 3683   2.799   3.456   7.826 -0.1686 -0.0043  0.4468
   50CHL1  H22B 3684   2.795   3.632   7.836 -0.7494  0.3818 -0.1469
   50CHL1   C23 3685   2.679   3.527   7.988  0.1921  0.4904  0.1003
   50CHL1  H23A 3686   2.752   3.577   8.056 -0.6716  2.1616 -0.1465
   50CHL1  H23B 3687   2.582   3.577   8.010 -0.1232  0.1493 -0.5156
   50CHL1   C24 3688   2.642   3.390   8.048 -0.6633  0.2844 -0.3289
   50CHL1  H24A 3689   2.609   3.318   7.970 -0.5746 -1.3354  1.0666
   50CHL1  H24B 3690   2.724   3.353   8.114  1.1406  0.5759 -2.2838
   50CHL1   C25 3691   2.520   3.396   8.141  0.7692 -0.2083 -1.2769
   50CHL1   H25 3692   2.525   3.494   8.192  1.2166  0.0854 -1.8711
   50CHL1   C26 3693   2.385   3.382   8.060 -0.4677  0.6702  0.0006
   50CHL1  H26A 3694   2.389   3.289   8.000  0.1598  0.8376 -0.2162
   50CHL1  H26B 3695   2.296   3.390   8.127  1.3814  1.8519  2.5127
   50CHL1  H26C 3696   2.373   3.467   7.990 -1.9027  0.6886  0.2408
   50CHL1   C27 3697   2.530   3.282   8.247 -0.4755  0.1875  0.1300
   50CHL1  H27A 3698   2.551   3.182   8.203 -1.1468  0.2305 -0.2985
   50CHL1  H27B 3699   2.619   3.302   8.311 -0.0792 -0.2673 -0.2713
   50CHL1  H27C 3700   2.437   3.279   8.307 -2.1009  0.0845 -2.2528
   51CHL1    C3 3701   1.367   0.766   6.989 -0.1270 -0.3974 -0.2833
   51CHL1    H3 3702   1.369   0.873   6.958 -2.5002 -0.3259 -0.3855
   51CHL1    O3 3703   1.338   0.698   6.873 -0.2388  0.0197  0.3209
   51CHL1   H3' 3704   1.343   0.777   6.818  0.4629  0.8461  1.5457
   51CHL1    C4 3705   1.495   0.713   7.055 -0.3857  0.0605  0.4609
   51CHL1   H4A 3706   1.490   0.602   7.045  1.0512  0.0003  0.1994
   51CHL1   H4B 3707   1.578   0.736   6.985  0.7575 -0.6155  1.5461
   51CHL1    C5 3708   1.536   0.780   7.185  0.0748  0.2965 -0.3235
   51CHL1    C6 3709   1.648   0.843   7.214 -0.3531  0.2932 -0.2843
   51CHL1    H6 3710   1.721   0.858   7.133 -0.1283  1.5423  0.1286
   51CHL1    C7 3711   1.682   0.905   7.351 -0.5347 -0.0795  0.0730
   51CHL1   H7A 3712   1.784   0.884   7.389 -0.1052  2.2963  0.3993
   51CHL1   H7B 3713   1.658   1.013   7.338  0.9673  0.0631 -1.8432
   51CHL1    C8 3714   1.597   0.842   7.468 -0.1417 -0.6127 -0.6771
   51CHL1    H8 3715   1.637   0.740   7.488 -0.4428 -0.3086  1.8382
   51CHL1   C14 3716   1.605   0.920   7.599  0.4319  0.1098 -0.3362
   51CHL1   H14 3717   1.544   1.010   7.578 -0.3034  0.0767  1.4657
   51CHL1   C15 3718   1.741   0.960   7.662  0.5026 -0.2106 -0.3024
   51CHL1  H15A 3719   1.789   0.862   7.682  1.5646  0.1961 -0.7568
   51CHL1  H15B 3720   1.796   1.022   7.588  0.5241  0.4292  0.2378
   51CHL1   C16 3721   1.695   1.030   7.788  0.6424 -0.4139 -0.2857
   51CHL1  H16A 3722   1.763   1.012   7.875  4.0358 -2.0372 -3.0303
   51CHL1  H16B 3723   1.690   1.138   7.761 -0.0367  0.0456  1.5169
   51CHL1   C17 3724   1.554   0.969   7.823  0.3065 -0.4473  0.8686
   51CHL1   H17 3725   1.485   1.053   7.801 -2.4915 -3.3136 -2.3769
   51CHL1   C13 3726   1.523   0.866   7.717  0.1525 -0.0664 -1.2723
   51CHL1   C18 3727   1.573   0.718   7.760 -0.0225  0.6470 -0.1264
   51CHL1  H18A 3728   1.510   0.672   7.840 -2.3944  1.7481 -1.2836
   51CHL1  H18B 3729   1.579   0.650   7.673  4.8677  1.2828 -0.5539
   51CHL1  H18C 3730   1.677   0.721   7.800 -0.3909  2.1165  0.7847
   51CHL1   C12 3731   1.372   0.857   7.667 -0.3506 -0.5653  0.1917
   51CHL1  H12A 3732   1.308   0.806   7.742 -1.5499 -2.1086 -1.7978
   51CHL1  H12B 3733   1.327   0.959   7.670 -0.5433 -0.6628  0.6745
   51CHL1   C11 3734   1.360   0.779   7.534  0.2680  0.1278  0.5646
   51CHL1  H11A 3735   1.379   0.675   7.568 -0.0267 -0.5555 -1.2911
   51CHL1  H11B 3736   1.254   0.786   7.501 -0.2460  0.4502  2.1752
   51CHL1    C9 3737   1.446   0.830   7.419  0.2028  0.0583  1.4888
   51CHL1    H9 3738   1.410   0.932   7.392 -0.7649 -1.1362 -2.4280
   51CHL1   C10 3739   1.425   0.752   7.288  0.0266 -0.5291  0.4708
   51CHL1   C19 3740   1.426   0.602   7.316 -0.8367  0.3555 -1.3117
   51CHL1  H19A 3741   1.506   0.580   7.390 -1.0350  2.2157 -0.4967
   51CHL1  H19B 3742   1.331   0.574   7.366  0.2305  1.9962  1.8758
   51CHL1  H19C 3743   1.445   0.529   7.234 -0.2677 -0.1710 -0.7226
   51CHL1    C1 3744   1.295   0.798   7.224  0.2654  0.0476 -0.1161
   51CHL1   H1A 3745   1.215   0.775   7.297 -0.8455  1.5282 -0.8284
   51CHL1   H1B 3746   1.295   0.909   7.216 -2.3520  0.3059  1.9752
   51CHL1    C2 3747   1.255   0.749   7.090 -0.1627  0.5444 -0.0031
   51CHL1   H2A 3748   1.168   0.797   7.041 -0.6755  0.2935  0.6530
   51CHL1   H2B 3749   1.231   0.641   7.098 -0.0429  0.5740  0.7892
   51CHL1   C20 3750   1.535   0.930   7.972 -0.2952 -0.2006  0.0716
   51CHL1   H20 3751   1.601   0.845   7.999 -0.4276 -0.6925 -1.1143
   51CHL1   C21 3752   1.384   0.890   8.004 -1.0245 -0.6997 -0.4689
   51CHL1  H21A 3753   1.310   0.948   7.944  0.1029 -1.0405 -2.2567
   51CHL1  H21B 3754   1.371   0.911   8.112  4.2561  0.3060  0.2120
   51CHL1  H21C 3755   1.373   0.785   7.971 -2.0817 -0.7979  0.1438
   51CHL1   C22 3756   1.583   1.043   8.067 -0.8282 -0.0305 -0.5581
   51CHL1  H22A 3757   1.684   1.080   8.040 -0.5429 -0.6592 -0.3726
   51CHL1  H22B 3758   1.514   1.129   8.058  0.3499  1.1570  1.0122
   51CHL1   C23 3759   1.603   0.992   8.215 -0.4996 -0.4509  0.0814
   51CHL1  H23A 3760   1.613   1.076   8.288 -0.9377 -0.2177 -0.1174
   51CHL1  H23B 3761   1.517   0.932   8.252 -0.3740  0.1626  1.4465
   51CHL1   C24 3762   1.735   0.913   8.237 -0.1107 -0.3542 -0.1716
   51CHL1  H24A 3763   1.735   0.830   8.164  1.4847 -1.4906  1.0493
   51CHL1  H24B 3764   1.817   0.977   8.198  0.0706  1.1826  2.4665
   51CHL1   C25 3765   1.771   0.868   8.375 -0.0798 -0.3666  0.2100
   51CHL1   H25 3766   1.747   0.947   8.448 -3.1929 -1.4011  0.4636
   51CHL1   C26 3767   1.689   0.752   8.422 -0.2428 -0.6385 -0.1873
   51CHL1  H26A 3768   1.721   0.711   8.520 -1.8704 -1.1940  0.1251
   51CHL1  H26B 3769   1.580   0.773   8.419 -0.3250 -1.2154 -1.8773
   51CHL1  H26C 3770   1.698   0.667   8.351 -1.6889 -0.6745 -0.3477
   51CHL1   C27 3771   1.925   0.827   8.377  0.5923  0.0088  0.4043
   51CHL1  H27A 3772   1.948   0.780   8.475 -2.9606 -0.6912  1.0708
   51CHL1  H27B 3773   1.942   0.747   8.301  2.0024  0.1468  0.5605
   51CHL1  H27C 3774   1.986   0.917   8.357  2.2851 -0.9815  0.9740
   52CHL1    C3 3775   2.916   5.032   6.764  0.3486 -0.1155 -0.3547
   52CHL1    H3 3776   2.954   4.930   6.785 -1.8973 -1.4912 -2.4987
   52CHL1    O3 3777   2.915   5.067   6.629 -0.2243  0.0624  0.9314
   52CHL1   H3' 3778   2.992   5.028   6.586 -0.5235 -0.1035  0.5414
   52CHL1    C4 3779   2.773   5.043   6.826  0.9806 -0.3955 -0.0688
   52CHL1   H4A 3780   2.729   5.143   6.808  1.1972 -0.1999  0.4587
   52CHL1   H4B 3781   2.699   4.978   6.775 -0.3981 -0.1016  1.4943
   52CHL1    C5 3782   2.786   5.001   6.971 -0.5001 -0.9881 -0.0504
   52CHL1    C6 3783   2.714   4.906   7.024  0.3695 -0.5319  0.2614
   52CHL1    H6 3784   2.626   4.866   6.972 -0.9468 -0.0661  2.0299
   52CHL1    C7 3785   2.718   4.880   7.170  0.0287  0.5324 -0.6109
   52CHL1   H7A 3786   2.615   4.848   7.197 -0.1432  1.7070  0.2013
   52CHL1   H7B 3787   2.784   4.794   7.192  1.0273  1.4452  0.0298
   52CHL1    C8 3788   2.778   4.990   7.257 -0.2213  0.5198  0.5976
   52CHL1    H8 3789   2.711   5.078   7.260 -3.4975 -1.7150 -1.3623
   52CHL1   C14 3790   2.797   4.942   7.393 -0.1386  0.0749 -0.1357
   52CHL1   H14 3791   2.863   4.853   7.392  0.1357  0.2763  0.1715
   52CHL1   C15 3792   2.671   4.896   7.465  0.5184 -0.0109  0.6015
   52CHL1  H15A 3793   2.583   4.952   7.428  0.6961  1.2234  1.9486
   52CHL1  H15B 3794   2.649   4.790   7.440 -2.1543  0.2981  1.3562
   52CHL1   C16 3795   2.697   4.915   7.617  0.4787 -0.1213  0.7724
   52CHL1  H16A 3796   2.620   4.975   7.669 -0.0992 -1.7122  1.8511
   52CHL1  H16B 3797   2.706   4.819   7.673  1.0853 -0.5295 -0.0077
   52CHL1   C17 3798   2.838   4.983   7.623 -0.4092 -0.5935  0.3338
   52CHL1   H17 3799   2.910   4.899   7.623 -0.5824 -0.8426 -2.5709
   52CHL1   C13 3800   2.852   5.049   7.490 -1.2221 -0.5703 -0.3262
   52CHL1   C18 3801   2.774   5.183   7.494  0.5817 -0.1361  0.2001
   52CHL1  H18A 3802   2.663   5.177   7.500  0.4204  1.8356 -0.1843
   52CHL1  H18B 3803   2.821   5.247   7.571 -0.8114 -1.1029  1.9226
   52CHL1  H18C 3804   2.793   5.236   7.398 -0.4237  0.0720  0.1041
   52CHL1   C12 3805   2.996   5.072   7.441 -0.0621 -0.2288  0.8666
   52CHL1  H12A 3806   3.049   5.154   7.494  0.3399 -0.0518  0.2004
   52CHL1  H12B 3807   3.057   4.980   7.454 -1.0794 -0.8269  1.5566
   52CHL1   C11 3808   2.995   5.125   7.290 -0.3682 -0.0069 -0.2523
   52CHL1  H11A 3809   2.968   5.232   7.303  2.7665  0.7895  0.5412
   52CHL1  H11B 3810   3.100   5.117   7.255  0.1574 -0.2170  1.2783
   52CHL1    C9 3811   2.911   5.035   7.201 -0.3124 -0.5919  0.3901
   52CHL1    H9 3812   2.968   4.941   7.188 -0.1380 -0.5543  0.8669
   52CHL1   C10 3813   2.886   5.084   7.052  0.0561  0.1441 -0.1805
   52CHL1   C19 3814   2.838   5.230   7.066  0.5564 -0.7111  0.4846
   52CHL1  H19A 3815   2.926   5.294   7.088 -0.1938  0.7934 -0.6684
   52CHL1  H19B 3816   2.802   5.272   6.969  0.5570  0.3051  0.9242
   52CHL1  H19C 3817   2.748   5.240   7.131  1.4033 -0.0934  1.5865
   52CHL1    C1 3818   3.024   5.090   6.981  1.0921 -0.4398 -0.5140
   52CHL1   H1A 3819   3.093   5.163   7.029  0.5143 -0.6957  0.7438
   52CHL1   H1B 3820   3.076   4.993   6.991 -1.2495 -1.7082 -0.0935
   52CHL1    C2 3821   3.009   5.130   6.836  0.5629  1.3256  0.0245
   52CHL1   H2A 3822   3.110   5.132   6.789  0.9138  0.6851  0.7319
   52CHL1   H2B 3823   2.962   5.229   6.819 -3.0920 -0.6388 -3.2899
   52CHL1   C20 3824   2.849   5.065   7.756  0.1056 -0.6831  0.1821
   52CHL1   H20 3825   2.777   5.148   7.770  0.5271 -0.6185  2.2455
   52CHL1   C21 3826   2.997   5.126   7.758 -0.4606  0.4199 -0.1251
   52CHL1  H21A 3827   3.073   5.045   7.752 -1.3435 -0.4505  0.1929
   52CHL1  H21B 3828   3.011   5.183   7.853  1.6282 -1.5670  0.8774
   52CHL1  H21C 3829   3.023   5.203   7.682  4.0504  0.0058  0.6661
   52CHL1   C22 3830   2.839   4.966   7.874 -0.0627  0.1837 -0.2024
   52CHL1  H22A 3831   2.738   4.921   7.873  0.8893 -2.0685 -0.9821
   52CHL1  H22B 3832   2.918   4.888   7.867 -0.5245 -0.4518  1.3598
   52CHL1   C23 3833   2.835   5.020   8.018 -0.4305 -0.3699 -0.2746
   52CHL1  H23A 3834   2.928   5.081   8.019 -0.0616 -0.7266 -2.9617
   52CHL1  H23B 3835   2.749   5.090   8.028  1.0408  1.2351  2.3137
   52CHL1   C24 3836   2.837   4.910   8.121 -0.3133  0.2006 -0.0165
   52CHL1  H24A 3837   2.741   4.856   8.138  0.3972 -0.1548  3.7185
   52CHL1  H24B 3838   2.925   4.847   8.099  0.3706  2.1046 -3.5239
   52CHL1   C25 3839   2.876   4.977   8.256  0.2889  1.0837 -0.1017
   52CHL1   H25 3840   2.975   5.024   8.239  1.4175 -1.4986 -1.1672
   52CHL1   C26 3841   2.767   5.083   8.303 -0.8879 -0.0282  0.3652
   52CHL1  H26A 3842   2.666   5.038   8.292  0.9052 -4.3354 -0.8751
   52CHL1  H26B 3843   2.780   5.100   8.412  1.1104  1.0808 -0.0026
   52CHL1  H26C 3844   2.763   5.181   8.251 -0.6637  0.4929  1.3051
   52CHL1   C27 3845   2.886   4.861   8.358 -0.1790 -0.1901 -0.0606
   52CHL1  H27A 3846   2.922   4.769   8.307 -0.6251  1.4253 -3.5843
   52CHL1  H27B 3847   2.952   4.905   8.436 -0.7505  2.5899 -1.0014
   52CHL1  H27C 3848   2.787   4.834   8.400 -0.4481 -0.9662 -1.1476
   53CHL1    C3 3849   5.607   6.561   7.068  0.1572 -0.1444  1.0178
   53CHL1    H3 3850   5.611   6.671   7.055 -0.2210 -0.4420 -2.6274
   53CHL1    O3 3851   5.592   6.507   6.937 -0.1784 -0.2010  0.3380
   53CHL1   H3' 3852   5.676   6.482   6.899  0.2119 -1.3468  1.8717
   53CHL1    C4 3853   5.741   6.517   7.127  0.5311 -0.1567 -0.5178
   53CHL1   H4A 3854   5.750   6.406   7.128 -0.6692 -0.2598  0.3780
   53CHL1   H4B 3855   5.827   6.553   7.066 -0.3491  0.7353 -1.2628
   53CHL1    C5 3856   5.760   6.549   7.275 -0.9907 -0.1644  0.3427
   53CHL1    C6 3857   5.869   6.613   7.315  0.0376  0.1586 -0.9382
   53CHL1    H6 3858   5.940   6.645   7.238 -0.4414 -0.2554 -1.5640
   53CHL1    C7 3859   5.913   6.651   7.452 -0.0197  0.5441 -0.2591
   53CHL1   H7A 3860   6.021   6.627   7.461  0.9413  3.8707 -1.3736
   53CHL1   H7B 3861   5.898   6.759   7.471  2.0711  1.0766 -1.3032
   53CHL1    C8 3862   5.820   6.581   7.559  0.4561  0.2420  0.4584
   53CHL1    H8 3863   5.862   6.480   7.578 -1.3155 -0.6086  0.0328
   53CHL1   C14 3864   5.831   6.658   7.691  0.4368 -0.7979  0.1882
   53CHL1   H14 3865   5.788   6.760   7.680 -0.7049 -1.1370  1.2522
   53CHL1   C15 3866   5.963   6.697   7.765 -0.0777  0.2565 -0.2170
   53CHL1  H15A 3867   6.032   6.610   7.765 -1.0411 -0.5784  1.8756
   53CHL1  H15B 3868   6.010   6.788   7.721 -0.9398  0.8842  0.1337
   53CHL1   C16 3869   5.919   6.719   7.917  0.1308  0.3919  0.4157
   53CHL1  H16A 3870   5.969   6.643   7.980  0.2086 -1.3447 -1.6327
   53CHL1  H16B 3871   5.953   6.817   7.957 -0.0373  0.7004 -0.1986
   53CHL1   C17 3872   5.768   6.707   7.916  0.3137 -0.3412  0.2604
   53CHL1   H17 3873   5.727   6.806   7.886  0.2415  0.0540  1.5951
   53CHL1   C13 3874   5.737   6.606   7.800 -0.8346 -0.8429  0.5175
   53CHL1   C18 3875   5.786   6.468   7.847  0.4169  0.2421 -0.1522
   53CHL1  H18A 3876   5.716   6.427   7.922  1.2094  0.3466  0.6530
   53CHL1  H18B 3877   5.778   6.396   7.763  1.1578 -0.3626  0.2790
   53CHL1  H18C 3878   5.893   6.460   7.878  0.8219 -0.6875 -1.6844
   53CHL1   C12 3879   5.590   6.612   7.749 -0.3685 -0.3094 -0.0742
   53CHL1  H12A 3880   5.530   6.550   7.818 -2.2805 -0.1841 -1.5397
   53CHL1  H12B 3881   5.550   6.716   7.748  0.6974  0.1541  1.6769
   53CHL1   C11 3882   5.574   6.532   7.620  0.1615 -0.4853  0.6362
   53CHL1  H11A 3883   5.603   6.431   7.653  0.3963 -0.8705 -0.7060
   53CHL1  H11B 3884   5.466   6.524   7.596  0.4482  0.6238 -1.3002
   53CHL1    C9 3885   5.671   6.577   7.509 -0.4599 -0.0502 -0.1638
   53CHL1    H9 3886   5.650   6.684   7.487  0.6869  0.4541  1.0662
   53CHL1   C10 3887   5.652   6.512   7.367  0.0287  0.0432 -0.0284
   53CHL1   C19 3888   5.648   6.357   7.389 -0.0907 -0.3067  0.9077
   53CHL1  H19A 3889   5.649   6.305   7.292  0.3567  2.1373 -0.4789
   53CHL1  H19B 3890   5.735   6.313   7.443  0.8580 -0.1184 -0.4321
   53CHL1  H19C 3891   5.552   6.326   7.437 -1.4776  0.1948 -1.4142
   53CHL1    C1 3892   5.514   6.556   7.306  0.0313 -0.2663 -0.6576
   53CHL1   H1A 3893   5.432   6.524   7.373  0.6992 -0.9178 -0.1284
   53CHL1   H1B 3894   5.519   6.667   7.304  2.5055 -0.2957  0.4632
   53CHL1    C2 3895   5.481   6.523   7.159 -0.3240 -0.1682 -0.7240
   53CHL1   H2A 3896   5.394   6.577   7.116  0.6163  1.4310 -0.6890
   53CHL1   H2B 3897   5.469   6.414   7.138  1.7656 -0.1633 -2.3138
   53CHL1   C20 3898   5.712   6.684   8.060  0.6468  0.5690 -0.4091
   53CHL1   H20 3899   5.730   6.580   8.094  0.5153 -0.4524 -3.2323
   53CHL1   C21 3900   5.559   6.717   8.064  0.1861 -0.2943  0.3494
   53CHL1  H21A 3901   5.544   6.816   8.017  2.4983 -1.6605 -3.7247
   53CHL1  H21B 3902   5.522   6.719   8.169 -1.4221  0.0190 -0.1908
   53CHL1  H21C 3903   5.508   6.641   8.000 -0.7293  1.2791 -0.8555
   53CHL1   C22 3904   5.773   6.776   8.164 -0.4338 -0.0508 -0.4914
   53CHL1  H22A 3905   5.883   6.784   8.158 -0.5046  0.6013 -0.9974
   53CHL1  H22B 3906   5.736   6.879   8.146  0.3038  0.0856 -1.2461
   53CHL1   C23 3907   5.740   6.730   8.311  0.3393 -0.0574  0.9082
   53CHL1  H23A 3908   5.633   6.736   8.339 -0.5575 -1.0034 -2.0219
   53CHL1  H23B 3909   5.780   6.628   8.329  2.1976  0.5867  0.6174
   53CHL1   C24 3910   5.800   6.826   8.424  0.1845  1.1495  0.1711
   53CHL1  H24A 3911   5.743   6.919   8.403  2.7012  2.8364  0.3971
   53CHL1  H24B 3912   5.770   6.788   8.524  1.0618  0.5213  0.2107
   53CHL1   C25 3913   5.950   6.863   8.404 -0.0077 -0.1991  0.3460
   53CHL1   H25 3914   5.957   6.923   8.311  0.3289 -0.0589  0.4631
   53CHL1   C26 3915   5.992   6.952   8.521 -0.7208 -0.4309  0.5284
   53CHL1  H26A 3916   5.946   6.915   8.614 -0.5822 -0.2163  0.6844
   53CHL1  H26B 3917   6.103   6.947   8.528 -0.7997 -0.5591  1.9731
   53CHL1  H26C 3918   5.967   7.060   8.511  0.3915 -0.2255 -0.3610
   53CHL1   C27 3919   6.043   6.744   8.393  0.3553 -0.9191 -0.7000
   53CHL1  H27A 3920   6.049   6.701   8.496 -0.6886  1.2363  0.3198
   53CHL1  H27B 3921   6.004   6.661   8.329 -0.8544 -0.9588  0.0634
   53CHL1  H27C 3922   6.147   6.774   8.369  0.5563 -0.6344  0.4688
   54CHL1    C3 3923   4.617   3.508   6.979  0.1348  0.3400  0.2653
   54CHL1    H3 3924   4.604   3.401   7.004 -1.2172  0.2201 -0.8352
   54CHL1    O3 3925   4.587   3.531   6.843  0.6348  0.0006  0.6401
   54CHL1   H3' 3926   4.649   3.467   6.805 -2.0379 -1.4414 -1.7129
   54CHL1    C4 3927   4.532   3.598   7.072 -0.2519 -0.0121 -0.5228
   54CHL1   H4A 3928   4.555   3.703   7.042  0.2781 -0.6350 -2.4484
   54CHL1   H4B 3929   4.423   3.590   7.052 -0.6897  0.7441  1.3628
   54CHL1    C5 3930   4.571   3.587   7.217  0.8201  0.4251 -0.5616
   54CHL1    C6 3931   4.484   3.536   7.308  0.3097 -0.3805  0.1400
   54CHL1    H6 3932   4.382   3.513   7.274  0.0617 -1.4835  1.5600
   54CHL1    C7 3933   4.514   3.517   7.457 -0.3495  0.1973 -0.1344
   54CHL1   H7A 3934   4.426   3.536   7.521 -2.9510 -1.8201 -2.8510
   54CHL1   H7B 3935   4.541   3.410   7.471 -3.0810 -0.7974 -1.7747
   54CHL1    C8 3936   4.644   3.602   7.492  0.3125  0.0548 -0.5979
   54CHL1    H8 3937   4.610   3.707   7.500 -1.4596 -0.5875  0.9637
   54CHL1   C14 3938   4.696   3.578   7.640 -0.1588  1.2163 -0.3138
   54CHL1   H14 3939   4.720   3.469   7.644  0.1206  1.3189  1.5377
   54CHL1   C15 3940   4.590   3.593   7.743 -0.1748 -0.1042  1.0179
   54CHL1  H15A 3941   4.538   3.690   7.732  0.6215  0.0890 -1.8560
   54CHL1  H15B 3942   4.503   3.525   7.729  0.1012  0.0059 -1.8172
   54CHL1   C16 3943   4.658   3.579   7.874  0.0050 -1.3142  1.2661
   54CHL1  H16A 3944   4.626   3.660   7.942  0.5018 -0.2099  0.2188
   54CHL1  H16B 3945   4.629   3.477   7.907 -0.5882 -0.8484  2.2021
   54CHL1   C17 3946   4.811   3.587   7.836  0.0993 -0.5095  0.4417
   54CHL1   H17 3947   4.846   3.482   7.833 -0.2004 -0.6105  0.5486
   54CHL1   C13 3948   4.814   3.649   7.689 -0.4011  0.2835  0.4730
   54CHL1   C18 3949   4.794   3.796   7.690 -0.1046 -0.4296  0.2105
   54CHL1  H18A 3950   4.697   3.821   7.738 -0.5256  0.9153 -1.2786
   54CHL1  H18B 3951   4.874   3.855   7.740 -0.1630 -1.7624  1.9744
   54CHL1  H18C 3952   4.779   3.837   7.588 -0.8270 -0.1482  0.4247
   54CHL1   C12 3953   4.930   3.608   7.593 -1.1253  0.0605  0.3700
   54CHL1  H12A 3954   5.018   3.673   7.611 -0.1075 -0.3027 -2.7562
   54CHL1  H12B 3955   4.966   3.508   7.624  2.0262  1.7861  2.8847
   54CHL1   C11 3956   4.893   3.633   7.442 -0.2209 -0.6575 -0.5239
   54CHL1  H11A 3957   4.906   3.744   7.437  1.7879 -0.9054 -2.5195
   54CHL1  H11B 3958   4.981   3.598   7.384  2.3524  1.3165  1.9121
   54CHL1    C9 3959   4.755   3.578   7.394  0.4973  0.0235 -0.2931
   54CHL1    H9 3960   4.777   3.470   7.398  2.7058  0.4571  3.0882
   54CHL1   C10 3961   4.722   3.620   7.248  1.4341  0.1541  0.7959
   54CHL1   C19 3962   4.742   3.775   7.232 -0.3814 -0.1914  0.7625
   54CHL1  H19A 3963   4.847   3.793   7.261  0.0637  1.5020 -1.6463
   54CHL1  H19B 3964   4.728   3.811   7.128 -3.6699  0.6430  1.3525
   54CHL1  H19C 3965   4.682   3.845   7.294  0.7453  2.8402 -1.3263
   54CHL1    C1 3966   4.812   3.546   7.156 -0.2196 -0.0155 -0.5333
   54CHL1   H1A 3967   4.911   3.597   7.164 -0.6846  0.9905 -0.9109
   54CHL1   H1B 3968   4.814   3.448   7.207 -2.4226  0.4414  0.5840
   54CHL1    C2 3969   4.770   3.537   7.006  0.4131  0.1729  0.4931
   54CHL1   H2A 3970   4.831   3.467   6.946 -0.2161  0.6144 -0.7124
   54CHL1   H2B 3971   4.784   3.639   6.965  0.4665 -1.0705 -2.9280
   54CHL1   C20 3972   4.880   3.667   7.949 -0.0124 -0.2333  1.3523
   54CHL1   H20 3973   4.829   3.766   7.956 -1.4245 -0.8629  0.5163
   54CHL1   C21 3974   5.035   3.679   7.913 -0.0904  0.5451  0.0480
   54CHL1  H21A 3975   5.077   3.585   7.870  2.7344  2.8132 -2.6020
   54CHL1  H21B 3976   5.099   3.720   7.993 -1.1643  0.2239  1.1025
   54CHL1  H21C 3977   5.032   3.745   7.823 -2.4649 -2.0516 -1.9791
   54CHL1   C22 3978   4.856   3.598   8.083 -0.2352  0.1743 -0.4982
   54CHL1  H22A 3979   4.754   3.561   8.108  0.5682 -0.6137  1.9206
   54CHL1  H22B 3980   4.907   3.499   8.080 -2.8835 -1.2633 -1.1577
   54CHL1   C23 3981   4.907   3.690   8.203  0.4596  0.9109 -0.0605
   54CHL1  H23A 3982   5.017   3.701   8.208  0.4816  1.2631 -1.1336
   54CHL1  H23B 3983   4.858   3.790   8.211  0.4337  0.8941 -0.0108
   54CHL1   C24 3984   4.879   3.616   8.340  0.4914  0.5174  0.6315
   54CHL1  H24A 3985   4.768   3.613   8.345  0.2606  1.7983 -2.0090
   54CHL1  H24B 3986   4.921   3.514   8.331  0.6589  0.6839 -0.5709
   54CHL1   C25 3987   4.934   3.695   8.462 -0.3480 -0.3895  0.2821
   54CHL1   H25 3988   4.886   3.795   8.461 -1.5532 -0.9324  1.2708
   54CHL1   C26 3989   4.893   3.624   8.589 -0.3419 -0.0100 -0.4933
   54CHL1  H26A 3990   4.945   3.531   8.618 -0.8068  0.2486  1.2922
   54CHL1  H26B 3991   4.915   3.704   8.664  0.3759 -0.1800 -0.5247
   54CHL1  H26C 3992   4.783   3.611   8.585 -0.1535 -1.7133 -0.5644
   54CHL1   C27 3993   5.089   3.696   8.453  0.2959  0.4926 -0.4630
   54CHL1  H27A 3994   5.126   3.771   8.379 -2.2420  1.2264 -1.0717
   54CHL1  H27B 3995   5.126   3.729   8.553  0.8085  0.5504 -0.6657
   54CHL1  H27C 3996   5.129   3.595   8.430  0.8574  1.0491 -2.0871
   55CHL1    C3 3997   5.879   0.832   6.679 -0.0490 -0.1688  0.0273
   55CHL1    H3 3998   5.904   0.939   6.694 -2.3532  0.4771 -0.2870
   55CHL1    O3 3999   5.807   0.825   6.558 -0.0892 -0.2255  0.1244
   55CHL1   H3' 4000   5.872   0.867   6.501  2.4891 -2.4879  1.1561
   55CHL1    C4 4001   6.017   0.756   6.674 -0.3525  0.4987 -0.0564
   55CHL1   H4A 4002   5.993   0.659   6.627 -0.2972  1.5824 -2.4463
   55CHL1   H4B 4003   6.081   0.815   6.604  0.4223  0.1544  0.3508
   55CHL1    C5 4004   6.084   0.746   6.808 -0.6253 -0.0339 -0.5248
   55CHL1    C6 4005   6.215   0.780   6.835  0.2033  0.0785  0.8146
   55CHL1    H6 4006   6.286   0.815   6.759  1.3167 -2.8349  0.3458
   55CHL1    C7 4007   6.276   0.744   6.968 -0.2293 -0.0748 -0.6822
   55CHL1   H7A 4008   6.377   0.699   6.953 -0.5740 -0.0264 -3.6732
   55CHL1   H7B 4009   6.287   0.835   7.030 -2.6232 -1.1491  1.5009
   55CHL1    C8 4010   6.196   0.652   7.068  0.5755 -0.3178  0.0683
   55CHL1    H8 4011   6.197   0.545   7.037  3.5385 -0.4401  0.3834
   55CHL1   C14 4012   6.254   0.666   7.210  0.5651  0.2854  0.1659
   55CHL1   H14 4013   6.240   0.773   7.235 -2.0827  0.1133 -0.3169
   55CHL1   C15 4014   6.394   0.611   7.238 -1.3750 -0.2037 -0.0899
   55CHL1  H15A 4015   6.408   0.515   7.184 -0.8232 -1.0879  1.5659
   55CHL1  H15B 4016   6.466   0.691   7.209  1.4124 -1.9686  1.5569
   55CHL1   C16 4017   6.393   0.584   7.395 -0.6426  0.4098 -0.0374
   55CHL1  H16A 4018   6.416   0.478   7.419 -0.5078  0.8146  1.7558
   55CHL1  H16B 4019   6.479   0.648   7.425 -0.1783 -0.3245  0.2384
   55CHL1   C17 4020   6.253   0.608   7.444 -0.5333 -0.3099  0.6107
   55CHL1   H17 4021   6.249   0.717   7.468 -2.6383 -0.5602  1.6936
   55CHL1   C13 4022   6.165   0.595   7.320 -0.9144 -0.1386  0.0047
   55CHL1   C18 4023   6.136   0.446   7.287 -0.1597 -0.2532  0.9585
   55CHL1  H18A 4024   6.061   0.413   7.362  0.4818  0.4211  1.9196
   55CHL1  H18B 4025   6.092   0.439   7.186  3.2280 -2.0085 -0.5792
   55CHL1  H18C 4026   6.232   0.390   7.295 -0.5867 -1.0190  0.7980
   55CHL1   C12 4027   6.028   0.674   7.321  1.1155  0.1815  0.9960
   55CHL1  H12A 4028   5.965   0.629   7.401  1.4570 -2.2586 -0.0192
   55CHL1  H12B 4029   6.046   0.780   7.350  0.6743  0.2884  0.8821
   55CHL1   C11 4030   5.963   0.655   7.180  0.0353  0.0474  0.1513
   55CHL1  H11A 4031   5.931   0.553   7.152 -0.6076  0.2998 -0.0613
   55CHL1  H11B 4032   5.868   0.713   7.171 -0.4037 -0.8587 -1.5396
   55CHL1    C9 4033   6.056   0.702   7.059 -0.2999  0.2618  0.0800
   55CHL1    H9 4034   6.066   0.811   7.075 -2.3087  0.3728  0.9511
   55CHL1   C10 4035   5.986   0.690   6.921  0.0851 -0.1698 -0.5978
   55CHL1   C19 4036   5.964   0.543   6.890 -0.2617 -0.0749 -0.0024
   55CHL1  H19A 4037   5.900   0.539   6.800  1.3765  0.7817 -1.2559
   55CHL1  H19B 4038   6.049   0.475   6.868 -0.7613  0.3363 -3.7470
   55CHL1  H19C 4039   5.895   0.490   6.959 -3.1699  1.1963 -1.7735
   55CHL1    C1 4040   5.847   0.761   6.917  0.1033 -0.2657 -0.1838
   55CHL1   H1A 4041   5.773   0.714   6.986  0.3558 -1.5678 -0.7895
   55CHL1   H1B 4042   5.863   0.862   6.962 -1.4898  0.4121 -1.0282
   55CHL1    C2 4043   5.788   0.763   6.783 -0.6048 -0.1403  0.3485
   55CHL1   H2A 4044   5.699   0.827   6.803  0.5918  0.8540  3.0690
   55CHL1   H2B 4045   5.755   0.665   6.743 -4.7208  1.0543  0.3166
   55CHL1   C20 4046   6.216   0.534   7.579 -0.7739 -0.2179  0.1798
   55CHL1   H20 4047   6.205   0.427   7.552 -1.4112  0.2315 -1.4490
   55CHL1   C21 4048   6.081   0.592   7.634 -0.4484  0.3891  0.8402
   55CHL1  H21A 4049   6.076   0.702   7.621 -1.9485  0.3570  0.9717
   55CHL1  H21B 4050   6.074   0.568   7.743 -0.5747 -0.4417  0.6553
   55CHL1  H21C 4051   5.998   0.536   7.586  1.1117 -2.3200  1.0877
   55CHL1   C22 4052   6.333   0.540   7.686 -0.2526 -0.4935  0.7974
   55CHL1  H22A 4053   6.416   0.477   7.646 -2.1365 -1.8484 -1.1571
   55CHL1  H22B 4054   6.370   0.645   7.685  1.9412 -1.2036 -0.0990
   55CHL1   C23 4055   6.304   0.484   7.824 -0.2583 -0.0816 -0.1589
   55CHL1  H23A 4056   6.268   0.567   7.888 -2.8546 -0.8467 -0.4999
   55CHL1  H23B 4057   6.219   0.412   7.815 -0.1259 -0.6938  2.6032
   55CHL1   C24 4058   6.428   0.423   7.894 -0.2926  0.8819 -0.2356
   55CHL1  H24A 4059   6.486   0.347   7.837  1.5562  0.7979  1.6633
   55CHL1  H24B 4060   6.494   0.509   7.918 -0.8745  1.3209 -0.1767
   55CHL1   C25 4061   6.396   0.350   8.024 -0.0479  0.1260 -0.5335
   55CHL1   H25 4062   6.346   0.425   8.089  2.2641 -0.2588  1.8856
   55CHL1   C26 4063   6.312   0.228   8.007  0.3926  0.5293 -0.8914
   55CHL1  H26A 4064   6.276   0.198   8.107 -0.1449  0.6001 -1.0546
   55CHL1  H26B 4065   6.223   0.258   7.946 -0.9877 -1.9077 -0.2208
   55CHL1  H26C 4066   6.366   0.144   7.958 -1.7449 -0.2632 -2.0397
   55CHL1   C27 4067   6.514   0.310   8.106  0.4264  0.3197 -0.5970
   55CHL1  H27A 4068   6.569   0.395   8.151  0.1985 -1.3410  3.1477
   55CHL1  H27B 4069   6.478   0.252   8.193  0.6037  0.4218 -0.4549
   55CHL1  H27C 4070   6.588   0.240   8.060  1.1632  0.1183  0.8360
   56CHL1    C3 4071   4.717   1.650   6.694  0.2403  0.5885 -0.7179
   56CHL1    H3 4072   4.764   1.747   6.723  0.0682  0.5926 -0.4484
   56CHL1    O3 4073   4.725   1.637   6.555  0.1083  0.1728  0.4090
   56CHL1   H3' 4074   4.684   1.551   6.544 -0.1886  0.3004  0.4926
   56CHL1    C4 4075   4.793   1.533   6.756  0.1554 -0.6484  0.5273
   56CHL1   H4A 4076   4.761   1.439   6.707 -1.6143  0.9047 -1.4950
   56CHL1   H4B 4077   4.900   1.545   6.729  0.4529 -0.5177  1.6824
   56CHL1    C5 4078   4.780   1.537   6.905  0.1910  0.2667 -0.2002
   56CHL1    C6 4079   4.887   1.542   6.979 -0.0833 -0.0135 -0.4726
   56CHL1    H6 4080   4.989   1.533   6.938  0.7335  0.5855  1.3416
   56CHL1    C7 4081   4.890   1.546   7.133 -0.2440 -0.2766 -1.0275
   56CHL1   H7A 4082   4.945   1.455   7.166  0.1391  0.1914 -0.3359
   56CHL1   H7B 4083   4.941   1.640   7.164 -1.5696  0.2364 -0.3541
   56CHL1    C8 4084   4.747   1.544   7.195 -0.2541  0.0157 -0.0616
   56CHL1    H8 4085   4.706   1.441   7.193  0.2649 -0.2025 -2.5710
   56CHL1   C14 4086   4.752   1.592   7.339 -0.5144 -0.7079  0.4491
   56CHL1   H14 4087   4.788   1.697   7.342 -3.0624  0.3340 -1.2592
   56CHL1   C15 4088   4.833   1.506   7.440 -0.8395  1.2783  0.5456
   56CHL1  H15A 4089   4.810   1.402   7.406  1.2980  1.4060 -1.5598
   56CHL1  H15B 4090   4.939   1.539   7.433 -0.9636  1.4775 -0.5974
   56CHL1   C16 4091   4.777   1.548   7.580  0.2173 -0.2671  0.3211
   56CHL1  H16A 4092   4.752   1.461   7.645  0.5203 -1.6720 -1.3376
   56CHL1  H16B 4093   4.859   1.604   7.630 -1.3009 -0.0781  2.7420
   56CHL1   C17 4094   4.654   1.639   7.542  0.5530 -0.4792  0.3941
   56CHL1   H17 4095   4.695   1.742   7.549 -0.9112  0.1429  0.2193
   56CHL1   C13 4096   4.616   1.601   7.400 -0.0751  0.7180  0.2176
   56CHL1   C18 4097   4.546   1.456   7.411  0.3527  0.7464  0.2748
   56CHL1  H18A 4098   4.440   1.450   7.443 -0.0781 -1.2784 -1.3240
   56CHL1  H18B 4099   4.529   1.416   7.309  1.0006  3.1313 -0.8402
   56CHL1  H18C 4100   4.601   1.379   7.469 -1.4128 -1.9706 -1.4176
   56CHL1   C12 4101   4.527   1.687   7.326 -0.3862  0.0381  0.2038
   56CHL1  H12A 4102   4.422   1.671   7.358  0.1674 -1.5016  1.3957
   56CHL1  H12B 4103   4.549   1.796   7.326 -2.5075  0.5831 -2.5286
   56CHL1   C11 4104   4.521   1.649   7.177 -0.5601  0.4514 -0.1165
   56CHL1  H11A 4105   4.460   1.559   7.156  3.2880 -3.0607  2.2507
   56CHL1  H11B 4106   4.473   1.736   7.128 -0.3771  1.3027  1.1452
   56CHL1    C9 4107   4.651   1.623   7.110  0.0453 -0.3083  0.4880
   56CHL1    H9 4108   4.692   1.726   7.110  0.1634 -0.3465  1.3507
   56CHL1   C10 4109   4.637   1.570   6.960 -0.0034  0.9515  0.5028
   56CHL1   C19 4110   4.562   1.433   6.959  0.7593  0.1200 -0.4426
   56CHL1  H19A 4111   4.587   1.356   7.036  2.2927  1.3030  0.2943
   56CHL1  H19B 4112   4.455   1.461   6.972  0.9843  1.8382 -1.9731
   56CHL1  H19C 4113   4.574   1.392   6.857  2.2540 -1.6497  0.3718
   56CHL1    C1 4114   4.556   1.673   6.890 -0.5189 -0.3851  0.7081
   56CHL1   H1A 4115   4.451   1.673   6.927 -0.0820 -1.0791  1.9712
   56CHL1   H1B 4116   4.601   1.772   6.916 -0.9450 -0.9078  3.7582
   56CHL1    C2 4117   4.571   1.650   6.741  0.2736  0.2781 -0.0836
   56CHL1   H2A 4118   4.521   1.735   6.690 -0.3622 -0.7707 -1.2872
   56CHL1   H2B 4119   4.516   1.559   6.707  1.8568 -0.5302 -0.5828
   56CHL1   C20 4120   4.537   1.640   7.649 -0.0656  0.6088 -0.1816
   56CHL1   H20 4121   4.497   1.536   7.649  2.5811 -0.5219 -1.4330
   56CHL1   C21 4122   4.415   1.731   7.619  0.4396  0.0435 -1.0768
   56CHL1  H21A 4123   4.352   1.737   7.710 -1.7461  2.3499 -2.6037
   56CHL1  H21B 4124   4.352   1.669   7.551  0.7460 -2.0981  0.4746
   56CHL1  H21C 4125   4.446   1.828   7.576  0.0073 -0.3384 -2.3188
   56CHL1   C22 4126   4.596   1.683   7.791 -0.5278  0.2608  0.6036
   56CHL1  H22A 4127   4.705   1.665   7.799 -0.2204  0.7477 -1.6315
   56CHL1  H22B 4128   4.583   1.793   7.803  2.1941  0.6838  0.3526
   56CHL1   C23 4129   4.545   1.611   7.917  0.5207 -0.7638 -0.3600
   56CHL1  H23A 4130   4.435   1.602   7.907  0.4971  0.5666 -1.7750
   56CHL1  H23B 4131   4.599   1.514   7.926  0.8418 -0.4229  1.8041
   56CHL1   C24 4132   4.553   1.698   8.042  0.7033  0.3253 -0.1449
   56CHL1  H24A 4133   4.659   1.728   8.057  0.1856  2.7369 -0.8830
   56CHL1  H24B 4134   4.499   1.793   8.025  2.3421  1.7807  2.1849
   56CHL1   C25 4135   4.493   1.637   8.170 -0.2305 -0.4948 -0.0802
   56CHL1   H25 4136   4.398   1.589   8.139  0.4005 -2.4665  0.8512
   56CHL1   C26 4137   4.576   1.514   8.225  0.3201  0.0624 -0.0216
   56CHL1  H26A 4138   4.511   1.448   8.285  2.3472 -0.1813  2.0164
   56CHL1  H26B 4139   4.661   1.559   8.280 -0.6641  0.7462  0.9894
   56CHL1  H26C 4140   4.622   1.457   8.142  2.4391 -0.1085  1.2067
   56CHL1   C27 4141   4.470   1.754   8.271 -0.4225  0.0791 -0.1124
   56CHL1  H27A 4142   4.417   1.729   8.366  0.9630 -0.1428  0.6186
   56CHL1  H27B 4143   4.568   1.800   8.293 -0.2064 -0.2310 -0.4307
   56CHL1  H27C 4144   4.413   1.836   8.222  0.3029  0.0253 -1.0632
   57SAPC     N 4145   5.795   5.789  10.901  0.3599 -0.1028 -0.3925
   57SAPC   C12 4146   5.706   5.743  10.793  0.2326 -0.4037 -0.5833
   57SAPC  H12A 4147   5.618   5.698  10.835 -1.0655  1.2395 -1.4185
   57SAPC  H12B 4148   5.748   5.666  10.729 -0.2593  0.1244 -1.5713
   57SAPC   C13 4149   5.831   5.670  10.995 -0.4912 -0.1223 -0.1303
   57SAPC  H13A 4150   5.908   5.698  11.066 -0.3028  3.3483 -1.4793
   57SAPC  H13B 4151   5.749   5.635  11.056 -0.3856  0.0645  0.1206
   57SAPC  H13C 4152   5.873   5.586  10.942  1.5162 -1.4466  3.2448
   57SAPC   C14 4153   5.920   5.856  10.849 -0.0050 -0.5504 -0.4607
   57SAPC  H14A 4154   5.997   5.867  10.924 -0.6976 -0.2888  0.2273
   57SAPC  H14B 4155   5.969   5.812  10.763  1.8549 -0.1603  0.3401
   57SAPC  H14C 4156   5.902   5.959  10.820  0.5563  0.8784  3.5930
   57SAPC   C15 4157   5.729   5.886  10.995 -0.6259  0.0651 -0.0212
   57SAPC  H15A 4158   5.639   5.841  11.033 -0.9731  0.0742 -0.8194
   57SAPC  H15B 4159   5.784   5.921  11.082 -1.8154  2.5625 -0.1848
   57SAPC  H15C 4160   5.693   5.972  10.940  0.2509  0.3876 -0.1105
   57SAPC   C11 4161   5.658   5.859  10.707 -0.4991  0.6334 -0.5678
   57SAPC  H11A 4162   5.613   5.815  10.615  1.2857  2.7000 -2.5289
   57SAPC  H11B 4163   5.749   5.910  10.668 -0.1653 -0.0075 -0.6509
   57SAPC     P 4164   5.413   5.900  10.776 -0.1011 -0.0761  0.0004
   57SAPC   O13 4165   5.407   5.755  10.789  0.7806  0.2058 -0.2163
   57SAPC   O14 4166   5.346   5.980  10.878 -0.0011  0.3653 -0.1760
   57SAPC   O12 4167   5.568   5.951  10.766 -0.2382 -0.0192  0.1918
   57SAPC   O11 4168   5.366   5.929  10.628  0.3742 -0.5832  0.3556
   57SAPC    C1 4169   5.330   6.062  10.589  0.0000 -0.1590 -0.2500
   57SAPC    HA 4170   5.220   6.062  10.605  0.1288  1.2654  0.7902
   57SAPC    HB 4171   5.374   6.141  10.653 -2.2705  1.3999 -0.5019
   57SAPC    C2 4172   5.359   6.100  10.442 -0.4068 -0.2735  0.2588
   57SAPC    HS 4173   5.326   6.204  10.423  0.1061 -0.4749 -2.0540
   57SAPC   O21 4174   5.285   6.011  10.361 -0.5090  0.1033  1.3469
   57SAPC   C21 4175   5.256   6.066  10.245  0.4791  0.1367 -0.0146
   57SAPC   O22 4176   5.267   6.178  10.212  0.1363 -0.4820 -0.3615
   57SAPC   C22 4177   5.212   5.959  10.154 -0.6863 -0.0104  0.2427
   57SAPC   H2R 4178   5.300   5.908  10.110  0.3301  1.8590  0.0333
   57SAPC   H2S 4179   5.143   5.889  10.206 -0.6492 -0.9940 -0.9849
   57SAPC    C3 4180   5.513   6.091  10.409 -0.6110  0.1894  0.0778
   57SAPC    HX 4181   5.535   5.986  10.435 -0.1103  0.2153 -0.2428
   57SAPC    HY 4182   5.575   6.149  10.480  1.6544 -0.6172 -1.1491
   57SAPC   O31 4183   5.551   6.107  10.266 -0.2600  0.0871 -0.1970
   57SAPC   C31 4184   5.552   6.230  10.229 -0.1350  0.4805  0.0108
   57SAPC   O32 4185   5.542   6.321  10.310  0.7023  0.2220  0.3124
   57SAPC   C32 4186   5.573   6.252  10.080  0.1942  0.4218 -0.0480
   57SAPC   H2X 4187   5.619   6.161  10.037 -2.9418 -1.1073 -0.4060
   57SAPC   H2Y 4188   5.643   6.337  10.064 -0.4061  0.5042 -2.7097
   57SAPC   C23 4189   5.130   6.015  10.031  0.4618 -0.3733 -0.3653
   57SAPC   H3R 4190   5.126   5.933   9.956 -0.3202 -0.8664  0.1992
   57SAPC   H3S 4191   5.182   6.099   9.981 -0.3713 -1.1006 -2.5721
   57SAPC   C24 4192   4.976   6.044  10.061 -0.0952  0.5137  0.3532
   57SAPC   H4R 4193   4.953   5.976  10.145 -0.4634  2.1214  1.5908
   57SAPC   H4S 4194   4.915   6.014   9.973 -1.3658  1.9626  0.7098
   57SAPC   C25 4195   4.945   6.191  10.089  0.0752 -0.3899  0.3255
   57SAPC   H5R 4196   4.975   6.228  10.188 -0.9984  0.0665  0.4941
   57SAPC   C26 4197   4.893   6.282   9.999 -0.8559  0.4489 -0.0966
   57SAPC   H6R 4198   4.871   6.386  10.028 -1.1108  0.1098  0.9472
   57SAPC   C27 4199   4.870   6.252   9.855 -0.1228  0.4639 -0.6355
   57SAPC   H7R 4200   4.774   6.303   9.833  0.8595  2.1051 -1.2666
   57SAPC   H7S 4201   4.854   6.144   9.832 -0.0677 -0.1240  1.7692
   57SAPC   C28 4202   4.980   6.316   9.770  0.4019  0.1882  0.2582
   57SAPC   H8R 4203   5.004   6.419   9.799 -2.0157  0.1659  2.8195
   57SAPC   C29 4204   5.033   6.263   9.660  0.0951 -0.6080 -0.0754
   57SAPC   H9R 4205   5.118   6.316   9.616  0.2314 -0.8439 -0.1011
   57SAPC  C210 4206   5.003   6.118   9.606 -0.5965 -0.3923 -0.3849
   57SAPC  H10R 4207   5.010   6.054   9.697  0.6512  1.9373  1.2415
   57SAPC  H10S 4208   5.091   6.082   9.549  1.2334  0.3022  1.8667
   57SAPC  C211 4209   4.879   6.100   9.537  0.1662 -0.0460 -0.6535
   57SAPC  H11R 4210   4.791   6.107   9.603  3.3209  2.8829  3.7627
   57SAPC  C212 4211   4.861   6.083   9.402  0.0429 -0.0529 -0.4696
   57SAPC  H12R 4212   4.760   6.055   9.367  0.6453 -0.7022 -1.7658
   57SAPC  C213 4213   4.971   6.089   9.296  0.4991 -0.1058 -1.0609
   57SAPC  H13R 4214   4.991   5.990   9.249  0.7965  0.3345 -1.8948
   57SAPC  H13S 4215   5.059   6.125   9.354 -2.2069  1.7730  2.1991
   57SAPC  C214 4216   4.931   6.186   9.182  0.4648 -0.2513  0.1803
   57SAPC  H14R 4217   4.850   6.255   9.208 -0.9364 -1.1872 -1.4422
   57SAPC  C215 4218   4.976   6.187   9.055  0.3663 -0.2683 -1.2967
   57SAPC  H15R 4219   4.924   6.258   8.990  0.4995  2.6740  1.5763
   57SAPC  C216 4220   5.077   6.091   8.986 -0.0493 -1.0563 -0.1772
   57SAPC  H16R 4221   5.074   5.995   9.041  0.2325 -0.7979  0.2911
   57SAPC  H16S 4222   5.179   6.135   8.981 -0.5408  0.2216  0.6273
   57SAPC  C217 4223   5.039   6.055   8.840 -0.3680 -1.2373 -0.0521
   57SAPC  H17R 4224   5.002   6.140   8.778  1.5716  0.0971  0.5334
   57SAPC  H17S 4225   4.965   5.972   8.843 -0.9798 -0.7314 -0.7168
   57SAPC  C218 4226   5.156   5.994   8.757  0.2856 -0.6070 -0.3004
   57SAPC  H18R 4227   5.205   5.921   8.825 -2.7932 -0.3800  2.4410
   57SAPC  H18S 4228   5.227   6.076   8.731 -1.5940  1.4556  0.6884
   57SAPC  C219 4229   5.118   5.911   8.638  0.4070 -0.1472  0.0593
   57SAPC  H19R 4230   5.062   5.972   8.564  0.4474 -0.7346 -0.4632
   57SAPC  H19S 4231   5.058   5.830   8.685  1.8412 -0.8910  0.6515
   57SAPC  C220 4232   5.233   5.838   8.577  0.1714 -0.2017  0.3145
   57SAPC  H20R 4233   5.268   5.756   8.642 -0.3295 -0.3834  0.3640
   57SAPC  H20S 4234   5.310   5.918   8.572 -2.4073  2.6380  2.0421
   57SAPC  H20T 4235   5.205   5.801   8.475 -1.7387  0.3352  0.5967
   57SAPC   C33 4236   5.445   6.279   9.993  0.2513  0.0351  0.2281
   57SAPC   H3X 4237   5.395   6.358  10.053 -1.8959 -2.0852  1.3564
   57SAPC   H3Y 4238   5.382   6.189   9.985  1.7302 -1.0420  0.2521
   57SAPC   C34 4239   5.466   6.345   9.856  0.4750 -0.7106 -0.6002
   57SAPC   H4X 4240   5.532   6.433   9.868 -1.2970  0.3872  1.7735
   57SAPC   H4Y 4241   5.371   6.381   9.813 -0.6452 -2.9475 -0.1643
   57SAPC   C35 4242   5.510   6.241   9.753 -0.3463  0.0746 -0.1212
   57SAPC   H5X 4243   5.427   6.168   9.746 -0.9188  0.7714 -0.9169
   57SAPC   H5Y 4244   5.598   6.184   9.788 -0.4493 -0.2384 -0.3670
   57SAPC   C36 4245   5.546   6.301   9.620  0.2626  0.0610 -0.0853
   57SAPC   H6X 4246   5.613   6.238   9.557  0.2389  0.2101 -0.2596
   57SAPC   H6Y 4247   5.596   6.396   9.647 -1.8200  1.0621  0.5188
   57SAPC   C37 4248   5.425   6.315   9.522 -0.3596 -0.6688 -0.1165
   57SAPC   H7X 4249   5.352   6.381   9.574 -1.2795 -0.9613 -1.0184
   57SAPC   H7Y 4250   5.363   6.223   9.518  0.5488 -1.3528  0.8813
   57SAPC   C38 4251   5.441   6.360   9.381  0.2181  0.3386 -0.0839
   57SAPC   H8X 4252   5.523   6.299   9.337  1.3041  0.7580  1.2669
   57SAPC   H8Y 4253   5.473   6.466   9.372  0.3942  0.1834 -1.4621
   57SAPC   C39 4254   5.311   6.340   9.299 -0.3353  0.1696  0.2018
   57SAPC   H9X 4255   5.233   6.397   9.354 -1.5769 -0.9282 -0.3342
   57SAPC   H9Y 4256   5.285   6.232   9.286  0.2349  0.0788 -0.2272
   57SAPC  C310 4257   5.321   6.390   9.153  0.2724  0.3526  0.2569
   57SAPC  H10X 4258   5.360   6.493   9.141  0.6704  0.0809 -0.9520
   57SAPC  H10Y 4259   5.219   6.395   9.110  0.2966  0.3140  0.1938
   57SAPC  C311 4260   5.418   6.315   9.065 -0.0212 -0.2237 -0.0175
   57SAPC  H11X 4261   5.381   6.219   9.023  0.1979  1.0570 -3.4110
   57SAPC  H11Y 4262   5.504   6.287   9.129 -1.2357 -1.2299  1.2575
   57SAPC  C312 4263   5.470   6.398   8.948  0.3354  0.4870 -0.2529
   57SAPC  H12X 4264   5.510   6.496   8.982  1.8703  0.0348 -0.6665
   57SAPC  H12Y 4265   5.389   6.418   8.875 -0.8970 -2.7333  0.0951
   57SAPC  C313 4266   5.584   6.321   8.888  0.2388  0.6522  0.2146
   57SAPC  H13X 4267   5.559   6.214   8.874  0.9531  0.6299 -1.0007
   57SAPC  H13Y 4268   5.676   6.325   8.951  1.1378  0.3592 -1.0389
   57SAPC  C314 4269   5.612   6.378   8.748 -0.5801  0.1907 -0.3683
   57SAPC  H14X 4270   5.713   6.351   8.709  0.0589 -0.2673  1.4924
   57SAPC  H14Y 4271   5.626   6.488   8.746  1.2873 -0.0190 -0.7860
   57SAPC  C315 4272   5.510   6.339   8.639 -0.9004 -0.8178 -0.5270
   57SAPC  H15X 4273   5.432   6.418   8.638 -2.1702 -2.0505 -0.8308
   57SAPC  H15Y 4274   5.464   6.243   8.667  4.5878 -3.4245  0.9807
   57SAPC  C316 4275   5.570   6.325   8.498 -0.1622  0.3259  0.9646
   57SAPC  H16X 4276   5.637   6.236   8.506  0.8853  0.8134 -1.4068
   57SAPC  H16Y 4277   5.638   6.406   8.462  1.0002 -1.7066 -1.8130
   57SAPC  C317 4278   5.463   6.308   8.388  0.9928  0.2146 -0.6821
   57SAPC  H17X 4279   5.390   6.230   8.421  0.9803  1.4285  2.5622
   57SAPC  H17Y 4280   5.509   6.266   8.296  0.6593 -1.6592 -0.0449
   57SAPC  C318 4281   5.388   6.435   8.352 -0.1949 -0.0373  0.0028
   57SAPC  H18X 4282   5.466   6.513   8.338 -1.7224  1.2291 -2.0613
   57SAPC  H18Y 4283   5.326   6.470   8.437  1.5771  1.2795  0.8139
   57SAPC  H18Z 4284   5.330   6.446   8.257  0.0448 -0.1596 -0.1599
   58SAPC     N 4285   5.602   2.873  11.018 -0.2315 -0.4657  0.6172
   58SAPC   C12 4286   5.738   2.884  10.940 -0.2787 -0.1886  0.0413
   58SAPC  H12A 4287   5.786   2.789  10.955  0.0784  0.0913  0.7117
   58SAPC  H12B 4288   5.807   2.953  10.988  1.2638  1.0313 -3.5912
   58SAPC   C13 4289   5.523   3.000  10.993 -0.3134  0.6888 -0.1147
   58SAPC  H13A 4290   5.429   2.997  11.045 -0.3422  3.5461  0.1481
   58SAPC  H13B 4291   5.574   3.091  11.022  1.0999 -0.4197  1.0524
   58SAPC  H13C 4292   5.509   3.005  10.886 -0.2998 -0.8403 -0.2098
   58SAPC   C14 4293   5.532   2.759  10.957  0.4799  0.9975  0.1317
   58SAPC  H14A 4294   5.510   2.767  10.851  0.1194 -2.0531 -0.1312
   58SAPC  H14B 4295   5.579   2.663  10.972  1.4595  1.2712 -1.0465
   58SAPC  H14C 4296   5.438   2.752  11.010  0.9712  2.4103  1.2381
   58SAPC   C15 4297   5.621   2.850  11.161 -0.4291 -0.1104  0.0268
   58SAPC  H15A 4298   5.690   2.769  11.181 -0.7150 -0.5033 -0.5338
   58SAPC  H15B 4299   5.655   2.937  11.216 -1.0005  0.2946 -0.2539
   58SAPC  H15C 4300   5.529   2.824  11.211 -0.9648 -0.0648 -0.9054
   58SAPC   C11 4301   5.739   2.919  10.788  0.0228 -0.0803  0.2322
   58SAPC  H11A 4302   5.673   2.842  10.743 -0.2847  0.2071  0.1858
   58SAPC  H11B 4303   5.840   2.897  10.747 -0.6991 -2.0241 -0.6083
   58SAPC     P 4304   5.769   3.179  10.798  0.0318 -0.2158  0.3032
   58SAPC   O13 4305   5.755   3.220  10.938  0.0698  0.0987 -0.6065
   58SAPC   O14 4306   5.911   3.151  10.752  0.2164  0.1385 -0.4061
   58SAPC   O12 4307   5.686   3.045  10.765  0.3967  0.2337  0.3163
   58SAPC   O11 4308   5.704   3.288  10.703 -0.5490  0.0750 -0.0611
   58SAPC    C1 4309   5.664   3.259  10.574 -0.0989 -0.0633  0.1947
   58SAPC    HA 4310   5.742   3.200  10.521  0.0088  1.3932 -1.3472
   58SAPC    HB 4311   5.569   3.202  10.574  0.5644 -1.2107  0.0972
   58SAPC    C2 4312   5.636   3.391  10.493 -0.2862 -0.1171 -0.6258
   58SAPC    HS 4313   5.555   3.448  10.544  1.3152  0.7141  1.1002
   58SAPC   O21 4314   5.603   3.346  10.363 -0.0579 -0.3492  0.0991
   58SAPC   C21 4315   5.471   3.337  10.348  0.5296 -0.2193 -0.7294
   58SAPC   O22 4316   5.386   3.365  10.429  0.5134  0.0799 -0.1735
   58SAPC   C22 4317   5.441   3.295  10.209  0.4970  0.4103 -0.3194
   58SAPC   H2R 4318   5.520   3.222  10.182  1.1049  0.2653  1.6752
   58SAPC   H2S 4319   5.343   3.243  10.198  0.4874  0.1766  0.7629
   58SAPC    C3 4320   5.762   3.479  10.479  0.0347 -0.0181 -0.4822
   58SAPC    HX 4321   5.837   3.411  10.434  0.9292 -1.2255  2.5428
   58SAPC    HY 4322   5.808   3.506  10.577  0.6360 -1.4218 -0.3631
   58SAPC   O31 4323   5.734   3.600  10.403  0.3428 -0.1179 -0.4617
   58SAPC   C31 4324   5.822   3.694  10.398  0.0559 -0.3222 -0.0930
   58SAPC   O32 4325   5.926   3.708  10.460  0.2588  0.0282 -0.1284
   58SAPC   C32 4326   5.773   3.790  10.285  0.5700 -0.0279  0.8021
   58SAPC   H2X 4327   5.663   3.799  10.295  0.0872 -1.0826 -2.3910
   58SAPC   H2Y 4328   5.802   3.744  10.188 -3.0488 -1.4133  0.2301
   58SAPC   C23 4329   5.435   3.409  10.108  0.4478  0.1215  0.6126
   58SAPC   H3R 4330   5.531   3.463  10.096  1.1138 -1.1095  0.1357
   58SAPC   H3S 4331   5.354   3.478  10.137 -0.2419 -1.2645  2.1129
   58SAPC   C24 4332   5.402   3.355   9.966 -0.5160  0.6721  0.1048
   58SAPC   H4R 4333   5.316   3.286   9.980  0.9092 -0.9983  1.0004
   58SAPC   H4S 4334   5.496   3.304   9.936  0.9779  4.1680 -1.7804
   58SAPC   C25 4335   5.365   3.459   9.855 -0.1088  0.6938  0.1582
   58SAPC   H5R 4336   5.257   3.454   9.835  0.0948 -1.1534 -0.6790
   58SAPC   C26 4337   5.450   3.531   9.779 -0.4588 -0.2888 -0.1700
   58SAPC   H6R 4338   5.400   3.603   9.712  2.6278  2.1209 -0.1541
   58SAPC   C27 4339   5.604   3.520   9.796  0.6089  0.0024  0.0235
   58SAPC   H7R 4340   5.630   3.448   9.716  1.3386 -0.1764  0.4087
   58SAPC   H7S 4341   5.633   3.463   9.887 -0.5843 -0.0981  0.3628
   58SAPC   C28 4342   5.671   3.653   9.759  0.1285 -0.1292 -0.3284
   58SAPC   H8R 4343   5.678   3.725   9.842  0.0036 -0.7224  0.2095
   58SAPC   C29 4344   5.726   3.692   9.644  0.2240  0.0137  0.0184
   58SAPC   H9R 4345   5.776   3.790   9.636  1.4425 -0.5566  0.3714
   58SAPC  C210 4346   5.718   3.607   9.517  0.1205  0.6961 -0.4096
   58SAPC  H10R 4347   5.624   3.548   9.512  0.3766  0.2583 -0.1605
   58SAPC  H10S 4348   5.802   3.536   9.529  2.0578  3.2118  2.4320
   58SAPC  C211 4349   5.723   3.674   9.386 -0.4809 -0.2753  0.5285
   58SAPC  H11R 4350   5.678   3.774   9.385  1.5751  0.7111 -1.0724
   58SAPC  C212 4351   5.740   3.613   9.266  0.3067 -0.2327 -0.4519
   58SAPC  H12R 4352   5.749   3.685   9.183 -1.6128  0.8682  0.2259
   58SAPC  C213 4353   5.772   3.471   9.236 -0.8228 -0.2818  0.3618
   58SAPC  H13R 4354   5.700   3.429   9.163  1.2815  2.0724 -3.4480
   58SAPC  H13S 4355   5.780   3.415   9.331 -0.3399  1.4022  1.3588
   58SAPC  C214 4356   5.905   3.451   9.165  0.1475 -0.0047  0.4126
   58SAPC  H14R 4357   5.984   3.396   9.217  0.7519 -0.3082 -0.7763
   58SAPC  C215 4358   5.945   3.507   9.047 -0.3859  0.2361 -0.0501
   58SAPC  H15R 4359   6.041   3.476   9.004  1.1841  1.1494  2.5451
   58SAPC  C216 4360   5.861   3.595   8.952 -0.1314 -0.5079 -1.1010
   58SAPC  H16R 4361   5.754   3.591   8.981 -0.2473 -1.2168 -1.6078
   58SAPC  H16S 4362   5.850   3.565   8.846  0.1325 -0.0382 -1.2620
   58SAPC  C217 4363   5.922   3.737   8.956  0.6971 -0.2856  0.0726
   58SAPC  H17R 4364   6.017   3.734   8.898  0.2635  0.2624 -0.6771
   58SAPC  H17S 4365   5.947   3.773   9.057 -3.4751  1.1729  0.7686
   58SAPC  C218 4366   5.822   3.840   8.907 -0.1154  0.2380  0.1412
   58SAPC  H18R 4367   5.769   3.802   8.817  2.3458 -1.0726 -0.8572
   58SAPC  H18S 4368   5.885   3.922   8.867 -0.8067  0.3019 -0.8498
   58SAPC  C219 4369   5.719   3.895   9.002  0.7547 -0.2415  0.3801
   58SAPC  H19R 4370   5.676   3.806   9.053 -0.2434 -1.3594 -2.2132
   58SAPC  H19S 4371   5.626   3.928   8.952  1.4455 -0.3481 -1.0267
   58SAPC  C220 4372   5.762   3.987   9.111 -0.1221 -0.2365  0.1788
   58SAPC  H20R 4373   5.842   4.060   9.087  0.0496  0.5526  2.8411
   58SAPC  H20S 4374   5.802   3.932   9.199  0.2979 -0.7228 -0.3031
   58SAPC  H20T 4375   5.685   4.051   9.158 -1.7841 -0.6869 -1.7556
   58SAPC   C33 4376   5.830   3.935  10.314  0.3087  0.2863 -0.2473
   58SAPC   H3X 4377   5.941   3.936  10.318  0.2965  0.2631  0.1238
   58SAPC   H3Y 4378   5.801   3.966  10.417  2.8926 -0.7481  0.8829
   58SAPC   C34 4379   5.790   4.036  10.209 -0.3770  0.4327 -0.3090
   58SAPC   H4X 4380   5.824   4.137  10.239 -0.2980 -0.0817  1.4707
   58SAPC   H4Y 4381   5.681   4.054  10.207 -0.3422  0.5691 -1.5764
   58SAPC   C35 4382   5.837   4.002  10.065 -0.5631  0.0347  0.5786
   58SAPC   H5X 4383   5.780   3.910  10.037  0.1037 -0.0680 -0.4702
   58SAPC   H5Y 4384   5.946   3.995  10.049 -0.7217  1.8129 -1.7662
   58SAPC   C36 4385   5.787   4.112   9.976  0.1504 -0.6175 -0.1228
   58SAPC   H6X 4386   5.826   4.212  10.003 -0.4364 -0.4453  0.1080
   58SAPC   H6Y 4387   5.679   4.120  10.001  0.2572  1.3819 -0.1555
   58SAPC   C37 4388   5.793   4.079   9.826 -0.6546 -0.6165 -0.0915
   58SAPC   H7X 4389   5.753   4.170   9.776  0.1026 -0.7116 -0.8942
   58SAPC   H7Y 4390   5.732   3.992   9.795  0.3941 -1.3865 -0.0606
   58SAPC   C38 4391   5.939   4.055   9.773  0.2034  0.5788 -0.4274
   58SAPC   H8X 4392   5.964   3.950   9.800 -3.9909 -0.6006 -0.5237
   58SAPC   H8Y 4393   6.007   4.126   9.824  0.2308  0.1003  0.2138
   58SAPC   C39 4394   5.931   4.059   9.625  0.4904  0.5423  0.1456
   58SAPC   H9X 4395   5.876   4.151   9.598 -0.7643 -0.1910  0.1076
   58SAPC   H9Y 4396   5.877   3.967   9.592  0.4975  0.6169 -0.0765
   58SAPC  C310 4397   6.067   4.058   9.559 -0.4244 -0.4353 -0.0544
   58SAPC  H10X 4398   6.121   3.965   9.586 -2.1397 -0.8493  2.2290
   58SAPC  H10Y 4399   6.126   4.143   9.600  1.9946 -1.4149 -1.3465
   58SAPC  C311 4400   6.066   4.062   9.405  0.1207  0.8630 -0.0519
   58SAPC  H11X 4401   5.985   4.133   9.377 -1.4885  0.5096  3.2077
   58SAPC  H11Y 4402   6.025   3.963   9.378 -0.6769  0.8823  1.0193
   58SAPC  C312 4403   6.202   4.104   9.333  0.2736  0.0521  0.1872
   58SAPC  H12X 4404   6.285   4.046   9.378 -2.0376 -2.1242  1.9650
   58SAPC  H12Y 4405   6.213   4.214   9.342  2.2253 -0.1659  0.8410
   58SAPC  C313 4406   6.203   4.057   9.184  0.3728  0.5866 -0.0375
   58SAPC  H13X 4407   6.109   4.100   9.142 -0.3610 -0.8864  0.0411
   58SAPC  H13Y 4408   6.195   3.946   9.184 -0.4148  0.6166 -1.2805
   58SAPC  C314 4409   6.322   4.103   9.092  0.3110  0.4238  0.1549
   58SAPC  H14X 4410   6.405   4.075   9.160 -1.4556 -0.5296  2.0491
   58SAPC  H14Y 4411   6.329   4.213   9.084  0.8781  0.2587 -4.2701
   58SAPC  C315 4412   6.302   4.035   8.953  0.6410 -0.5321  0.6543
   58SAPC  H15X 4413   6.319   3.925   8.956 -2.5184 -1.0962  1.7751
   58SAPC  H15Y 4414   6.379   4.062   8.878  0.1803 -3.6277 -1.1292
   58SAPC  C316 4415   6.160   4.059   8.893 -0.7247  0.3425  0.4592
   58SAPC  H16X 4416   6.114   4.152   8.933  0.8748  1.2143  0.3618
   58SAPC  H16Y 4417   6.092   3.979   8.928 -0.5917  0.5245  1.1519
   58SAPC  C317 4418   6.173   4.052   8.738 -0.2967 -0.6594  0.1089
   58SAPC  H17X 4419   6.218   3.956   8.705 -1.1378 -0.9536 -0.1966
   58SAPC  H17Y 4420   6.233   4.141   8.710  1.4187 -1.7980 -0.0179
   58SAPC  C318 4421   6.036   4.063   8.663 -0.4463  0.6240 -0.1792
   58SAPC  H18X 4422   6.041   4.057   8.552  2.1134 -1.3816 -0.0594
   58SAPC  H18Y 4423   5.983   4.156   8.689 -0.2227  0.2989  1.5600
   58SAPC  H18Z 4424   5.966   3.980   8.687  2.2362 -1.2229  1.8684
   59SAPC     N 4425   2.474   5.379  11.248  0.2163  0.1397 -0.0015
   59SAPC   C12 4426   2.575   5.395  11.132 -0.3752  0.3475 -0.6090
   59SAPC  H12A 4427   2.577   5.302  11.077  2.2526  0.6606 -1.2012
   59SAPC  H12B 4428   2.674   5.421  11.168 -0.3468 -0.8121  0.2006
   59SAPC   C13 4429   2.336   5.337  11.202 -0.3523 -0.2106  0.1552
   59SAPC  H13A 4430   2.265   5.335  11.283 -0.1909  0.2049  0.3117
   59SAPC  H13B 4431   2.303   5.405  11.124 -0.6618  2.8460  2.7564
   59SAPC  H13C 4432   2.338   5.246  11.144  0.9009 -0.4976  0.6321
   59SAPC   C14 4433   2.524   5.275  11.345  0.2200  0.4525  0.0522
   59SAPC  H14A 4434   2.573   5.199  11.285  1.8110  0.6898  1.0131
   59SAPC  H14B 4435   2.607   5.311  11.404 -0.3644 -1.4166  2.1553
   59SAPC  H14C 4436   2.444   5.235  11.405 -0.0355 -0.8627 -1.1186
   59SAPC   C15 4437   2.452   5.511  11.312 -0.3403 -0.5607 -0.6899
   59SAPC  H15A 4438   2.408   5.581  11.243 -0.4829  1.5288  1.3891
   59SAPC  H15B 4439   2.397   5.501  11.404 -0.4659 -0.9069 -0.8036
   59SAPC  H15C 4440   2.547   5.555  11.338 -1.6683  2.9542 -1.2715
   59SAPC   C11 4441   2.543   5.503  11.031 -0.7310 -0.1169 -0.0235
   59SAPC  H11A 4442   2.632   5.514  10.966  1.1462  2.5899  2.7047
   59SAPC  H11B 4443   2.540   5.603  11.079 -0.1600 -0.4797  0.8000
   59SAPC     P 4444   2.321   5.590  10.916 -0.5468  0.0762  0.1534
   59SAPC   O13 4445   2.187   5.543  10.872 -0.7209 -0.6001  0.5730
   59SAPC   O14 4446   2.331   5.701  11.012 -0.1540 -0.0257  0.0592
   59SAPC   O12 4447   2.425   5.475  10.958 -0.0658  0.3056 -0.1954
   59SAPC   O11 4448   2.401   5.636  10.784 -0.4073  0.0205 -0.7892
   59SAPC    C1 4449   2.441   5.540  10.682  0.0397 -0.3383 -0.1258
   59SAPC    HA 4450   2.542   5.575  10.652 -0.4455  0.3499 -1.0096
   59SAPC    HB 4451   2.439   5.437  10.724 -1.3166  0.5011  2.0288
   59SAPC    C2 4452   2.351   5.553  10.561  0.1582 -0.5917 -0.3855
   59SAPC    HS 4453   2.247   5.521  10.580 -0.6333  1.7906 -0.4080
   59SAPC   O21 4454   2.405   5.475  10.449  0.1142  0.4434  0.3302
   59SAPC   C21 4455   2.380   5.349  10.453  0.9341  0.0498  0.0808
   59SAPC   O22 4456   2.315   5.287  10.539  0.2657 -0.6972  0.8222
   59SAPC   C22 4457   2.470   5.286  10.357 -0.3776  0.4989  0.0681
   59SAPC   H2R 4458   2.463   5.335  10.258  0.3059 -1.2052 -0.8673
   59SAPC   H2S 4459   2.575   5.309  10.383 -0.7495  2.0141  0.3455
   59SAPC    C3 4460   2.343   5.708  10.520  0.2519 -0.4675 -0.0369
   59SAPC    HX 4461   2.447   5.724  10.487 -0.1418 -0.2250 -1.1984
   59SAPC    HY 4462   2.305   5.762  10.610  0.0826  0.9348 -0.9203
   59SAPC   O31 4463   2.259   5.754  10.409 -0.6398  0.1365  0.6689
   59SAPC   C31 4464   2.134   5.731  10.415 -0.4023  0.0498  0.4211
   59SAPC   O32 4465   2.070   5.678  10.505  0.1651  0.4153 -0.0424
   59SAPC   C32 4466   2.073   5.785  10.293  0.4565 -0.3840 -0.2201
   59SAPC   H2X 4467   2.113   5.738  10.201  1.9571  2.2092 -0.9886
   59SAPC   H2Y 4468   2.092   5.893  10.276  0.0638 -0.7916 -4.0630
   59SAPC   C23 4469   2.460   5.139  10.340  0.1195 -0.1913  0.1966
   59SAPC   H3R 4470   2.354   5.105  10.339 -0.0906  0.3991 -1.4431
   59SAPC   H3S 4471   2.509   5.080  10.420 -0.0178 -1.4825 -0.6395
   59SAPC   C24 4472   2.542   5.082  10.219 -0.6486 -0.5869 -0.0906
   59SAPC   H4R 4473   2.647   5.116  10.222 -0.6783 -0.5227  0.2936
   59SAPC   H4S 4474   2.499   5.129  10.128 -0.2897 -0.5020 -0.2168
   59SAPC   C25 4475   2.545   4.931  10.197 -0.4322 -0.1126  0.2013
   59SAPC   H5R 4476   2.598   4.886  10.283 -0.1560 -0.7795 -0.3117
   59SAPC   C26 4477   2.540   4.861  10.084  0.4382 -0.2706 -0.2590
   59SAPC   H6R 4478   2.537   4.751  10.091 -2.8582 -0.2867 -0.0710
   59SAPC   C27 4479   2.509   4.936   9.954 -0.0721  0.1104 -0.9109
   59SAPC   H7R 4480   2.586   5.014   9.935  1.6108 -1.4595 -0.8618
   59SAPC   H7S 4481   2.408   4.977   9.974 -0.3517 -0.6664 -0.7076
   59SAPC   C28 4482   2.494   4.852   9.831 -0.4964  0.3733  0.6254
   59SAPC   H8R 4483   2.494   4.743   9.843  1.4859  0.2493 -0.0778
   59SAPC   C29 4484   2.477   4.898   9.708  0.1284  0.4367 -0.1801
   59SAPC   H9R 4485   2.483   4.838   9.616 -0.9880  1.7695 -1.1514
   59SAPC  C210 4486   2.471   5.041   9.673 -0.3479  0.1253 -0.2288
   59SAPC  H10R 4487   2.450   5.099   9.765 -2.6284  0.5631 -0.9699
   59SAPC  H10S 4488   2.386   5.071   9.608 -0.9532  0.1133  0.5501
   59SAPC  C211 4489   2.602   5.079   9.614  0.4075 -0.0130 -0.3475
   59SAPC  H11R 4490   2.659   5.136   9.689 -1.1437  0.2885  0.6596
   59SAPC  C212 4491   2.659   5.055   9.499 -0.4393 -0.6308 -0.0652
   59SAPC  H12R 4492   2.753   5.108   9.481 -0.5141  0.0252  1.3781
   59SAPC  C213 4493   2.601   4.983   9.378  0.1555 -0.8989  0.4106
   59SAPC  H13R 4494   2.634   5.051   9.296 -0.4074 -0.6200  0.4167
   59SAPC  H13S 4495   2.491   4.980   9.389 -0.1766 -0.7612 -2.1512
   59SAPC  C214 4496   2.661   4.844   9.361  0.1916  0.3176  0.0100
   59SAPC  H14R 4497   2.687   4.803   9.460  2.1088 -1.4966 -1.1474
   59SAPC  C215 4498   2.655   4.772   9.250 -0.3552 -0.8621 -0.6585
   59SAPC  H15R 4499   2.687   4.667   9.254 -2.1923 -1.5139 -1.8326
   59SAPC  C216 4500   2.601   4.820   9.117  0.1370  0.3299 -0.4836
   59SAPC  H16R 4501   2.529   4.905   9.124 -1.0299 -0.6388 -0.3826
   59SAPC  H16S 4502   2.552   4.731   9.072 -0.6020  0.5972 -0.2241
   59SAPC  C217 4503   2.722   4.858   9.020  0.7213  0.1264 -0.0157
   59SAPC  H17R 4504   2.789   4.770   9.010 -0.1513 -0.4629 -0.7879
   59SAPC  H17S 4505   2.777   4.939   9.072 -0.3618 -0.3929  2.0644
   59SAPC  C218 4506   2.657   4.900   8.889 -0.4443  0.1596  0.7276
   59SAPC  H18R 4507   2.586   4.982   8.911 -0.9179  0.0426 -0.3288
   59SAPC  H18S 4508   2.611   4.812   8.840  0.3314  0.2943 -0.2899
   59SAPC  C219 4509   2.753   4.964   8.790 -0.3882  0.7071 -0.4727
   59SAPC  H19R 4510   2.816   4.879   8.758 -2.9783 -0.6320 -2.3691
   59SAPC  H19S 4511   2.811   5.046   8.838  2.0336  0.4582 -2.7710
   59SAPC  C220 4512   2.678   5.028   8.673 -0.0273 -0.3769  0.4415
   59SAPC  H20R 4513   2.624   4.956   8.607 -0.7335 -1.5345  2.1984
   59SAPC  H20S 4514   2.743   5.085   8.604 -1.7257  1.3363  0.1672
   59SAPC  H20T 4515   2.606   5.103   8.710 -0.5299  0.0255 -1.2521
   59SAPC   C33 4516   1.921   5.751  10.286  0.5928 -0.2391  0.8688
   59SAPC   H3X 4517   1.885   5.824  10.361  0.2531  0.9860 -0.4278
   59SAPC   H3Y 4518   1.897   5.648  10.320 -2.9148 -0.4839 -1.7526
   59SAPC   C34 4519   1.863   5.778  10.147 -1.0549  1.1058 -0.2436
   59SAPC   H4X 4520   1.753   5.771  10.132 -1.0935 -0.3941  0.5176
   59SAPC   H4Y 4521   1.897   5.699  10.077 -0.0372  2.7463 -1.6528
   59SAPC   C35 4522   1.910   5.904  10.071 -0.2577 -0.5387  0.9093
   59SAPC   H5X 4523   2.020   5.906  10.054 -0.5478  0.5835 -1.1638
   59SAPC   H5Y 4524   1.878   5.995  10.125 -1.1591 -0.3387  0.0741
   59SAPC   C36 4525   1.835   5.918   9.937  0.1432  0.1731  0.7081
   59SAPC   H6X 4526   1.727   5.936   9.955  0.3607  2.6313 -0.1207
   59SAPC   H6Y 4527   1.849   5.828   9.873  0.9094  1.4253 -0.9517
   59SAPC   C37 4528   1.901   6.029   9.846 -0.1768  0.2321  0.6471
   59SAPC   H7X 4529   2.006   5.995   9.843 -0.6460 -1.3948 -3.2741
   59SAPC   H7Y 4530   1.895   6.118   9.912 -2.1160  1.0458 -0.5097
   59SAPC   C38 4531   1.835   6.050   9.707 -0.0824 -0.0890  0.5971
   59SAPC   H8X 4532   1.885   6.139   9.662 -0.4476 -0.1560  0.0467
   59SAPC   H8Y 4533   1.732   6.085   9.731  0.0167  0.7066 -0.1081
   59SAPC   C39 4534   1.837   5.933   9.611  0.2923  0.3501 -0.6227
   59SAPC   H9X 4535   1.773   5.855   9.656  0.0795 -1.3652 -3.6492
   59SAPC   H9Y 4536   1.942   5.896   9.618 -0.2545 -0.9466  1.5773
   59SAPC  C310 4537   1.793   5.955   9.470 -0.0715 -0.9045  0.4359
   59SAPC  H10X 4538   1.790   5.867   9.402 -1.1665 -0.0568 -0.6479
   59SAPC  H10Y 4539   1.859   6.024   9.413 -0.5109 -0.3740  0.5597
   59SAPC  C311 4540   1.661   6.027   9.460  0.7996 -0.8002  0.6693
   59SAPC  H11X 4541   1.686   6.134   9.477  0.1018 -0.5118 -0.0269
   59SAPC  H11Y 4542   1.602   5.979   9.541 -1.2839 -2.3549 -1.6187
   59SAPC  C312 4543   1.595   6.017   9.321  0.5291 -0.6716  0.4082
   59SAPC  H12X 4544   1.497   6.068   9.311  0.3213 -1.4485 -2.8053
   59SAPC  H12Y 4545   1.582   5.908   9.306  2.0477 -1.0631  1.7348
   59SAPC  C313 4546   1.690   6.069   9.212  0.2260  0.2890  0.2321
   59SAPC  H13X 4547   1.771   5.994   9.199 -0.2663 -0.3783  0.9910
   59SAPC  H13Y 4548   1.742   6.162   9.245  2.7030 -1.3512  1.2298
   59SAPC  C314 4549   1.626   6.074   9.077  0.5436 -0.1063  0.4175
   59SAPC  H14X 4550   1.525   6.029   9.065  1.1497 -1.5090  0.3169
   59SAPC  H14Y 4551   1.691   6.012   9.011  2.7999  1.5105  0.9884
   59SAPC  C315 4552   1.640   6.206   9.005  0.0694 -0.6616  0.2092
   59SAPC  H15X 4553   1.739   6.251   9.030  0.5699 -1.9075  0.5600
   59SAPC  H15Y 4554   1.568   6.279   9.047  0.5139 -0.3843  0.5054
   59SAPC  C316 4555   1.647   6.202   8.852 -0.5922 -0.1217 -0.5483
   59SAPC  H16X 4556   1.734   6.140   8.822  0.2107  0.9703 -0.5452
   59SAPC  H16Y 4557   1.681   6.300   8.811  0.6176 -0.8589 -1.3934
   59SAPC  C317 4558   1.519   6.179   8.766  0.5845 -0.2162 -0.7478
   59SAPC  H17X 4559   1.443   6.256   8.792 -0.5145 -2.1792  2.6094
   59SAPC  H17Y 4560   1.470   6.089   8.809 -0.1924 -0.2152 -1.5909
   59SAPC  C318 4561   1.534   6.177   8.615 -0.1154 -0.0345  0.1713
   59SAPC  H18X 4562   1.587   6.086   8.582 -1.9168 -2.2255  2.8714
   59SAPC  H18Y 4563   1.579   6.272   8.579  1.0069 -0.7610 -0.4008
   59SAPC  H18Z 4564   1.430   6.158   8.581  0.2098 -0.8279 -0.4156
   60SAPC     N 4565   3.672   3.690  11.081 -0.4113 -0.0584  0.4353
   60SAPC   C12 4566   3.581   3.712  10.960  0.1072  0.2674  0.4425
   60SAPC  H12A 4567   3.511   3.790  10.985  0.3185  1.4590 -2.2581
   60SAPC  H12B 4568   3.520   3.625  10.939 -0.7933  1.5445 -2.9208
   60SAPC   C13 4569   3.757   3.818  11.103  0.1555  0.7666  0.3437
   60SAPC  H13A 4570   3.816   3.832  11.014 -0.7730 -0.9320 -0.6112
   60SAPC  H13B 4571   3.695   3.906  11.113 -0.5216  0.3485 -0.0557
   60SAPC  H13C 4572   3.816   3.804  11.192  0.3772 -0.1766  0.0661
   60SAPC   C14 4573   3.589   3.659  11.205  0.5928 -0.4817 -0.0825
   60SAPC  H14A 4574   3.648   3.635  11.292  0.6730  1.5040  0.4704
   60SAPC  H14B 4575   3.526   3.746  11.218  0.7562 -0.5512  1.3878
   60SAPC  H14C 4576   3.522   3.576  11.195 -0.2447  0.2029 -0.2527
   60SAPC   C15 4577   3.766   3.578  11.053  0.1567 -0.3089  0.5614
   60SAPC  H15A 4578   3.830   3.558  11.137  0.3258  2.6202  1.2458
   60SAPC  H15B 4579   3.714   3.485  11.035 -0.6893  0.2006  0.2735
   60SAPC  H15C 4580   3.825   3.598  10.965 -0.9196 -0.2309 -0.1564
   60SAPC   C11 4581   3.649   3.751  10.827  0.8928 -0.0711 -0.2761
   60SAPC  H11A 4582   3.569   3.753  10.750 -0.2261  2.1724  0.8627
   60SAPC  H11B 4583   3.734   3.682  10.805  1.0373 -1.0404  2.8449
   60SAPC     P 4584   3.631   4.017  10.815 -0.1373 -0.0043 -0.3428
   60SAPC   O13 4585   3.501   4.019  10.874 -0.0565  0.0580 -0.0967
   60SAPC   O14 4586   3.734   4.116  10.870  0.3825  0.0054  0.0703
   60SAPC   O12 4587   3.708   3.879  10.826 -0.0686 -0.3670  0.0737
   60SAPC   O11 4588   3.626   4.036  10.658 -0.1063 -0.4196 -0.2514
   60SAPC    C1 4589   3.719   3.986  10.560 -0.4518 -0.5078 -0.3666
   60SAPC    HA 4590   3.790   4.067  10.531 -2.0493  0.9237 -0.4219
   60SAPC    HB 4591   3.782   3.908  10.609 -0.8267  0.8491  2.4656
   60SAPC    C2 4592   3.641   3.934  10.439 -0.0873 -0.4016  0.0079
   60SAPC    HS 4593   3.719   3.887  10.375  0.6047 -0.1138  0.6233
   60SAPC   O21 4594   3.566   4.034  10.367 -0.4403 -0.1561  0.1492
   60SAPC   C21 4595   3.645   4.093  10.272  0.4398 -0.5604 -0.8249
   60SAPC   O22 4596   3.765   4.065  10.255  0.5825 -0.4234 -0.1771
   60SAPC   C22 4597   3.576   4.209  10.202  0.3890  0.1394  0.0346
   60SAPC   H2R 4598   3.528   4.273  10.279 -0.2124 -1.0051  0.6511
   60SAPC   H2S 4599   3.650   4.269  10.146  0.4520  0.8318  0.8363
   60SAPC    C3 4600   3.557   3.806  10.480 -0.1298 -0.3153  0.1191
   60SAPC    HX 4601   3.472   3.847  10.538  0.8966  3.6278 -0.8848
   60SAPC    HY 4602   3.610   3.737  10.549  0.7685  0.0241 -0.2217
   60SAPC   O31 4603   3.499   3.733  10.374 -0.1218 -0.6389 -0.5783
   60SAPC   C31 4604   3.583   3.649  10.315 -0.8976  0.6629  0.0944
   60SAPC   O32 4605   3.704   3.639  10.335 -0.3379  0.0139  0.4614
   60SAPC   C32 4606   3.501   3.566  10.222 -0.0498  0.1261 -0.0878
   60SAPC   H2X 4607   3.438   3.631  10.157  0.7612  0.3956 -0.6189
   60SAPC   H2Y 4608   3.440   3.502  10.290  2.7588 -0.1338  2.3744
   60SAPC   C23 4609   3.467   4.156  10.107  0.2345  0.7115  0.8608
   60SAPC   H3R 4610   3.423   4.242  10.053 -2.2756  0.4019  2.2671
   60SAPC   H3S 4611   3.387   4.107  10.167 -1.0150  1.1792 -0.3731
   60SAPC   C24 4612   3.526   4.064   9.993 -0.3369  0.6909 -0.3125
   60SAPC   H4R 4613   3.622   4.106   9.957 -1.1448  1.1356 -2.0352
   60SAPC   H4S 4614   3.455   4.077   9.909 -0.0739  1.1149 -0.4726
   60SAPC   C25 4615   3.536   3.914  10.019  0.3258 -0.0471 -0.2439
   60SAPC   H5R 4616   3.509   3.878  10.119 -1.2781  1.0838 -0.2305
   60SAPC   C26 4617   3.564   3.825   9.924 -0.2951  0.2071 -0.7700
   60SAPC   H6R 4618   3.586   3.727   9.971  1.2852  2.2574  3.2651
   60SAPC   C27 4619   3.601   3.853   9.783 -0.0710 -0.1054 -0.1948
   60SAPC   H7R 4620   3.642   3.956   9.773  1.6862 -0.9080 -1.9067
   60SAPC   H7S 4621   3.510   3.845   9.719  1.4176 -2.2021 -2.2245
   60SAPC   C28 4622   3.703   3.757   9.731  0.7179 -0.9531 -0.4972
   60SAPC   H8R 4623   3.768   3.709   9.806  2.8234 -1.2114 -2.3676
   60SAPC   C29 4624   3.720   3.724   9.606 -0.5831 -0.0057 -0.4824
   60SAPC   H9R 4625   3.808   3.667   9.574 -2.0534 -2.2894 -0.6959
   60SAPC  C210 4626   3.641   3.775   9.488  0.0391  0.0345 -0.0942
   60SAPC  H10R 4627   3.538   3.798   9.524 -0.0537 -1.0882  0.4146
   60SAPC  H10S 4628   3.626   3.692   9.416  3.0790  1.3286 -2.4073
   60SAPC  C211 4629   3.703   3.899   9.420 -0.1001  0.4019  0.0949
   60SAPC  H11R 4630   3.781   3.953   9.475 -1.6098  1.9129  0.8385
   60SAPC  C212 4631   3.674   3.945   9.295 -0.3463  0.1050  0.1496
   60SAPC  H12R 4632   3.728   4.032   9.255  0.6546 -0.6828 -0.2651
   60SAPC  C213 4633   3.574   3.883   9.206  0.1186  0.1254  1.1124
   60SAPC  H13R 4634   3.507   3.818   9.267  1.2160 -0.3143  1.9000
   60SAPC  H13S 4635   3.633   3.814   9.141 -0.9383 -0.3820  0.6666
   60SAPC  C214 4636   3.489   3.982   9.132  0.0333 -0.0533  0.5079
   60SAPC  H14R 4637   3.426   4.048   9.193  3.3727  2.3586  1.6480
   60SAPC  C215 4638   3.483   3.983   8.999  0.2855 -0.4741  0.4800
   60SAPC  H15R 4639   3.403   4.028   8.938  0.4623 -0.8239 -0.0101
   60SAPC  C216 4640   3.560   3.904   8.897 -0.1979 -0.1487  0.1011
   60SAPC  H16R 4641   3.482   3.847   8.842  0.4262 -0.5525 -0.3793
   60SAPC  H16S 4642   3.622   3.820   8.936  1.0160  1.4177  1.7389
   60SAPC  C217 4643   3.648   3.981   8.795  1.1160  0.6382  0.0063
   60SAPC  H17R 4644   3.719   4.056   8.834  1.9201  1.3213 -2.5944
   60SAPC  H17S 4645   3.586   4.042   8.725 -0.4981 -2.4200 -1.4476
   60SAPC  C218 4646   3.738   3.888   8.710  0.4917  0.0692 -0.1835
   60SAPC  H18R 4647   3.820   3.831   8.759  0.3388  0.5187  0.6269
   60SAPC  H18S 4648   3.793   3.948   8.634 -0.0783 -0.5048 -1.0672
   60SAPC  C219 4649   3.653   3.789   8.633  0.0757 -0.0939  0.1703
   60SAPC  H19R 4650   3.554   3.832   8.609 -0.5062 -1.7804 -0.6515
   60SAPC  H19S 4651   3.623   3.707   8.702  1.4383  0.0228  0.9460
   60SAPC  C220 4652   3.723   3.719   8.510  0.0396 -0.1713  0.2743
   60SAPC  H20R 4653   3.830   3.700   8.531 -0.0903  0.3391  1.4436
   60SAPC  H20S 4654   3.706   3.787   8.423 -0.7263  1.4990  1.6787
   60SAPC  H20T 4655   3.678   3.621   8.484  1.3486 -0.4449 -1.1811
   60SAPC   C33 4656   3.577   3.469  10.131 -0.0691  0.4002  0.7210
   60SAPC   H3X 4657   3.633   3.401  10.199  0.8285  0.2033 -0.2001
   60SAPC   H3Y 4658   3.648   3.517  10.061  0.4313 -1.7248 -0.3350
   60SAPC   C34 4659   3.474   3.397  10.042  0.1426 -0.3811 -0.2489
   60SAPC   H4X 4660   3.452   3.469   9.960 -0.0260  0.4044  0.4686
   60SAPC   H4Y 4661   3.393   3.371  10.114  1.7677 -0.7139  1.5599
   60SAPC   C35 4662   3.542   3.275   9.987  0.0643  0.2319 -0.0511
   60SAPC   H5X 4663   3.521   3.194  10.060 -0.0165 -0.2598 -0.6088
   60SAPC   H5Y 4664   3.651   3.294   9.986 -0.0120  1.3640  3.1372
   60SAPC   C36 4665   3.507   3.237   9.848 -0.0549 -0.0017  0.6043
   60SAPC   H6X 4666   3.534   3.132   9.825 -1.4189  0.0021 -1.2718
   60SAPC   H6Y 4667   3.553   3.308   9.776  0.3060 -0.1257  0.7127
   60SAPC   C37 4668   3.359   3.259   9.822  0.0621 -0.3929  0.3970
   60SAPC   H7X 4669   3.313   3.357   9.844 -4.0186 -1.7854 -1.0165
   60SAPC   H7Y 4670   3.298   3.187   9.881 -2.5158  0.9627 -0.4434
   60SAPC   C38 4671   3.320   3.231   9.671  0.3094  0.4203 -0.0802
   60SAPC   H8X 4672   3.409   3.254   9.609  0.5931  1.6562  0.7580
   60SAPC   H8Y 4673   3.232   3.295   9.649 -0.9330 -0.8602  0.9564
   60SAPC   C39 4674   3.271   3.089   9.648 -0.4868 -0.0642 -0.3459
   60SAPC   H9X 4675   3.197   3.069   9.729  0.1107  1.9866  0.7938
   60SAPC   H9Y 4676   3.363   3.032   9.670 -1.0205 -0.9302 -0.3070
   60SAPC  C310 4677   3.228   3.041   9.506 -0.3326  0.2965 -0.2073
   60SAPC  H10X 4678   3.123   3.076   9.497 -0.9511 -1.5668 -0.5401
   60SAPC  H10Y 4679   3.219   2.931   9.498 -3.4619  0.5578 -1.6807
   60SAPC  C311 4680   3.317   3.100   9.397 -0.1951  0.3343  0.3566
   60SAPC  H11X 4681   3.425   3.082   9.416 -0.1811  0.5461  0.4718
   60SAPC  H11Y 4682   3.312   3.210   9.385  3.4504  0.5740 -0.1619
   60SAPC  C312 4683   3.277   3.037   9.261 -0.7336 -0.0460 -0.3402
   60SAPC  H12X 4684   3.171   3.056   9.236 -0.3287 -0.1515 -2.2687
   60SAPC  H12Y 4685   3.297   2.928   9.258  2.8837  0.4239  0.8287
   60SAPC  C313 4686   3.359   3.103   9.153  0.2237 -0.4909  0.7029
   60SAPC  H13X 4687   3.467   3.078   9.157 -0.4164 -3.8774 -0.1643
   60SAPC  H13Y 4688   3.350   3.214   9.151  0.9128 -0.4235  1.1389
   60SAPC  C314 4689   3.317   3.059   9.011  0.2182  0.9597 -0.3349
   60SAPC  H14X 4690   3.206   3.065   9.010 -0.0349 -1.4608  2.2514
   60SAPC  H14Y 4691   3.349   2.953   9.010  0.5572  1.0419  0.6474
   60SAPC  C315 4692   3.374   3.132   8.896  0.3555 -0.1769  0.6648
   60SAPC  H15X 4693   3.483   3.119   8.915  0.5565  0.6692  0.1350
   60SAPC  H15Y 4694   3.363   3.243   8.902  0.1908 -0.2022  0.8317
   60SAPC  C316 4695   3.331   3.080   8.759  0.2424  0.6840 -0.4075
   60SAPC  H16X 4696   3.253   3.003   8.776  0.2718  0.4671 -1.2165
   60SAPC  H16Y 4697   3.417   3.026   8.714  1.0314  0.9222  0.7577
   60SAPC  C317 4698   3.262   3.176   8.658  0.1555  0.6068  0.2113
   60SAPC  H17X 4699   3.322   3.269   8.665  1.4131 -0.0995 -0.7890
   60SAPC  H17Y 4700   3.155   3.195   8.680 -0.7296 -0.3623 -2.7744
   60SAPC  C318 4701   3.254   3.124   8.512 -0.4353  0.1706  0.1762
   60SAPC  H18X 4702   3.358   3.094   8.484  0.5490  0.9351  2.7362
   60SAPC  H18Y 4703   3.222   3.208   8.447  1.9535  1.2343  0.2684
   60SAPC  H18Z 4704   3.188   3.035   8.501 -0.2541  0.0008  0.4378
   61SAPC     N 4705   5.077   3.762  11.082 -0.2188  0.0674 -0.1610
   61SAPC   C12 4706   5.172   3.646  11.054  0.0746  0.3229 -0.2582
   61SAPC  H12A 4707   5.227   3.619  11.143 -1.3157 -0.2832  0.4497
   61SAPC  H12B 4708   5.254   3.670  10.988  0.2348 -0.3466 -0.3096
   61SAPC   C13 4709   5.162   3.877  11.131  0.2182  0.7400  0.0126
   61SAPC  H13A 4710   5.204   3.847  11.226 -0.0375  1.0953  0.2403
   61SAPC  H13B 4711   5.239   3.909  11.062 -0.9337  0.0279 -1.6705
   61SAPC  H13C 4712   5.105   3.967  11.150  0.8408  1.2112 -0.3198
   61SAPC   C14 4713   5.001   3.804  10.960  0.3490  0.7109  0.1935
   61SAPC  H14A 4714   4.950   3.725  10.907 -0.9289  1.4909  0.2154
   61SAPC  H14B 4715   4.937   3.889  10.981 -0.6585 -0.0921  0.4936
   61SAPC  H14C 4716   5.077   3.847  10.896  1.4092  1.0652  1.6338
   61SAPC   C15 4717   4.986   3.719  11.185  0.6610  0.5534 -0.7720
   61SAPC  H15A 4718   5.035   3.695  11.278  1.5788 -2.5581 -1.9546
   61SAPC  H15B 4719   4.908   3.794  11.192  0.8856  0.9681 -2.3246
   61SAPC  H15C 4720   4.937   3.629  11.151  2.0132 -1.0006  1.1570
   61SAPC   C11 4721   5.110   3.513  11.016 -0.1069  1.0490 -0.1410
   61SAPC  H11A 4722   5.055   3.524  10.920  1.3667 -2.2650 -1.5183
   61SAPC  H11B 4723   5.054   3.479  11.106  2.4639 -4.1205 -0.1177
   61SAPC     P 4724   5.209   3.303  10.903  0.3445  0.2971 -0.0505
   61SAPC   O13 4725   5.342   3.259  10.857 -0.1880 -0.1751  0.4014
   61SAPC   O14 4726   5.129   3.201  10.978 -0.7190 -0.7204 -0.4681
   61SAPC   O12 4727   5.225   3.431  10.993 -0.3409  0.1648  0.4013
   61SAPC   O11 4728   5.128   3.360  10.777 -0.1381 -0.0459  0.3995
   61SAPC    C1 4729   5.049   3.268  10.694 -0.4557 -0.0082 -0.1076
   61SAPC    HA 4730   5.112   3.204  10.629 -1.9647  0.4736 -2.1455
   61SAPC    HB 4731   4.980   3.201  10.747 -1.8486 -0.0792 -1.9075
   61SAPC    C2 4732   4.961   3.346  10.599  0.4676  0.3880 -0.3090
   61SAPC    HS 4733   4.869   3.291  10.571  1.2028  0.0962 -2.2898
   61SAPC   O21 4734   5.022   3.402  10.486  0.2516  0.2417 -0.2305
   61SAPC   C21 4735   5.046   3.317  10.387 -0.4829 -0.3703  0.1200
   61SAPC   O22 4736   5.060   3.198  10.395 -0.0318  0.4843 -0.1295
   61SAPC   C22 4737   5.065   3.406  10.267 -0.4417  0.6520 -0.5455
   61SAPC   H2R 4738   4.987   3.485  10.263 -2.0859 -0.7248  1.9517
   61SAPC   H2S 4739   5.161   3.462  10.265  0.6219 -0.8946  2.0449
   61SAPC    C3 4740   4.894   3.453  10.693 -0.3148  0.0396 -0.0469
   61SAPC    HX 4741   4.971   3.532  10.706  0.4511  0.2439 -4.2019
   61SAPC    HY 4742   4.856   3.393  10.778 -0.8209  0.3538 -0.0506
   61SAPC   O31 4743   4.784   3.513  10.612  0.7327  0.1168  0.2205
   61SAPC   C31 4744   4.753   3.636  10.644 -0.1466  0.5933  0.4402
   61SAPC   O32 4745   4.803   3.698  10.736  0.9753  0.5317  0.2470
   61SAPC   C32 4746   4.636   3.684  10.556  0.2882  0.3134  0.6789
   61SAPC   H2X 4747   4.612   3.789  10.583 -2.5393  0.2928 -1.2482
   61SAPC   H2Y 4748   4.553   3.616  10.585  1.7149 -1.7713  0.0404
   61SAPC   C23 4749   5.056   3.336  10.133  0.1957  0.5121  0.3148
   61SAPC   H3R 4750   4.974   3.261  10.134  0.5819  0.0519 -0.7361
   61SAPC   H3S 4751   5.148   3.276  10.111  0.8147  0.9717  1.5663
   61SAPC   C24 4752   5.028   3.436  10.019  0.0069 -0.5717  0.4966
   61SAPC   H4R 4753   5.024   3.371   9.929 -0.1984  1.7096 -1.2271
   61SAPC   H4S 4754   5.121   3.495  10.017 -1.3120  1.6197 -2.0721
   61SAPC   C25 4755   4.900   3.522  10.021  0.1153 -0.3518  0.0280
   61SAPC   H5R 4756   4.828   3.478  10.092  0.0513  0.6551  0.5958
   61SAPC   C26 4757   4.870   3.637   9.965  0.2438  0.2161 -1.0879
   61SAPC   H6R 4758   4.768   3.678   9.974  1.1351  2.3319  0.5213
   61SAPC   C27 4759   4.961   3.723   9.880 -0.2604  0.1798  0.8101
   61SAPC   H7R 4760   5.059   3.672   9.867 -0.9114 -0.8311 -0.2923
   61SAPC   H7S 4761   4.976   3.821   9.930 -2.5476  0.9954  0.0126
   61SAPC   C28 4762   4.899   3.756   9.742  0.2832 -0.9469 -0.2134
   61SAPC   H8R 4763   4.808   3.816   9.756  0.2467 -0.5414 -1.9122
   61SAPC   C29 4764   4.941   3.721   9.619  0.2665  0.1212  0.0830
   61SAPC   H9R 4765   4.866   3.737   9.540  0.7514  0.0721 -0.3914
   61SAPC  C210 4766   5.049   3.621   9.590 -0.1794 -0.3149  0.4146
   61SAPC  H10R 4767   5.016   3.576   9.494 -0.5416  0.9773 -0.0885
   61SAPC  H10S 4768   5.048   3.544   9.669 -0.9038  0.4943  1.2091
   61SAPC  C211 4769   5.182   3.698   9.579  0.2884 -0.3604  0.4263
   61SAPC  H11R 4770   5.198   3.738   9.681 -3.0176 -1.0500  1.3310
   61SAPC  C212 4771   5.270   3.710   9.477  0.2469  0.0081  0.4514
   61SAPC  H12R 4772   5.364   3.761   9.500  0.8730 -1.0364  0.2507
   61SAPC  C213 4773   5.261   3.653   9.338  0.8655  0.2597  1.0198
   61SAPC  H13R 4774   5.265   3.738   9.267  1.4068 -0.7276 -0.1658
   61SAPC  H13S 4775   5.161   3.608   9.318  0.9472  0.0958  0.9854
   61SAPC  C214 4776   5.365   3.553   9.296  0.2864  1.1754 -0.0596
   61SAPC  H14R 4777   5.423   3.508   9.378 -2.6573 -1.3924  0.8297
   61SAPC  C215 4778   5.397   3.523   9.165  0.2251 -0.1706 -0.1129
   61SAPC  H15R 4779   5.482   3.456   9.145  0.6027  0.8722 -2.3107
   61SAPC  C216 4780   5.340   3.578   9.036 -0.1355  0.0934  0.2303
   61SAPC  H16R 4781   5.236   3.613   9.050 -0.5608 -1.0685  0.0514
   61SAPC  H16S 4782   5.348   3.511   8.948 -0.0680 -2.8091  2.2983
   61SAPC  C217 4783   5.425   3.703   8.985  0.2658 -0.1220  0.2975
   61SAPC  H17R 4784   5.530   3.670   8.994  0.4378  0.3191 -0.0331
   61SAPC  H17S 4785   5.408   3.785   9.059  0.7264 -0.9794  1.3793
   61SAPC  C218 4786   5.391   3.752   8.844 -0.3549 -0.4651 -0.0264
   61SAPC  H18R 4787   5.414   3.859   8.825 -0.5509 -0.5604 -0.8198
   61SAPC  H18S 4788   5.281   3.746   8.828 -0.2909 -0.1315 -0.5987
   61SAPC  C219 4789   5.479   3.671   8.735  0.0550  0.0736  0.9024
   61SAPC  H19R 4790   5.460   3.562   8.744  0.8150 -0.0442  1.1740
   61SAPC  H19S 4791   5.586   3.679   8.765  0.4811 -0.6308 -0.3892
   61SAPC  C220 4792   5.476   3.729   8.593  0.2284 -0.4002 -1.2072
   61SAPC  H20R 4793   5.370   3.742   8.564 -0.5967 -1.0116  1.2233
   61SAPC  H20S 4794   5.523   3.672   8.510  1.4613 -0.6343 -0.3741
   61SAPC  H20T 4795   5.529   3.826   8.602 -0.7119  0.0209  0.2459
   61SAPC   C33 4796   4.662   3.675  10.400  0.0338  0.1570  0.0603
   61SAPC   H3X 4797   4.712   3.577  10.381 -0.9433 -0.5127  0.8394
   61SAPC   H3Y 4798   4.741   3.745  10.364  2.1951 -1.8406  0.6669
   61SAPC   C34 4799   4.536   3.697  10.321  0.1937  0.1500 -0.2785
   61SAPC   H4X 4800   4.502   3.801  10.341  0.5867  0.1389  0.4928
   61SAPC   H4Y 4801   4.452   3.629  10.347 -1.0015  1.8658  0.5994
   61SAPC   C35 4802   4.563   3.679  10.166 -0.2573  0.5453  0.0539
   61SAPC   H5X 4803   4.587   3.574  10.143  0.3702  0.6090  0.3949
   61SAPC   H5Y 4804   4.650   3.741  10.136 -0.3137 -0.2775 -1.9363
   61SAPC   C36 4805   4.442   3.727  10.078  0.0056  0.5963  0.0285
   61SAPC   H6X 4806   4.357   3.661  10.105  1.6344 -1.2124  0.9918
   61SAPC   H6Y 4807   4.471   3.699   9.974 -1.9320  1.4241 -0.7724
   61SAPC   C37 4808   4.412   3.877  10.091  0.6450  0.2327  0.1518
   61SAPC   H7X 4809   4.406   3.908  10.197  1.3485  3.9174 -0.7493
   61SAPC   H7Y 4810   4.318   3.897  10.035  1.0305 -1.6431 -1.2890
   61SAPC   C38 4811   4.523   3.969  10.033  0.4262  0.1218  1.2942
   61SAPC   H8X 4812   4.611   3.953  10.099  0.0338 -0.1901  1.7494
   61SAPC   H8Y 4813   4.503   4.078  10.039  1.7972  0.5088 -0.2414
   61SAPC   C39 4814   4.556   3.940   9.884  0.4300  0.5424 -0.8306
   61SAPC   H9X 4815   4.609   3.843   9.897 -1.7484 -0.7207 -0.9446
   61SAPC   H9Y 4816   4.630   4.012   9.844 -0.0204  0.5260 -1.7256
   61SAPC  C310 4817   4.440   3.945   9.778  0.0459 -0.4162 -0.1556
   61SAPC  H10X 4818   4.400   4.049   9.779 -0.1614 -0.4806 -0.9065
   61SAPC  H10Y 4819   4.359   3.889   9.830 -1.1149  0.2891 -1.1443
   61SAPC  C311 4820   4.493   3.906   9.636  0.3993 -0.2639 -0.2477
   61SAPC  H11X 4821   4.575   3.978   9.614  1.0758 -0.6353  0.9449
   61SAPC  H11Y 4822   4.415   3.928   9.560  1.4874 -0.9863 -1.6184
   61SAPC  C312 4823   4.548   3.765   9.631  0.1862 -0.1167  0.0186
   61SAPC  H12X 4824   4.615   3.737   9.715 -0.6003 -1.0923  0.3436
   61SAPC  H12Y 4825   4.601   3.763   9.534  1.2347  1.6266  0.5149
   61SAPC  C313 4826   4.431   3.670   9.628  0.0092 -0.7770 -0.0334
   61SAPC  H13X 4827   4.354   3.728   9.683 -0.0038 -0.7560 -0.0738
   61SAPC  H13Y 4828   4.448   3.584   9.697 -0.1839  0.0296  1.0537
   61SAPC  C314 4829   4.395   3.635   9.488  0.2152  0.1557 -0.4579
   61SAPC  H14X 4830   4.476   3.572   9.446  0.0838  1.3322 -2.6789
   61SAPC  H14Y 4831   4.389   3.732   9.433 -1.9066 -0.0875 -0.7497
   61SAPC  C315 4832   4.256   3.568   9.468  0.0313  0.1180  0.0375
   61SAPC  H15X 4833   4.179   3.623   9.526 -0.2536  0.3649 -0.5756
   61SAPC  H15Y 4834   4.253   3.468   9.517  0.5989 -0.1617 -0.4859
   61SAPC  C316 4835   4.220   3.541   9.327  0.2033 -0.1796 -0.3410
   61SAPC  H16X 4836   4.122   3.489   9.337  0.1185 -0.0363 -0.4253
   61SAPC  H16Y 4837   4.293   3.474   9.277  0.4098 -0.1731 -0.0513
   61SAPC  C317 4838   4.176   3.664   9.247  0.1699 -0.1705  0.1246
   61SAPC  H17X 4839   4.162   3.647   9.138 -1.7584  0.6258  0.2157
   61SAPC  H17Y 4840   4.266   3.728   9.247  1.5293 -1.9795 -1.1927
   61SAPC  C318 4841   4.061   3.756   9.302  0.1099 -0.0370  0.0672
   61SAPC  H18X 4842   3.960   3.716   9.282 -0.2900 -0.0841  2.0529
   61SAPC  H18Y 4843   4.068   3.846   9.237 -0.0690  0.2438  0.4346
   61SAPC  H18Z 4844   4.066   3.780   9.410 -1.7629  1.6056 -0.1425
   62SAPC     N 4845   3.883   1.433  11.154  0.6216 -0.1758 -0.0525
   62SAPC   C12 4846   3.910   1.373  11.015  0.4826 -0.2847 -0.1072
   62SAPC  H12A 4847   3.840   1.292  11.000  0.6148 -0.3826 -0.1940
   62SAPC  H12B 4848   4.010   1.332  11.009  0.9620  0.6386  1.1182
   62SAPC   C13 4849   3.882   1.310  11.253  0.1869  0.2924 -0.7688
   62SAPC  H13A 4850   3.976   1.259  11.245  1.7115  2.7043  0.5404
   62SAPC  H13B 4851   3.877   1.343  11.356  0.3030  2.7314 -1.4847
   62SAPC  H13C 4852   3.797   1.246  11.231  0.0089 -0.5694  2.0850
   62SAPC   C14 4853   3.980   1.533  11.192  0.1373 -0.0235 -0.9278
   62SAPC  H14A 4854   3.952   1.573  11.288  2.7943  0.5886 -0.3282
   62SAPC  H14B 4855   4.082   1.503  11.209  0.6244  2.2357  0.6429
   62SAPC  H14C 4856   3.991   1.623  11.133 -0.3445  1.5556  1.2594
   62SAPC   C15 4857   3.751   1.499  11.160 -0.8304  0.4078  0.4232
   62SAPC  H15A 4858   3.671   1.429  11.138  0.2396 -0.9985  0.8451
   62SAPC  H15B 4859   3.737   1.539  11.259  1.4392 -0.4990  1.1738
   62SAPC  H15C 4860   3.746   1.581  11.090  1.3304  1.0733  0.9583
   62SAPC   C11 4861   3.886   1.467  10.891  0.2834  0.2855  0.3843
   62SAPC  H11A 4862   3.785   1.514  10.886  0.8554  1.4223 -2.2653
   62SAPC  H11B 4863   3.907   1.407  10.800  2.5765  1.8573 -0.2325
   62SAPC     P 4864   4.138   1.529  10.869  0.3851  0.1217  0.2307
   62SAPC   O13 4865   4.219   1.646  10.908  0.5297 -0.2154 -0.2848
   62SAPC   O14 4866   4.170   1.399  10.936  0.1844  0.4325 -0.0392
   62SAPC   O12 4867   3.987   1.572  10.896  0.1391  0.0563  0.2119
   62SAPC   O11 4868   4.148   1.512  10.712 -0.3336 -0.2352 -0.0683
   62SAPC    C1 4869   4.095   1.625  10.634  0.2869  0.2381 -0.7984
   62SAPC    HA 4870   3.991   1.603  10.602  0.2526 -2.2496  0.7074
   62SAPC    HB 4871   4.088   1.721  10.688  3.0945 -1.1249  2.3518
   62SAPC    C2 4872   4.184   1.642  10.508  0.2333 -0.2627 -0.5108
   62SAPC    HS 4873   4.163   1.740  10.461 -0.4159  1.5468  3.2302
   62SAPC   O21 4874   4.164   1.529  10.413  0.5046 -0.1034  0.5011
   62SAPC   C21 4875   4.050   1.538  10.340  0.4690 -0.5767  0.5147
   62SAPC   O22 4876   3.977   1.635  10.337 -0.6584  0.0756 -0.3223
   62SAPC   C22 4877   4.036   1.402  10.269  0.5324  0.5469  0.1625
   62SAPC   H2R 4878   4.142   1.368  10.261 -0.1172 -1.3500 -1.0734
   62SAPC   H2S 4879   3.964   1.343  10.328  1.2989 -0.6758 -0.0946
   62SAPC    C3 4880   4.332   1.645  10.549  0.3518  0.3383 -0.3846
   62SAPC    HX 4881   4.358   1.546  10.592 -0.5306 -0.3758 -1.4491
   62SAPC    HY 4882   4.354   1.723  10.625  1.1771  0.0297 -0.2959
   62SAPC   O31 4883   4.410   1.665  10.435 -0.0929 -0.0390 -0.1912
   62SAPC   C31 4884   4.473   1.561  10.380  0.1808 -0.2226 -0.4081
   62SAPC   O32 4885   4.479   1.448  10.428  0.6017 -0.0119  0.1679
   62SAPC   C32 4886   4.523   1.617  10.249 -0.5049  0.6361 -0.4822
   62SAPC   H2X 4887   4.574   1.712  10.274  2.5128 -0.6795 -1.2250
   62SAPC   H2Y 4888   4.430   1.640  10.191 -2.4403 -2.4114  1.1536
   62SAPC   C23 4889   3.976   1.413  10.126 -0.7203 -0.4376  0.1318
   62SAPC   H3R 4890   4.039   1.463  10.049  0.8773  0.2645  1.8013
   62SAPC   H3S 4891   3.876   1.459  10.138 -0.3470 -0.0643  2.1403
   62SAPC   C24 4892   3.950   1.273  10.073 -1.0162  0.0779 -0.0970
   62SAPC   H4R 4893   3.894   1.282   9.978 -0.4495 -0.1407 -0.4524
   62SAPC   H4S 4894   3.887   1.218  10.146 -2.4271  0.5163 -0.9374
   62SAPC   C25 4895   4.074   1.195  10.037  0.0444 -0.3242 -0.3313
   62SAPC   H5R 4896   4.149   1.183  10.117 -0.2433  0.4539  0.0682
   62SAPC   C26 4897   4.103   1.135   9.925  0.3333  0.2503 -0.7094
   62SAPC   H6R 4898   4.204   1.098   9.899 -0.9147 -3.3426 -1.0566
   62SAPC   C27 4899   4.001   1.124   9.813 -0.5306  0.2989  0.2826
   62SAPC   H7R 4900   3.990   1.211   9.745 -1.5647 -1.5250 -2.0309
   62SAPC   H7S 4901   3.899   1.105   9.852 -1.5683  2.1205 -1.3545
   62SAPC   C28 4902   4.037   1.019   9.713  0.0514  0.2912  0.4189
   62SAPC   H8R 4903   3.992   0.923   9.743 -1.0926  0.5092 -0.5334
   62SAPC   C29 4904   4.118   1.023   9.606 -0.0551 -0.4490 -0.0538
   62SAPC   H9R 4905   4.116   0.934   9.542  0.9082 -0.0783 -0.6064
   62SAPC  C210 4906   4.197   1.139   9.554 -0.3554  0.4228  0.4767
   62SAPC  H10R 4907   4.302   1.105   9.540 -0.1557  0.9075  0.7869
   62SAPC  H10S 4908   4.203   1.221   9.628  2.3029 -0.8274  1.7933
   62SAPC  C211 4909   4.129   1.198   9.432 -0.5211 -0.0176 -0.4750
   62SAPC  H11R 4910   4.050   1.268   9.462 -1.8510 -1.3578 -0.7228
   62SAPC  C212 4911   4.162   1.180   9.303  0.0505  0.5821  0.4451
   62SAPC  H12R 4912   4.112   1.240   9.225  2.1754 -0.5930 -1.9570
   62SAPC  C213 4913   4.279   1.097   9.247  1.0338 -0.0398 -0.4422
   62SAPC  H13R 4914   4.284   0.998   9.297  2.0173  0.3790  0.3169
   62SAPC  H13S 4915   4.372   1.149   9.279  1.3027 -0.4262 -0.5892
   62SAPC  C214 4916   4.280   1.085   9.093  0.5956  0.0522 -0.1579
   62SAPC  H14R 4917   4.190   1.034   9.057  0.9568 -0.8965  0.2553
   62SAPC  C215 4918   4.364   1.141   9.009  0.3142  0.3312  0.0387
   62SAPC  H15R 4919   4.347   1.119   8.903 -0.3560  0.8589  0.0254
   62SAPC  C216 4920   4.482   1.227   9.045  0.1333  0.4517 -0.6905
   62SAPC  H16R 4921   4.574   1.175   9.078 -0.3942  1.1083  2.0482
   62SAPC  H16S 4922   4.456   1.292   9.132 -0.3866 -2.2612  1.3018
   62SAPC  C217 4923   4.513   1.330   8.941 -0.1635 -0.4856 -0.5347
   62SAPC  H17R 4924   4.555   1.416   8.996 -1.3687  1.2411 -2.1475
   62SAPC  H17S 4925   4.421   1.351   8.881  0.1728 -2.4204 -1.8219
   62SAPC  C218 4926   4.615   1.287   8.830  0.1945  0.2147 -0.1325
   62SAPC  H18R 4927   4.576   1.198   8.776 -1.9207  1.1787 -0.2723
   62SAPC  H18S 4928   4.707   1.246   8.876  0.1551 -0.6421 -0.7844
   62SAPC  C219 4929   4.656   1.392   8.734  0.3236  0.1579  0.3754
   62SAPC  H19R 4930   4.742   1.352   8.675  1.6513  0.3523  2.1041
   62SAPC  H19S 4931   4.702   1.479   8.786  0.5810  2.3257 -3.1369
   62SAPC  C220 4932   4.540   1.437   8.635 -0.6135  0.0577 -0.2658
   62SAPC  H20R 4933   4.590   1.464   8.540  3.0835  0.9755  1.7393
   62SAPC  H20S 4934   4.505   1.529   8.686  1.1414  0.5955  0.0599
   62SAPC  H20T 4935   4.461   1.359   8.625 -0.4982  0.2816 -4.1827
   62SAPC   C33 4936   4.606   1.520  10.164 -0.0897  0.2351  0.4436
   62SAPC   H3X 4937   4.557   1.420  10.160 -1.6834  1.0512 -1.5741
   62SAPC   H3Y 4938   4.705   1.503  10.214  0.9013  4.7749  0.4219
   62SAPC   C34 4939   4.627   1.574  10.021 -0.3291 -0.5193 -0.0077
   62SAPC   H4X 4940   4.645   1.683  10.024 -0.6970 -0.4069 -1.3481
   62SAPC   H4Y 4941   4.535   1.554   9.961 -1.9363  2.8678  1.0671
   62SAPC   C35 4942   4.742   1.499   9.956 -0.3659  0.0378  0.3732
   62SAPC   H5X 4943   4.717   1.391   9.959  0.5868 -0.2591 -1.1729
   62SAPC   H5Y 4944   4.828   1.534  10.017  0.3048 -0.0942 -0.4811
   62SAPC   C36 4945   4.785   1.566   9.828  0.2605  0.4376  0.3178
   62SAPC   H6X 4946   4.879   1.523   9.788  0.3447  2.5749 -2.1267
   62SAPC   H6Y 4947   4.801   1.675   9.845  0.7160  0.6916 -1.5073
   62SAPC   C37 4948   4.683   1.560   9.716  0.7601  0.8497 -0.3821
   62SAPC   H7X 4949   4.595   1.622   9.741  0.9935  0.8512  0.4557
   62SAPC   H7Y 4950   4.644   1.457   9.700 -0.3467  1.0945  0.6281
   62SAPC   C38 4951   4.730   1.613   9.582 -0.1118  0.4392  0.2607
   62SAPC   H8X 4952   4.793   1.703   9.603 -1.2834  1.2402  0.4172
   62SAPC   H8Y 4953   4.644   1.648   9.522 -0.2946  0.4351  0.5165
   62SAPC   C39 4954   4.816   1.506   9.506  0.7298 -0.3966 -0.1185
   62SAPC   H9X 4955   4.748   1.433   9.458  1.1771  0.7143 -2.5720
   62SAPC   H9Y 4956   4.890   1.460   9.575  2.5587  0.7857 -1.2085
   62SAPC  C310 4957   4.894   1.557   9.384 -0.8025 -0.4696  0.4729
   62SAPC  H10X 4958   5.003   1.544   9.397 -0.2434  0.8536 -2.1231
   62SAPC  H10Y 4959   4.877   1.667   9.375  3.1874  0.1964 -0.7469
   62SAPC  C311 4960   4.863   1.480   9.253 -0.8281 -0.1668  0.2976
   62SAPC  H11X 4961   4.783   1.540   9.205  0.6214  0.9820 -0.7744
   62SAPC  H11Y 4962   4.834   1.376   9.279 -3.7868 -0.0531 -1.9680
   62SAPC  C312 4963   4.983   1.484   9.153  0.3412  0.0267 -0.8195
   62SAPC  H12X 4964   5.061   1.411   9.182 -0.5231 -1.5978 -2.3579
   62SAPC  H12Y 4965   5.026   1.586   9.149 -2.0843  1.1521 -0.0462
   62SAPC  C313 4966   4.943   1.468   9.005  0.5453 -0.1571 -0.6467
   62SAPC  H13X 4967   4.854   1.532   8.985  0.4552 -0.2743 -0.6229
   62SAPC  H13Y 4968   4.908   1.364   8.988 -0.4236 -0.6210  3.3865
   62SAPC  C314 4969   5.052   1.516   8.899 -0.7221 -0.4135  0.1935
   62SAPC  H14X 4970   5.147   1.464   8.924  0.8598  1.2933 -1.8333
   62SAPC  H14Y 4971   5.072   1.624   8.916 -1.1241  0.1679 -2.4758
   62SAPC  C315 4972   5.000   1.502   8.757  0.2832  1.0105  0.2073
   62SAPC  H15X 4973   4.899   1.547   8.743 -1.8655 -3.1529  0.6833
   62SAPC  H15Y 4974   4.986   1.395   8.729  1.6070  1.0757 -0.7809
   62SAPC  C316 4975   5.101   1.559   8.656  0.1006  0.0389  0.2923
   62SAPC  H16X 4976   5.103   1.664   8.692  0.8991  0.9273 -2.1829
   62SAPC  H16Y 4977   5.056   1.549   8.555 -1.1211  1.1902  0.6899
   62SAPC  C317 4978   5.241   1.497   8.645 -0.3667 -0.0958 -0.1652
   62SAPC  H17X 4979   5.234   1.396   8.600 -0.0470  0.0052 -0.4454
   62SAPC  H17Y 4980   5.291   1.499   8.744 -0.2164 -1.5654 -0.1971
   62SAPC  C318 4981   5.333   1.583   8.551 -0.6820  0.3514  0.2016
   62SAPC  H18X 4982   5.305   1.575   8.444  1.7836 -0.5158 -0.4390
   62SAPC  H18Y 4983   5.436   1.542   8.566 -0.8225  0.9541  3.7653
   62SAPC  H18Z 4984   5.342   1.686   8.590  1.0196  1.1638 -2.1163
   63SAPC     N 4985   1.207   5.406   5.961  0.3351  0.2394 -0.1480
   63SAPC   C12 4986   1.194   5.450   6.101  0.8864 -0.1917 -0.1923
   63SAPC  H12A 4987   1.177   5.556   6.092 -1.1783 -0.5640 -1.4362
   63SAPC  H12B 4988   1.290   5.443   6.150  1.0626 -2.0758 -0.7270
   63SAPC   C13 4989   1.083   5.433   5.887 -0.8981 -0.1902 -0.2269
   63SAPC  H13A 4990   1.078   5.540   5.871 -2.0280 -0.3457 -1.0482
   63SAPC  H13B 4991   1.088   5.376   5.795  0.4101  0.0697 -0.3403
   63SAPC  H13C 4992   0.999   5.406   5.948 -0.3259  0.6567  0.9747
   63SAPC   C14 4993   1.323   5.484   5.915  0.4249  0.0352  0.2040
   63SAPC  H14A 4994   1.318   5.589   5.943 -0.1644  0.2550 -0.6861
   63SAPC  H14B 4995   1.414   5.440   5.953  0.4624 -0.1085 -0.0522
   63SAPC  H14C 4996   1.325   5.480   5.807  0.6968 -0.1305  0.2134
   63SAPC   C15 4997   1.240   5.260   5.948 -0.3052 -0.6931 -0.2057
   63SAPC  H15A 4998   1.266   5.231   5.848  1.0398 -1.0087  0.2224
   63SAPC  H15B 4999   1.310   5.221   6.020  0.0446  0.2036 -0.0405
   63SAPC  H15C 5000   1.147   5.218   5.983 -2.4290  5.4145  2.9875
   63SAPC   C11 5001   1.074   5.386   6.186 -0.4928 -0.2688  0.2850
   63SAPC  H11A 5002   0.981   5.422   6.137 -0.5141 -0.1753  0.3920
   63SAPC  H11B 5003   1.065   5.433   6.287 -0.2626 -0.9996  0.6470
   63SAPC     P 5004   1.109   5.163   6.311  0.0694  0.1681  0.1662
   63SAPC   O13 5005   1.016   5.048   6.296 -0.0884  0.5008  0.1214
   63SAPC   O14 5006   1.254   5.147   6.318  0.3046 -0.0373  0.1616
   63SAPC   O12 5007   1.076   5.245   6.183 -0.0042  0.5825 -0.2992
   63SAPC   O11 5008   1.072   5.255   6.435 -0.5762  0.2231 -0.4739
   63SAPC    C1 5009   0.945   5.245   6.497  0.2747  0.3956 -0.4982
   63SAPC    HA 5010   0.854   5.267   6.436 -3.3423 -1.6127  3.5767
   63SAPC    HB 5011   0.934   5.142   6.539  2.9947  0.6462  1.0088
   63SAPC    C2 5012   0.931   5.352   6.608  0.0755  0.6116 -0.7410
   63SAPC    HS 5013   0.971   5.448   6.570  0.6729  0.1581 -1.2887
   63SAPC   O21 5014   1.009   5.299   6.724  0.0763  0.2847 -0.0610
   63SAPC   C21 5015   1.060   5.392   6.801  0.0814  0.3272 -0.0853
   63SAPC   O22 5016   1.061   5.510   6.784  0.2309  0.1024 -0.3732
   63SAPC   C22 5017   1.080   5.330   6.942 -1.5916 -0.3250 -1.0447
   63SAPC   H2R 5018   0.982   5.298   6.983 -1.1567  1.1281  1.3110
   63SAPC   H2S 5019   1.147   5.241   6.935  0.0023  0.7263  0.0833
   63SAPC    C3 5020   0.777   5.375   6.646 -0.1070  0.1729  0.4449
   63SAPC    HX 5021   0.731   5.274   6.653 -1.7365  0.9515  1.4173
   63SAPC    HY 5022   0.712   5.414   6.564 -0.0194 -0.2435  0.1758
   63SAPC   O31 5023   0.767   5.462   6.761 -0.4433  0.0783  0.5086
   63SAPC   C31 5024   0.741   5.589   6.744 -0.1968 -0.2931 -0.3477
   63SAPC   O32 5025   0.742   5.642   6.635  0.5365 -0.8173  0.2835
   63SAPC   C32 5026   0.752   5.663   6.877 -0.1359 -0.2348 -0.2476
   63SAPC   H2X 5027   0.665   5.730   6.897  1.3504  1.4128  0.9801
   63SAPC   H2Y 5028   0.842   5.727   6.875  0.7264 -1.4273 -2.0501
   63SAPC   C23 5029   1.149   5.426   7.046 -0.4111  0.8632 -0.2040
   63SAPC   H3R 5030   1.077   5.506   7.075  0.5504  1.7368 -0.1917
   63SAPC   H3S 5031   1.228   5.480   6.991 -0.0383  0.1641 -0.3606
   63SAPC   C24 5032   1.218   5.366   7.168  0.5952 -0.4225 -0.1189
   63SAPC   H4R 5033   1.279   5.281   7.131  0.7247 -0.5767  0.4365
   63SAPC   H4S 5034   1.144   5.328   7.242  2.0993 -1.8718  0.7087
   63SAPC   C25 5035   1.296   5.469   7.236 -0.2451 -0.4033 -0.3138
   63SAPC   H5R 5036   1.373   5.524   7.180  1.8442 -1.8059  1.0351
   63SAPC   C26 5037   1.301   5.488   7.368  0.5319 -0.2500 -0.7206
   63SAPC   H6R 5038   1.373   5.564   7.402 -3.0138  1.6891  3.4281
   63SAPC   C27 5039   1.236   5.416   7.481 -0.2272  0.1370  0.2436
   63SAPC   H7R 5040   1.151   5.352   7.450 -2.2978  3.1214 -0.7336
   63SAPC   H7S 5041   1.195   5.494   7.548  1.7730  1.1862  0.3207
   63SAPC   C28 5042   1.337   5.321   7.541  0.3673  0.5802 -0.0788
   63SAPC   H8R 5043   1.369   5.248   7.465 -0.9921  1.3114 -1.4080
   63SAPC   C29 5044   1.389   5.312   7.667 -0.2131 -0.6374  0.4141
   63SAPC   H9R 5045   1.466   5.238   7.693  0.5817  0.8657  2.5797
   63SAPC  C210 5046   1.353   5.403   7.786 -0.4737 -0.1575 -0.2855
   63SAPC  H10R 5047   1.362   5.509   7.753  0.4110 -0.5825 -1.5036
   63SAPC  H10S 5048   1.436   5.395   7.860 -2.3275  0.6382  2.0089
   63SAPC  C211 5049   1.220   5.384   7.851  0.1846  0.4315 -0.3330
   63SAPC  H11R 5050   1.140   5.377   7.776  0.5623  1.9625 -0.9308
   63SAPC  C212 5051   1.186   5.391   7.982 -0.2989  0.1603  0.0307
   63SAPC  H12R 5052   1.079   5.382   8.005 -0.5432  0.1753 -1.0179
   63SAPC  C213 5053   1.284   5.406   8.092  0.0133 -0.2642 -0.2109
   63SAPC  H13R 5054   1.297   5.510   8.128  2.0677 -0.7500  0.6062
   63SAPC  H13S 5055   1.387   5.372   8.066  0.4598  0.9359 -0.1084
   63SAPC  C214 5056   1.242   5.321   8.208  0.1108  0.0656  0.0736
   63SAPC  H14R 5057   1.271   5.215   8.199 -3.0558 -0.8943  0.0322
   63SAPC  C215 5058   1.145   5.338   8.302 -0.2188  0.0165 -0.1320
   63SAPC  H15R 5059   1.130   5.256   8.373 -0.0551 -2.3756 -2.6773
   63SAPC  C216 5060   1.072   5.460   8.337 -0.0845  0.1919  0.0872
   63SAPC  H16R 5061   0.977   5.474   8.280 -0.0354 -0.3964 -0.1516
   63SAPC  H16S 5062   1.129   5.543   8.292 -1.8015 -0.3638 -3.4642
   63SAPC  C217 5063   1.045   5.488   8.488 -0.0761 -0.6421  0.0849
   63SAPC  H17R 5064   1.022   5.597   8.485  1.9853 -0.1057 -4.3344
   63SAPC  H17S 5065   1.144   5.485   8.538  0.1852  0.1127 -0.3623
   63SAPC  C218 5066   0.916   5.415   8.537 -0.2472  0.2488  0.5276
   63SAPC  H18R 5067   0.924   5.306   8.515 -1.1266 -0.1660  2.0927
   63SAPC  H18S 5068   0.834   5.453   8.472 -1.0862  0.7466  1.8390
   63SAPC  C219 5069   0.887   5.438   8.686  0.6184  0.1478 -0.4035
   63SAPC  H19R 5070   0.787   5.390   8.697  1.0709 -0.6814  0.1931
   63SAPC  H19S 5071   0.883   5.547   8.708  1.1175 -0.1711  1.4099
   63SAPC  C220 5072   0.987   5.366   8.770 -1.1029  0.0801 -0.2191
   63SAPC  H20R 5073   1.072   5.437   8.781 -0.8762  0.0337 -1.4974
   63SAPC  H20S 5074   1.004   5.264   8.730 -0.3076 -0.2278  0.8781
   63SAPC  H20T 5075   0.948   5.367   8.874 -1.9016  0.1502 -0.5093
   63SAPC   C33 5076   0.757   5.571   7.011 -0.7799  0.4775 -0.1766
   63SAPC   H3X 5077   0.847   5.508   6.994  0.3342  1.1954  2.4905
   63SAPC   H3Y 5078   0.660   5.518   7.016  0.1871 -1.4920 -1.0860
   63SAPC   C34 5079   0.785   5.660   7.139  0.0148  0.3477 -0.1255
   63SAPC   H4X 5080   0.715   5.746   7.147 -2.0119 -1.3628  2.5333
   63SAPC   H4Y 5081   0.881   5.715   7.131 -1.1480  2.4843 -0.1666
   63SAPC   C35 5082   0.782   5.575   7.266  0.5323  0.5067  0.1162
   63SAPC   H5X 5083   0.831   5.475   7.263 -1.1514 -0.4275  1.9353
   63SAPC   H5Y 5084   0.674   5.563   7.286  0.8869 -1.6874  1.0873
   63SAPC   C36 5085   0.833   5.641   7.387 -0.0588  0.6221 -0.4368
   63SAPC   H6X 5086   0.784   5.739   7.404 -0.6603  0.3162 -0.4030
   63SAPC   H6Y 5087   0.940   5.664   7.369 -0.3529  2.2203 -0.3124
   63SAPC   C37 5088   0.818   5.567   7.523 -0.1599 -0.1773 -0.5683
   63SAPC   H7X 5089   0.869   5.468   7.518 -0.9057 -0.7467  1.8192
   63SAPC   H7Y 5090   0.711   5.551   7.551  0.1668  1.4363  1.9662
   63SAPC   C38 5091   0.876   5.648   7.632  0.4858  0.0809  0.2120
   63SAPC   H8X 5092   0.847   5.754   7.615  2.9224  0.5266 -1.9291
   63SAPC   H8Y 5093   0.987   5.635   7.628  0.9073  2.6802  1.2158
   63SAPC   C39 5094   0.832   5.614   7.773  0.0485  0.5966 -0.0948
   63SAPC   H9X 5095   0.819   5.503   7.770  1.2612  0.4434 -0.4390
   63SAPC   H9Y 5096   0.733   5.660   7.792 -0.9387 -1.2439 -0.5129
   63SAPC  C310 5097   0.928   5.668   7.883  0.3811 -0.2286  0.0557
   63SAPC  H10X 5098   0.934   5.777   7.863  1.4785 -0.3544 -0.3769
   63SAPC  H10Y 5099   1.031   5.632   7.865  0.9040  0.4854  1.5198
   63SAPC  C311 5100   0.872   5.629   8.019 -0.2254 -0.1675 -0.2369
   63SAPC  H11X 5101   0.947   5.640   8.099  0.0370 -1.3277 -0.3082
   63SAPC  H11Y 5102   0.845   5.521   8.019 -2.7932  0.3924  0.0972
   63SAPC  C312 5103   0.764   5.724   8.061 -0.0844 -0.2297 -0.4816
   63SAPC  H12X 5104   0.666   5.714   8.009 -0.4710  0.4556  0.1037
   63SAPC  H12Y 5105   0.787   5.833   8.054 -0.3262 -0.1740 -0.3974
   63SAPC  C313 5106   0.722   5.708   8.210 -0.2345 -1.1274 -0.5791
   63SAPC  H13X 5107   0.699   5.603   8.238  0.9529 -1.0487  0.8055
   63SAPC  H13Y 5108   0.621   5.753   8.225  1.3766  2.6057  0.3933
   63SAPC  C314 5109   0.807   5.783   8.314 -0.1330  0.3143  0.4480
   63SAPC  H14X 5110   0.826   5.884   8.273 -0.7625  0.6660  0.9967
   63SAPC  H14Y 5111   0.892   5.713   8.328  2.2907  3.4203  2.5617
   63SAPC  C315 5112   0.732   5.790   8.447  0.9392 -0.4450  0.0705
   63SAPC  H15X 5113   0.693   5.693   8.485  0.2736  0.8900  3.0407
   63SAPC  H15Y 5114   0.646   5.861   8.439  0.2397 -1.0582  1.6375
   63SAPC  C316 5115   0.822   5.863   8.546  0.2666 -0.0672  0.1920
   63SAPC  H16X 5116   0.918   5.810   8.532 -0.3715 -1.3260  0.3749
   63SAPC  H16Y 5117   0.783   5.836   8.647  2.7788  1.4086  1.6403
   63SAPC  C317 5118   0.826   6.017   8.537  0.6054  0.1792  0.2270
   63SAPC  H17X 5119   0.718   6.043   8.547  0.1918 -1.4625  0.3719
   63SAPC  H17Y 5120   0.858   6.043   8.433  0.0745  0.4217  0.1207
   63SAPC  C318 5121   0.915   6.092   8.634  0.1353  0.0078  0.6141
   63SAPC  H18X 5122   0.923   6.199   8.608 -0.6974 -0.3941 -1.5451
   63SAPC  H18Y 5123   1.014   6.043   8.626  1.7935  2.7213  2.6280
   63SAPC  H18Z 5124   0.887   6.079   8.741  1.7420 -0.0587  1.0525
   64SAPC     N 5125   3.643   0.535   5.693 -0.5152 -0.2625 -0.1275
   64SAPC   C12 5126   3.699   0.665   5.762  0.5080  0.1747 -0.4020
   64SAPC  H12A 5127   3.615   0.719   5.803  1.9583  1.0279  1.6215
   64SAPC  H12B 5128   3.743   0.735   5.693 -0.0236  0.9628  0.0465
   64SAPC   C13 5129   3.570   0.573   5.574 -0.4564  0.3375  0.3664
   64SAPC  H13A 5130   3.640   0.608   5.499 -0.9576 -1.4773 -1.0234
   64SAPC  H13B 5131   3.526   0.485   5.529  0.9635 -1.3953  2.1804
   64SAPC  H13C 5132   3.498   0.648   5.602 -1.9747 -1.8074  2.6483
   64SAPC   C14 5133   3.763   0.457   5.656  0.4378 -0.0726 -0.5328
   64SAPC  H14A 5134   3.733   0.368   5.602 -0.9424  1.0471 -1.6900
   64SAPC  H14B 5135   3.841   0.517   5.612  0.5132  1.2260  1.2572
   64SAPC  H14C 5136   3.809   0.423   5.748  0.3382  0.9609 -0.0926
   64SAPC   C15 5137   3.552   0.452   5.778 -0.2349  0.1534 -0.5176
   64SAPC  H15A 5138   3.605   0.434   5.870  1.1736 -2.4772 -1.7405
   64SAPC  H15B 5139   3.467   0.507   5.817  0.3034 -1.5187  3.4348
   64SAPC  H15C 5140   3.513   0.363   5.729 -0.6034  1.2620 -2.3585
   64SAPC   C11 5141   3.795   0.641   5.881  0.5710 -1.0973 -0.4569
   64SAPC  H11A 5142   3.835   0.739   5.916  0.1374 -1.6319  1.7289
   64SAPC  H11B 5143   3.887   0.589   5.848  2.7352  2.3882 -0.3779
   64SAPC     P 5144   3.642   0.647   6.093 -0.1861 -0.1643  0.1855
   64SAPC   O13 5145   3.579   0.760   6.020  0.1055  0.3782  0.2620
   64SAPC   O14 5146   3.549   0.558   6.166 -0.1693  0.1288 -0.3254
   64SAPC   O12 5147   3.734   0.566   5.985  0.9437 -0.0598 -0.5561
   64SAPC   O11 5148   3.754   0.701   6.188  0.4431  0.2335  0.1146
   64SAPC    C1 5149   3.857   0.611   6.238  0.3154  0.1867 -0.3386
   64SAPC    HA 5150   3.838   0.502   6.230  1.1094 -0.0112  0.3425
   64SAPC    HB 5151   3.954   0.627   6.187  0.9039  1.1700  1.0126
   64SAPC    C2 5152   3.867   0.643   6.392 -0.2129  0.5172  0.7880
   64SAPC    HS 5153   3.910   0.553   6.442 -1.8067 -1.2120 -0.7927
   64SAPC   O21 5154   3.736   0.678   6.443 -0.1127 -0.0808 -0.0772
   64SAPC   C21 5155   3.660   0.568   6.462  0.0382 -0.1545 -0.8194
   64SAPC   O22 5156   3.700   0.452   6.458 -0.2788 -0.0354  0.2356
   64SAPC   C22 5157   3.518   0.615   6.498 -0.0549 -0.9360  0.7389
   64SAPC   H2R 5158   3.515   0.726   6.499  0.4469 -0.8971 -0.3920
   64SAPC   H2S 5159   3.461   0.582   6.409  0.9434  0.8691 -0.6361
   64SAPC    C3 5160   3.973   0.754   6.411 -0.1565  0.5745  0.0637
   64SAPC    HX 5161   3.930   0.848   6.370 -0.3484  0.1001 -0.8347
   64SAPC    HY 5162   4.070   0.731   6.361 -0.7144  0.0625 -0.8028
   64SAPC   O31 5163   3.999   0.760   6.551  0.2467 -0.3453  0.5702
   64SAPC   C31 5164   4.003   0.884   6.607  0.0643 -0.0716 -0.6653
   64SAPC   O32 5165   3.985   0.986   6.547  0.1150 -0.2877  0.4258
   64SAPC   C32 5166   4.039   0.866   6.754  0.0516  0.0436  0.4598
   64SAPC   H2X 5167   4.149   0.880   6.752 -0.0682  1.3076 -3.1008
   64SAPC   H2Y 5168   3.998   0.770   6.792 -0.1911  0.3352  0.9353
   64SAPC   C23 5169   3.484   0.537   6.626 -0.8295  0.0791  0.1107
   64SAPC   H3R 5170   3.473   0.429   6.603  2.0020 -0.2641 -0.0521
   64SAPC   H3S 5171   3.391   0.581   6.668  0.2418  1.1544  1.4552
   64SAPC   C24 5172   3.590   0.544   6.741  0.2816  0.0766  0.1630
   64SAPC   H4R 5173   3.687   0.504   6.705 -1.3265 -0.9490 -3.4304
   64SAPC   H4S 5174   3.559   0.476   6.823  0.6755 -1.2426 -0.7429
   64SAPC   C25 5175   3.624   0.685   6.777 -0.0371 -0.3518  0.0340
   64SAPC   H5R 5176   3.657   0.750   6.695  0.5631  2.6697  2.5168
   64SAPC   C26 5177   3.628   0.743   6.898  0.5384 -0.0570  0.2980
   64SAPC   H6R 5178   3.660   0.848   6.906  1.3640 -0.2664 -0.1099
   64SAPC   C27 5179   3.596   0.681   7.032  0.5216  0.0971 -0.0453
   64SAPC   H7R 5180   3.516   0.607   7.013 -2.1050  2.2464  1.8769
   64SAPC   H7S 5181   3.543   0.752   7.099 -4.2356 -3.5781  0.5669
   64SAPC   C28 5182   3.692   0.600   7.109  0.1203  0.3251 -0.5071
   64SAPC   H8R 5183   3.783   0.565   7.058  0.3551 -0.5198  0.4449
   64SAPC   C29 5184   3.689   0.579   7.240  0.6667 -0.0406  0.2282
   64SAPC   H9R 5185   3.755   0.502   7.283 -0.4312 -1.0971  0.1013
   64SAPC  C210 5186   3.589   0.633   7.335  0.4554  0.4053  0.4290
   64SAPC  H10R 5187   3.498   0.680   7.293  0.2556 -1.1300 -0.9526
   64SAPC  H10S 5188   3.650   0.708   7.389  0.7434  1.3059 -1.0809
   64SAPC  C211 5189   3.537   0.522   7.421  0.4074  0.6924  0.0365
   64SAPC  H11R 5190   3.498   0.431   7.373 -1.5025  1.0846  0.7667
   64SAPC  C212 5191   3.533   0.509   7.551 -0.0297 -0.9203 -0.3797
   64SAPC  H12R 5192   3.491   0.421   7.601  1.9065 -0.1846  2.8045
   64SAPC  C213 5193   3.596   0.604   7.650  1.5789  0.5560  0.1094
   64SAPC  H13R 5194   3.522   0.686   7.664 -0.5854 -0.9343 -1.8174
   64SAPC  H13S 5195   3.683   0.654   7.602  0.8145  1.7958 -0.0558
   64SAPC  C214 5196   3.653   0.542   7.773  0.1740 -0.3419 -0.0542
   64SAPC  H14R 5197   3.723   0.457   7.774  0.6720  0.0593 -0.0155
   64SAPC  C215 5198   3.629   0.582   7.895 -0.2620  0.1965 -0.1818
   64SAPC  H15R 5199   3.680   0.527   7.975 -1.1856 -0.0709  0.2318
   64SAPC  C216 5200   3.540   0.694   7.950 -0.0400  0.0561  0.3255
   64SAPC  H16R 5201   3.461   0.656   8.019  0.8234 -0.6732  0.9469
   64SAPC  H16S 5202   3.483   0.740   7.867 -0.9916  1.3026  1.6194
   64SAPC  C217 5203   3.616   0.803   8.036  0.3123 -0.0625  0.6085
   64SAPC  H17R 5204   3.611   0.892   7.969 -0.1232 -0.6384 -0.1533
   64SAPC  H17S 5205   3.721   0.787   8.067  0.0687 -1.2590  0.8879
   64SAPC  C218 5206   3.525   0.851   8.151  0.0375 -0.1967  0.4328
   64SAPC  H18R 5207   3.503   0.752   8.197 -0.5980 -0.1515  0.2386
   64SAPC  H18S 5208   3.434   0.902   8.112  0.7527  1.4181  0.7757
   64SAPC  C219 5209   3.590   0.937   8.260  0.7525 -0.4050  0.3798
   64SAPC  H19R 5210   3.512   0.980   8.326 -1.4350 -0.8661 -1.7525
   64SAPC  H19S 5211   3.638   1.021   8.206  0.0998 -0.6155 -0.5492
   64SAPC  C220 5212   3.703   0.871   8.352  0.8090  0.0213  0.0401
   64SAPC  H20R 5213   3.657   0.795   8.420  2.3946  0.7986  2.0920
   64SAPC  H20S 5214   3.750   0.946   8.419  1.3003 -0.4898  0.2821
   64SAPC  H20T 5215   3.772   0.817   8.284  0.8536 -3.8158  2.7837
   64SAPC   C33 5216   3.981   0.979   6.843 -0.0642 -0.5081  0.0396
   64SAPC   H3X 5217   3.870   0.981   6.832 -0.0530  2.5956 -0.1316
   64SAPC   H3Y 5218   4.048   1.063   6.817  0.6403 -1.7550 -2.5323
   64SAPC   C34 5219   4.011   0.971   6.994 -0.6222  0.0659 -0.1174
   64SAPC   H4X 5220   4.001   1.069   7.046  2.5771 -0.4377  1.6856
   64SAPC   H4Y 5221   4.117   0.942   7.007 -1.1418 -1.1835  1.7485
   64SAPC   C35 5222   3.921   0.873   7.078 -0.0441  0.1963 -0.3605
   64SAPC   H5X 5223   3.929   0.776   7.025  0.2734  0.0976 -0.1382
   64SAPC   H5Y 5224   3.817   0.905   7.061  0.2155  1.4185  0.2614
   64SAPC   C36 5225   3.956   0.866   7.228 -0.3576 -0.1264  0.3110
   64SAPC   H6X 5226   4.064   0.845   7.236  0.2276  1.6008 -2.0022
   64SAPC   H6Y 5227   3.907   0.774   7.266  1.9119 -1.0561  1.1340
   64SAPC   C37 5228   3.917   0.990   7.310  0.2963 -0.1174 -0.0693
   64SAPC   H7X 5229   3.808   1.010   7.305  0.5788  1.9211  0.8228
   64SAPC   H7Y 5230   3.975   1.074   7.264 -2.7670  0.9097 -2.4240
   64SAPC   C38 5231   3.950   0.957   7.456  0.0986  0.1078  0.4332
   64SAPC   H8X 5232   4.060   0.941   7.448  0.4625  2.5127 -0.2395
   64SAPC   H8Y 5233   3.893   0.866   7.485 -0.0977  0.3243  0.7442
   64SAPC   C39 5234   3.930   1.070   7.554 -0.5556  0.2134  0.3090
   64SAPC   H9X 5235   3.830   1.116   7.539 -0.7341 -0.3250 -0.1820
   64SAPC   H9Y 5236   4.005   1.144   7.520  2.4462 -2.1253  1.4143
   64SAPC  C310 5237   3.934   1.024   7.701  0.2644 -0.4362  0.2386
   64SAPC  H10X 5238   4.032   0.980   7.730  1.8907  1.5894 -1.8949
   64SAPC  H10Y 5239   3.856   0.949   7.727  1.1482 -1.4062  0.1861
   64SAPC  C311 5240   3.922   1.137   7.795  0.6605  0.3550 -0.3567
   64SAPC  H11X 5241   3.836   1.204   7.777  1.8203  1.6336 -1.3296
   64SAPC  H11Y 5242   4.004   1.211   7.783 -0.6978  2.0872  0.6055
   64SAPC  C312 5243   3.902   1.090   7.940  0.2888  0.2626  0.0901
   64SAPC  H12X 5244   3.976   1.010   7.956  0.1992  0.3428  0.9673
   64SAPC  H12Y 5245   3.803   1.047   7.966  0.0783  1.0819  0.7098
   64SAPC  C313 5246   3.932   1.208   8.033 -0.0413  0.4628  0.1723
   64SAPC  H13X 5247   3.847   1.277   8.018 -2.6895 -2.3500  1.1436
   64SAPC  H13Y 5248   4.028   1.259   8.013  1.3697 -1.9362  0.3883
   64SAPC  C314 5249   3.919   1.176   8.184  0.3740  0.5950  0.2676
   64SAPC  H14X 5250   3.999   1.099   8.199  2.0039  1.8462 -1.5148
   64SAPC  H14Y 5251   3.822   1.122   8.192  0.8190 -0.0500  1.6051
   64SAPC  C315 5252   3.921   1.293   8.279  0.7982 -0.3781  0.3775
   64SAPC  H15X 5253   4.013   1.353   8.266  1.0639 -0.7515  0.5065
   64SAPC  H15Y 5254   3.922   1.261   8.386  1.4599  2.3151  1.2706
   64SAPC  C316 5255   3.803   1.397   8.270 -0.3228  0.6279  0.0527
   64SAPC  H16X 5256   3.711   1.336   8.281  1.8949 -2.7708  1.6786
   64SAPC  H16Y 5257   3.812   1.460   8.179 -1.3480  0.0315 -0.4699
   64SAPC  C317 5258   3.800   1.491   8.398 -0.2770  0.8733  0.0784
   64SAPC  H17X 5259   3.895   1.548   8.393  0.3664 -0.2701 -1.6759
   64SAPC  H17Y 5260   3.808   1.428   8.489 -0.3561 -0.8760 -1.0661
   64SAPC  C318 5261   3.672   1.576   8.396 -0.6667 -0.2800  0.0251
   64SAPC  H18X 5262   3.581   1.515   8.377  0.1322 -1.5852  0.2666
   64SAPC  H18Y 5263   3.689   1.653   8.318  0.8061 -1.2402 -0.6611
   64SAPC  H18Z 5264   3.660   1.646   8.481  1.3981  2.4896 -1.7610
   65SAPC     N 5265   3.403   1.188   5.907 -0.0878 -0.2964  0.2960
   65SAPC   C12 5266   3.496   1.282   5.983  0.1009  0.5292  0.2783
   65SAPC  H12A 5267   3.507   1.372   5.925  1.4748  0.9867  1.1793
   65SAPC  H12B 5268   3.591   1.230   5.982  0.5806  1.3697 -1.4074
   65SAPC   C13 5269   3.274   1.255   5.875 -0.6276  0.0130 -0.0496
   65SAPC  H13A 5270   3.288   1.321   5.791  3.3881 -0.0584  0.3482
   65SAPC  H13B 5271   3.196   1.183   5.857 -0.4575 -0.7040  1.8744
   65SAPC  H13C 5272   3.232   1.317   5.952 -0.6392 -0.0144 -0.0337
   65SAPC   C14 5273   3.470   1.143   5.778 -0.4793  0.8837 -0.8391
   65SAPC  H14A 5274   3.416   1.068   5.723 -0.1042  0.1217 -0.1892
   65SAPC  H14B 5275   3.467   1.229   5.712  1.8597  1.4076 -0.3724
   65SAPC  H14C 5276   3.574   1.120   5.796 -0.2876  2.7840  0.6988
   65SAPC   C15 5277   3.376   1.074   5.989 -0.5541 -0.3468  0.4826
   65SAPC  H15A 5278   3.322   0.995   5.939 -0.3580  0.1691 -0.5927
   65SAPC  H15B 5279   3.470   1.034   6.024  0.7400  1.0867 -1.1294
   65SAPC  H15C 5280   3.330   1.096   6.084 -0.0365 -1.1530  0.9310
   65SAPC   C11 5281   3.449   1.331   6.127  0.3914 -0.0624  0.0758
   65SAPC  H11A 5282   3.542   1.373   6.172 -0.6007  1.4243  0.8181
   65SAPC  H11B 5283   3.425   1.246   6.194  0.5569  0.0122  0.2324
   65SAPC     P 5284   3.362   1.559   6.055  0.0958 -0.2268 -0.3386
   65SAPC   O13 5285   3.470   1.555   5.955 -0.2907  0.0900  0.4495
   65SAPC   O14 5286   3.231   1.600   5.994 -0.0312  0.2344 -1.3384
   65SAPC   O12 5287   3.348   1.426   6.133  0.1528 -0.4607 -0.3542
   65SAPC   O11 5288   3.416   1.660   6.165  0.3274 -0.2766 -0.0849
   65SAPC    C1 5289   3.341   1.695   6.283  0.2785 -0.2016  0.1998
   65SAPC    HA 5290   3.306   1.800   6.266  3.9023  0.9367 -1.2343
   65SAPC    HB 5291   3.254   1.629   6.302  0.1973 -0.3136 -0.5191
   65SAPC    C2 5292   3.424   1.680   6.417 -0.0370 -0.8544 -0.2508
   65SAPC    HS 5293   3.357   1.692   6.505  1.1099 -2.0305  0.8168
   65SAPC   O21 5294   3.531   1.771   6.425 -0.6914  0.6408  0.0818
   65SAPC   C21 5295   3.498   1.900   6.426  0.2607 -0.4625 -0.1257
   65SAPC   O22 5296   3.384   1.939   6.427  0.1048 -0.0258  0.5789
   65SAPC   C22 5297   3.614   1.990   6.425  0.0735 -0.3697 -0.1758
   65SAPC   H2R 5298   3.711   1.936   6.432  0.9749  1.3949  2.2005
   65SAPC   H2S 5299   3.613   2.051   6.332 -0.1466  0.0756  0.1184
   65SAPC    C3 5300   3.483   1.540   6.434  0.2891  0.0557 -0.6481
   65SAPC    HX 5301   3.563   1.527   6.358  0.0930 -0.1815 -0.8144
   65SAPC    HY 5302   3.404   1.464   6.414  0.1501  0.1810 -0.5733
   65SAPC   O31 5303   3.524   1.521   6.569  0.1891  0.0925  0.1879
   65SAPC   C31 5304   3.648   1.541   6.599 -0.4335 -0.0800  0.4568
   65SAPC   O32 5305   3.744   1.558   6.522 -0.1884 -0.3802  0.2200
   65SAPC   C32 5306   3.668   1.549   6.749 -0.4194  0.5844  0.4528
   65SAPC   H2X 5307   3.779   1.556   6.754 -0.2215 -0.2839 -1.6524
   65SAPC   H2Y 5308   3.639   1.459   6.807 -1.1790 -0.1166 -0.9597
   65SAPC   C23 5309   3.617   2.100   6.538  0.5420 -0.1325  0.7030
   65SAPC   H3R 5310   3.518   2.150   6.546  0.0171 -0.9890 -0.2863
   65SAPC   H3S 5311   3.688   2.174   6.496  0.5238 -0.8105 -0.5594
   65SAPC   C24 5312   3.675   2.031   6.667 -0.4811 -0.0913  0.6339
   65SAPC   H4R 5313   3.686   1.921   6.657 -1.1771 -0.3475  2.3507
   65SAPC   H4S 5314   3.604   2.038   6.752 -0.9509 -0.9626  0.3341
   65SAPC   C25 5315   3.815   2.082   6.696  0.7451  0.8137  0.3251
   65SAPC   H5R 5316   3.896   2.051   6.629  2.1730  0.6031  2.0898
   65SAPC   C26 5317   3.860   2.152   6.801  0.5999  0.3252  0.8184
   65SAPC   H6R 5318   3.966   2.182   6.804  0.1957  1.6620  2.5384
   65SAPC   C27 5319   3.779   2.194   6.921 -0.0991 -0.1403 -0.1613
   65SAPC   H7R 5320   3.736   2.112   6.982 -0.5787  0.1146 -0.1556
   65SAPC   H7S 5321   3.691   2.243   6.874  0.7583  0.3969 -1.2656
   65SAPC   C28 5322   3.872   2.280   7.001  0.0595  0.1597  0.1495
   65SAPC   H8R 5323   3.958   2.328   6.953 -0.6105  0.6775 -0.5575
   65SAPC   C29 5324   3.861   2.305   7.133 -0.6127  0.5200 -0.2030
   65SAPC   H9R 5325   3.926   2.378   7.183  1.2399 -0.2105 -1.3949
   65SAPC  C210 5326   3.760   2.240   7.222  0.1201 -0.6762  0.1721
   65SAPC  H10R 5327   3.731   2.139   7.186 -0.2189 -0.1005 -1.2549
   65SAPC  H10S 5328   3.665   2.297   7.211  0.2643  0.1074  2.5047
   65SAPC  C211 5329   3.805   2.243   7.365  0.1181 -0.5315  0.0762
   65SAPC  H11R 5330   3.883   2.169   7.389  1.2339  0.4375 -0.4436
   65SAPC  C212 5331   3.786   2.343   7.457 -0.4173  0.2907 -0.7177
   65SAPC  H12R 5332   3.813   2.330   7.563 -1.3205  0.1696 -0.4874
   65SAPC  C213 5333   3.711   2.470   7.420  0.1128  0.1457  0.5436
   65SAPC  H13R 5334   3.695   2.497   7.313 -1.2392  1.9611  1.1509
   65SAPC  H13S 5335   3.771   2.561   7.444 -0.8913  0.7168  0.9712
   65SAPC  C214 5336   3.574   2.475   7.499 -0.4300  0.0349  0.1219
   65SAPC  H14R 5337   3.488   2.433   7.444 -0.1403  1.2504 -1.3153
   65SAPC  C215 5338   3.554   2.514   7.627  0.8324  0.7362  1.3088
   65SAPC  H15R 5339   3.448   2.504   7.654 -0.1237  1.4341 -1.7233
   65SAPC  C216 5340   3.656   2.564   7.721  0.1358 -0.5766  0.1291
   65SAPC  H16R 5341   3.633   2.670   7.745  2.2015  0.2607 -1.3391
   65SAPC  H16S 5342   3.757   2.568   7.676  0.2402 -0.9483  0.3280
   65SAPC  C217 5343   3.674   2.492   7.853 -0.2592  0.1475 -0.2286
   65SAPC  H17R 5344   3.577   2.490   7.908 -0.7921  2.1459 -1.0059
   65SAPC  H17S 5345   3.756   2.548   7.903  0.0136  0.2735 -0.8093
   65SAPC  C218 5346   3.731   2.350   7.845 -0.4220  0.0065 -0.4804
   65SAPC  H18R 5347   3.823   2.343   7.784 -0.1267 -1.9577  0.0993
   65SAPC  H18S 5348   3.651   2.302   7.785  0.2345 -1.2054 -0.4195
   65SAPC  C219 5349   3.754   2.278   7.975  0.5590  0.1963  0.5394
   65SAPC  H19R 5350   3.818   2.189   7.958 -2.1865 -2.3078  2.2850
   65SAPC  H19S 5351   3.662   2.239   8.023 -0.2336 -0.8878 -1.6897
   65SAPC  C220 5352   3.813   2.360   8.087 -0.0392 -1.0631  0.5299
   65SAPC  H20R 5353   3.911   2.398   8.051 -0.2920 -1.2948 -0.4287
   65SAPC  H20S 5354   3.827   2.288   8.171 -1.2701 -1.6943  0.2213
   65SAPC  H20T 5355   3.739   2.439   8.112  2.3331  0.5931  3.0064
   65SAPC   C33 5356   3.586   1.673   6.805 -0.1194 -0.1975  0.0299
   65SAPC   H3X 5357   3.481   1.670   6.771  0.2547  0.9649 -1.3409
   65SAPC   H3Y 5358   3.616   1.766   6.751  0.5687 -0.1416  0.4926
   65SAPC   C34 5359   3.578   1.712   6.951 -0.0757  1.0731  0.7985
   65SAPC   H4X 5360   3.548   1.624   7.012  1.3234  1.1063  1.5567
   65SAPC   H4Y 5361   3.504   1.794   6.964 -1.0902  0.2232  0.5585
   65SAPC   C35 5362   3.713   1.764   7.003  0.4003  1.0162  0.4235
   65SAPC   H5X 5363   3.739   1.851   6.938  1.8558  0.8945  0.8145
   65SAPC   H5Y 5364   3.793   1.687   7.007  0.3756  1.0533  2.3716
   65SAPC   C36 5365   3.702   1.831   7.139  0.2265  0.3619 -0.5590
   65SAPC   H6X 5366   3.653   1.930   7.128 -1.4270 -0.3677 -0.0968
   65SAPC   H6Y 5367   3.806   1.859   7.167  0.3953  2.1972 -2.7679
   65SAPC   C37 5368   3.645   1.733   7.241 -0.2819  1.0627  0.1787
   65SAPC   H7X 5369   3.697   1.636   7.225  0.9683  1.4118  1.8862
   65SAPC   H7Y 5370   3.537   1.715   7.222  0.2287 -0.3785 -1.6253
   65SAPC   C38 5371   3.667   1.787   7.380  0.1571  0.5843  0.8429
   65SAPC   H8X 5372   3.767   1.833   7.383 -0.3984  1.8903 -0.0620
   65SAPC   H8Y 5373   3.662   1.708   7.458 -1.0497  1.4329  1.6553
   65SAPC   C39 5374   3.572   1.895   7.417 -0.0026 -0.0219  0.5257
   65SAPC   H9X 5375   3.472   1.862   7.382  0.4244  0.5738 -1.4045
   65SAPC   H9Y 5376   3.592   1.993   7.369 -1.9614  0.5735  0.8639
   65SAPC  C310 5377   3.553   1.920   7.573  0.2175 -0.3160 -0.2437
   65SAPC  H10X 5378   3.510   1.827   7.618 -0.5438  0.4468  0.6778
   65SAPC  H10Y 5379   3.487   2.008   7.583 -0.5392 -0.7728 -1.1124
   65SAPC  C311 5380   3.669   1.971   7.651  0.0772  0.4634 -0.2802
   65SAPC  H11X 5381   3.701   2.069   7.612 -3.0390  1.8133  0.2610
   65SAPC  H11Y 5382   3.755   1.901   7.640 -0.2993  0.1957 -1.8200
   65SAPC  C312 5383   3.643   1.997   7.799  0.4924  1.2064  0.7472
   65SAPC  H12X 5384   3.572   2.076   7.831 -0.3437  1.2887 -1.2092
   65SAPC  H12Y 5385   3.738   2.044   7.832  1.0096  1.2478 -0.7289
   65SAPC  C313 5386   3.613   1.866   7.880  0.4602 -0.2248 -0.3363
   65SAPC  H13X 5387   3.690   1.787   7.872  0.2542 -0.5751  0.9293
   65SAPC  H13Y 5388   3.514   1.826   7.850  0.7540 -0.6632 -0.7451
   65SAPC  C314 5389   3.600   1.897   8.032 -0.4706 -0.4182 -0.2206
   65SAPC  H14X 5390   3.541   1.818   8.084 -0.7811 -0.3343 -0.4473
   65SAPC  H14Y 5391   3.548   1.992   8.053  0.9623  0.0838  1.3798
   65SAPC  C315 5392   3.736   1.895   8.100 -0.6069  0.0825  0.0394
   65SAPC  H15X 5393   3.819   1.928   8.033 -0.8531  0.2411 -0.1932
   65SAPC  H15Y 5394   3.751   1.789   8.130 -3.9748 -0.4405  0.2965
   65SAPC  C316 5395   3.732   1.972   8.230 -0.4112 -0.5913 -0.3524
   65SAPC  H16X 5396   3.641   1.949   8.288 -0.2858 -0.3952 -0.0759
   65SAPC  H16Y 5397   3.719   2.079   8.202  0.6143 -0.7894 -1.7273
   65SAPC  C317 5398   3.853   1.951   8.322  0.5948  0.5730 -0.7005
   65SAPC  H17X 5399   3.952   1.953   8.271  1.0604 -2.0968 -0.0381
   65SAPC  H17Y 5400   3.849   1.844   8.349 -1.6200  0.8448  0.2550
   65SAPC  C318 5401   3.842   2.048   8.446 -0.2714  0.4143 -0.0404
   65SAPC  H18X 5402   3.746   2.023   8.495 -0.3779  1.5203  0.3291
   65SAPC  H18Y 5403   3.852   2.156   8.423 -0.0630  0.0116 -2.0638
   65SAPC  H18Z 5404   3.907   2.016   8.530  0.1758 -0.4689 -0.6980
   66SAPC     N 5405   0.397   5.246   5.914  0.5516 -0.0757 -0.4708
   66SAPC   C12 5406   0.382   5.101   5.860 -0.0942 -0.6572  0.2331
   66SAPC  H12A 5407   0.483   5.061   5.860 -0.4987 -1.7277  1.2358
   66SAPC  H12B 5408   0.360   5.115   5.755  2.4464 -2.7071 -0.6734
   66SAPC   C13 5409   0.522   5.305   5.866  0.1264 -0.7964 -0.8258
   66SAPC  H13A 5410   0.513   5.339   5.764  0.6748  2.9704  0.2554
   66SAPC  H13B 5411   0.553   5.388   5.927 -0.7824 -0.1859 -1.1749
   66SAPC  H13C 5412   0.595   5.226   5.858 -1.4611 -2.4357 -0.0636
   66SAPC   C14 5413   0.286   5.330   5.878 -0.1309 -0.5755  0.1785
   66SAPC  H14A 5414   0.197   5.318   5.939  0.7861 -1.4591  1.3780
   66SAPC  H14B 5415   0.305   5.435   5.897  0.4206 -1.0125  2.2513
   66SAPC  H14C 5416   0.264   5.327   5.772 -2.2438  0.3872  0.5255
   66SAPC   C15 5417   0.394   5.238   6.061 -0.0650  0.4613  0.4234
   66SAPC  H15A 5418   0.314   5.169   6.081 -1.0919  0.7258 -2.3338
   66SAPC  H15B 5419   0.488   5.200   6.100  1.0014  2.1693 -0.3354
   66SAPC  H15C 5420   0.377   5.338   6.099  1.1961  1.1600 -0.7598
   66SAPC   C11 5421   0.273   5.015   5.928 -0.6694  0.1324  0.1698
   66SAPC  H11A 5422   0.314   4.974   6.023 -1.0515  0.2443  0.3835
   66SAPC  H11B 5423   0.252   4.937   5.852 -0.8502  0.8600 -0.5420
   66SAPC     P 5424   0.042   5.055   6.048  0.3162 -0.2969 -0.4139
   66SAPC   O13 5425  -0.086   5.114   6.011 -0.7662  0.4692  0.1197
   66SAPC   O14 5426   0.040   4.912   6.064  0.0357 -0.0541  0.2699
   66SAPC   O12 5427   0.147   5.075   5.942 -0.4351  0.2519  0.0415
   66SAPC   O11 5428   0.092   5.127   6.184 -0.6203 -0.4762  0.3669
   66SAPC    C1 5429   0.041   5.235   6.249  0.0719 -0.9064 -0.6653
   66SAPC    HA 5430   0.123   5.306   6.271 -0.2618 -1.1422  1.5470
   66SAPC    HB 5431  -0.041   5.289   6.197 -0.3175 -0.1169  0.7175
   66SAPC    C2 5432  -0.032   5.194   6.386 -0.0183 -0.4670  0.6142
   66SAPC    HS 5433  -0.038   5.282   6.453  0.5077 -2.7438  3.8582
   66SAPC   O21 5434   0.032   5.081   6.458  0.6772 -0.0915 -0.6007
   66SAPC   C21 5435   0.142   5.115   6.525  1.1649 -0.1143 -0.4736
   66SAPC   O22 5436   0.180   5.228   6.534 -0.5820 -0.2721 -0.4578
   66SAPC   C22 5437   0.208   4.988   6.582  0.1243 -0.7605 -0.5938
   66SAPC   H2R 5438   0.138   4.925   6.642  0.1818 -1.3889 -1.1711
   66SAPC   H2S 5439   0.243   4.919   6.502 -0.6564 -3.2263  1.0645
   66SAPC    C3 5440  -0.176   5.161   6.349  0.4779 -0.0690 -0.1203
   66SAPC    HX 5441  -0.186   5.106   6.253  1.9672 -1.0557  0.2499
   66SAPC    HY 5442  -0.239   5.252   6.335  0.2670 -0.3430 -1.0432
   66SAPC   O31 5443  -0.260   5.080   6.438 -0.1534 -0.1791  0.5984
   66SAPC   C31 5444  -0.296   5.141   6.551  0.6658 -0.2784 -0.6821
   66SAPC   O32 5445  -0.251   5.247   6.592  0.0611  0.2296 -0.2886
   66SAPC   C32 5446  -0.393   5.048   6.623  0.0318  0.6462  0.6957
   66SAPC   H2X 5447  -0.390   4.949   6.574 -1.4675  0.4362  0.9981
   66SAPC   H2Y 5448  -0.498   5.082   6.615 -0.4392 -0.0589  3.0605
   66SAPC   C23 5449   0.325   5.032   6.665  0.3805 -0.5097 -0.0165
   66SAPC   H3R 5450   0.362   5.131   6.630  0.9699 -0.6009  0.3353
   66SAPC   H3S 5451   0.408   4.963   6.640  1.4070  1.0345 -1.0864
   66SAPC   C24 5452   0.299   5.045   6.819  0.1077  0.3560 -0.9645
   66SAPC   H4R 5453   0.405   5.049   6.852  0.2473 -0.0568 -1.3567
   66SAPC   H4S 5454   0.253   4.948   6.849  1.8142  0.4557  2.4900
   66SAPC   C25 5455   0.219   5.159   6.870  0.5085  0.2440  0.2841
   66SAPC   H5R 5456   0.141   5.200   6.805 -1.6512 -1.1871  1.8315
   66SAPC   C26 5457   0.243   5.230   6.979  0.8200 -0.7350 -0.8487
   66SAPC   H6R 5458   0.159   5.295   7.005  1.5637 -0.8692  2.2391
   66SAPC   C27 5459   0.340   5.196   7.089  0.7495  0.2118 -0.3434
   66SAPC   H7R 5460   0.410   5.118   7.050 -1.2545 -1.4570 -0.7885
   66SAPC   H7S 5461   0.279   5.149   7.169 -1.8185  1.8358 -1.2400
   66SAPC   C28 5462   0.415   5.310   7.152  0.2517  0.0130  0.1967
   66SAPC   H8R 5463   0.432   5.393   7.082  0.6582 -1.2779 -1.2895
   66SAPC   C29 5464   0.446   5.338   7.279 -0.0445  0.2605 -0.0459
   66SAPC   H9R 5465   0.499   5.431   7.305  0.2418 -0.9204  4.3605
   66SAPC  C210 5466   0.416   5.250   7.395 -1.4448 -0.4000  0.5907
   66SAPC  H10R 5467   0.507   5.261   7.457 -0.7136 -1.0353 -0.3318
   66SAPC  H10S 5468   0.391   5.146   7.364 -0.3198 -0.1256 -1.4690
   66SAPC  C211 5469   0.299   5.296   7.478 -0.6640  0.0409 -0.6468
   66SAPC  H11R 5470   0.199   5.259   7.450 -0.8959 -0.7396  1.1111
   66SAPC  C212 5471   0.310   5.359   7.596  0.3086 -0.2733 -0.4695
   66SAPC  H12R 5472   0.223   5.394   7.654  0.5810  0.7353 -0.6508
   66SAPC  C213 5473   0.438   5.392   7.674  0.0004 -0.2467  0.1739
   66SAPC  H13R 5474   0.503   5.447   7.603 -0.1712  0.1050  0.2905
   66SAPC  H13S 5475   0.481   5.297   7.712 -0.1434 -0.5710 -0.4629
   66SAPC  C214 5476   0.403   5.472   7.797  0.2970 -0.1216 -0.5451
   66SAPC  H14R 5477   0.396   5.581   7.780 -1.1502 -0.5429 -3.1463
   66SAPC  C215 5478   0.414   5.439   7.933 -0.4037 -0.3894  0.1694
   66SAPC  H15R 5479   0.401   5.513   8.014 -0.3390 -1.3982  1.1199
   66SAPC  C216 5480   0.460   5.308   7.988  0.6365 -0.8662  0.1197
   66SAPC  H16R 5481   0.464   5.228   7.910  0.1098 -0.3802 -0.4183
   66SAPC  H16S 5482   0.388   5.275   8.066  1.3596 -1.0761  0.7140
   66SAPC  C217 5483   0.588   5.330   8.073 -0.2361 -0.3239 -0.3548
   66SAPC  H17R 5484   0.574   5.407   8.151  1.4981 -0.7002  0.3756
   66SAPC  H17S 5485   0.677   5.358   8.012  2.2512 -1.3320  2.5863
   66SAPC  C218 5486   0.634   5.199   8.137  0.2048 -0.1535 -0.8964
   66SAPC  H18R 5487   0.659   5.127   8.055  0.3348 -2.2353  0.8731
   66SAPC  H18S 5488   0.548   5.159   8.196  1.0619  0.4228  0.7927
   66SAPC  C219 5489   0.746   5.209   8.234  0.2366 -0.0015  0.2490
   66SAPC  H19R 5490   0.703   5.225   8.335 -1.5005  0.4355 -0.5174
   66SAPC  H19S 5491   0.808   5.297   8.209  0.8268 -0.8994 -1.6900
   66SAPC  C220 5492   0.827   5.078   8.239 -0.4156  0.4828  0.1334
   66SAPC  H20R 5493   0.755   4.999   8.267 -1.3834  1.7236  1.2857
   66SAPC  H20S 5494   0.914   5.088   8.308  0.1380 -1.5156 -0.2111
   66SAPC  H20T 5495   0.866   5.049   8.139 -2.6807 -0.2062 -0.6121
   66SAPC   C33 5496  -0.374   5.024   6.771  0.3006  0.2949  0.3373
   66SAPC   H3X 5497  -0.472   4.998   6.817  1.1439 -3.1321  0.4537
   66SAPC   H3Y 5498  -0.336   5.115   6.824 -0.9310  0.9415  0.1437
   66SAPC   C34 5499  -0.281   4.906   6.807  0.5711  0.2995 -0.0720
   66SAPC   H4X 5500  -0.184   4.920   6.756  0.7475  0.9497  0.4257
   66SAPC   H4Y 5501  -0.315   4.808   6.766  0.2028 -0.2960  1.5912
   66SAPC   C35 5502  -0.278   4.890   6.958 -0.3774 -1.0901 -0.5276
   66SAPC   H5X 5503  -0.235   4.791   6.982  2.9967  0.7130  1.6599
   66SAPC   H5Y 5504  -0.377   4.900   7.006 -0.8796  0.6509 -1.7885
   66SAPC   C36 5505  -0.172   4.990   7.026 -0.2051 -0.1610 -0.0424
   66SAPC   H6X 5506  -0.220   5.089   7.019 -0.2486 -0.2663 -1.7375
   66SAPC   H6Y 5507  -0.077   4.991   6.967  0.6028  0.6131  1.2064
   66SAPC   C37 5508  -0.142   4.965   7.177 -0.3370 -0.0175  1.2064
   66SAPC   H7X 5509  -0.122   4.859   7.202  1.6960  0.4676  1.8206
   66SAPC   H7Y 5510  -0.233   4.999   7.231 -1.0113  0.5811 -0.2621
   66SAPC   C38 5511  -0.023   5.051   7.206 -0.0533  0.2900 -0.2914
   66SAPC   H8X 5512  -0.057   5.157   7.205  2.1350  1.0899  1.2730
   66SAPC   H8Y 5513   0.048   5.039   7.122 -1.4740 -0.1871 -1.4582
   66SAPC   C39 5514   0.032   5.023   7.345 -0.1938 -0.0100 -0.4726
   66SAPC   H9X 5515   0.135   5.063   7.350 -0.4152  0.4502  1.8716
   66SAPC   H9Y 5516   0.049   4.913   7.351  3.7349  0.4631 -0.3513
   66SAPC  C310 5517  -0.057   5.087   7.455 -0.8670 -0.0324 -0.3924
   66SAPC  H10X 5518  -0.164   5.060   7.442 -0.9831  0.4099 -0.3637
   66SAPC  H10Y 5519  -0.062   5.198   7.453  1.0670  0.0979  0.1033
   66SAPC  C311 5520  -0.021   5.036   7.595 -0.1004  0.1732 -0.0665
   66SAPC  H11X 5521   0.079   5.079   7.617  0.1865  0.0919 -1.1938
   66SAPC  H11Y 5522   0.005   4.929   7.580  2.7037  0.6644  0.7766
   66SAPC  C312 5523  -0.138   5.057   7.696 -0.0875 -0.1679  0.7919
   66SAPC  H12X 5524  -0.236   5.029   7.653 -0.0358  0.9261 -0.0959
   66SAPC  H12Y 5525  -0.136   5.168   7.690  2.2899 -0.2235 -0.9632
   66SAPC  C313 5526  -0.116   5.001   7.839 -0.6049 -0.2863  0.5999
   66SAPC  H13X 5527  -0.126   4.891   7.833  0.8977 -0.4204  0.1499
   66SAPC  H13Y 5528  -0.198   5.044   7.900 -0.9619  0.6950 -0.5368
   66SAPC  C314 5529   0.015   5.046   7.912 -0.4944  0.1829  0.0323
   66SAPC  H14X 5530   0.010   5.157   7.914  0.6498  0.2645 -0.4160
   66SAPC  H14Y 5531   0.101   5.018   7.847 -1.4762 -0.1749 -1.1581
   66SAPC  C315 5532   0.022   4.981   8.044  0.2186 -0.4455  0.2501
   66SAPC  H15X 5533   0.021   4.870   8.029  1.0821 -0.3558 -0.5448
   66SAPC  H15Y 5534  -0.063   5.011   8.109 -0.4828 -3.0598  0.6548
   66SAPC  C316 5535   0.145   5.030   8.122  0.3457  0.8766  0.2154
   66SAPC  H16X 5536   0.147   5.141   8.126  0.2244  0.8591  1.0150
   66SAPC  H16Y 5537   0.242   5.001   8.076  0.8073  1.1386  1.0129
   66SAPC  C317 5538   0.153   4.975   8.264 -0.5899  0.2938  0.7726
   66SAPC  H17X 5539   0.149   4.864   8.265 -2.2852  0.3298  0.6911
   66SAPC  H17Y 5540   0.063   5.007   8.322  0.4234  0.3239  2.4067
   66SAPC  C318 5541   0.261   5.034   8.338  0.0414 -0.4164 -0.3562
   66SAPC  H18X 5542   0.246   5.140   8.369 -1.0134 -0.6238 -0.1185
   66SAPC  H18Y 5543   0.354   5.016   8.281 -0.1506 -0.1220 -0.7637
   66SAPC  H18Z 5544   0.270   4.977   8.433 -0.9175 -0.0518 -0.0295
   67SAPC     N 5545   2.022   4.532   6.222 -0.3076  0.3661 -0.2278
   67SAPC   C12 5546   2.114   4.433   6.150 -0.0932 -0.7435 -0.1192
   67SAPC  H12A 5547   2.069   4.414   6.054  0.5036  0.1072 -0.5819
   67SAPC  H12B 5548   2.119   4.340   6.204  2.0034 -2.2474 -2.6370
   67SAPC   C13 5549   2.063   4.538   6.366 -0.2344  0.7095 -0.2387
   67SAPC  H13A 5550   2.045   4.449   6.423 -0.3681  0.2495 -0.9830
   67SAPC  H13B 5551   2.169   4.557   6.375 -0.1929  0.3857 -0.0246
   67SAPC  H13C 5552   2.002   4.615   6.411  1.0196  1.2277  0.6246
   67SAPC   C14 5553   2.022   4.671   6.165 -0.4342  0.0362 -0.0913
   67SAPC  H14A 5554   1.954   4.738   6.215  1.0121  0.5381  1.2913
   67SAPC  H14B 5555   2.122   4.711   6.167  0.3125 -1.7617  0.7108
   67SAPC  H14C 5556   1.993   4.668   6.061  1.3445 -3.8836 -0.6538
   67SAPC   C15 5557   1.881   4.488   6.221 -0.5600  0.6848  0.4426
   67SAPC  H15A 5558   1.818   4.537   6.294  1.9496  0.9438  2.5980
   67SAPC  H15B 5559   1.842   4.492   6.120  2.1260 -0.9478 -0.7844
   67SAPC  H15C 5560   1.870   4.388   6.261  1.2487 -0.0564 -0.7549
   67SAPC   C11 5561   2.269   4.469   6.139  0.0908  0.7088  0.2012
   67SAPC  H11A 5562   2.266   4.573   6.098  0.6747  0.6884  0.1045
   67SAPC  H11B 5563   2.310   4.402   6.060 -0.3921  0.4223  0.1898
   67SAPC     P 5564   2.486   4.420   6.263 -0.2949 -0.0138  0.2299
   67SAPC   O13 5565   2.510   4.280   6.215  0.2199  0.0006  0.4291
   67SAPC   O14 5566   2.567   4.537   6.206  0.4812 -0.0168  0.2412
   67SAPC   O12 5567   2.332   4.469   6.266  0.1541  0.2230 -0.3091
   67SAPC   O11 5568   2.520   4.413   6.418  0.2643 -0.5658 -0.3051
   67SAPC    C1 5569   2.447   4.318   6.499 -0.4955 -0.1048  0.5972
   67SAPC    HA 5570   2.339   4.337   6.514 -0.8177 -1.3837  0.0188
   67SAPC    HB 5571   2.451   4.217   6.453  0.1775 -0.5703  1.6419
   67SAPC    C2 5572   2.489   4.300   6.648 -0.1739  0.0560 -0.6967
   67SAPC    HS 5573   2.423   4.228   6.700 -1.0801  1.2138 -0.1938
   67SAPC   O21 5574   2.487   4.419   6.724  0.3683 -0.7362 -0.4972
   67SAPC   C21 5575   2.368   4.479   6.741 -0.0979  0.2819  0.6396
   67SAPC   O22 5576   2.256   4.430   6.728  0.0196  0.1130 -0.4122
   67SAPC   C22 5577   2.395   4.620   6.796 -0.0382 -0.6413 -0.0214
   67SAPC   H2R 5578   2.500   4.640   6.825  0.6230 -1.3581 -1.7751
   67SAPC   H2S 5579   2.372   4.691   6.713  4.0939  0.5143 -0.3899
   67SAPC    C3 5580   2.638   4.239   6.637  0.2874  0.2959 -0.1449
   67SAPC    HX 5581   2.699   4.312   6.580  1.2989 -0.1805  0.3158
   67SAPC    HY 5582   2.615   4.148   6.579 -2.2764 -0.0504  1.2432
   67SAPC   O31 5583   2.699   4.213   6.765  0.1129  0.0853 -0.0579
   67SAPC   C31 5584   2.785   4.312   6.816  0.5439 -0.9233  0.5584
   67SAPC   O32 5585   2.805   4.421   6.757  0.7546  0.6343  0.0761
   67SAPC   C32 5586   2.864   4.258   6.940  0.4161 -0.2292  0.0419
   67SAPC   H2X 5587   2.974   4.267   6.925  0.1790  0.9780 -1.1510
   67SAPC   H2Y 5588   2.846   4.149   6.952  0.0450 -0.3594 -1.4213
   67SAPC   C23 5589   2.313   4.660   6.919  0.3381 -0.2285  0.1612
   67SAPC   H3R 5590   2.209   4.638   6.890 -0.9876  2.3940  2.3990
   67SAPC   H3S 5591   2.317   4.769   6.944  0.3480 -0.1586 -0.1439
   67SAPC   C24 5592   2.345   4.586   7.045  0.4190 -0.4824  0.8558
   67SAPC   H4R 5593   2.447   4.606   7.085  0.4152  1.9176 -0.1842
   67SAPC   H4S 5594   2.351   4.478   7.017 -1.0857  0.0503 -1.8344
   67SAPC   C25 5595   2.234   4.594   7.150 -0.9597  0.2434 -0.6343
   67SAPC   H5R 5596   2.145   4.540   7.116 -1.6371  0.3734  0.8934
   67SAPC   C26 5597   2.248   4.634   7.276 -0.0287 -0.5218 -0.4165
   67SAPC   H6R 5598   2.164   4.610   7.343  0.9502 -1.5130  0.4975
   67SAPC   C27 5599   2.370   4.695   7.347  0.6427  0.3093  0.3702
   67SAPC   H7R 5600   2.453   4.705   7.273  1.3430  3.3960  1.4398
   67SAPC   H7S 5601   2.420   4.628   7.421  2.4956  1.8970  0.6515
   67SAPC   C28 5602   2.333   4.826   7.410 -0.2984  0.7926  0.3190
   67SAPC   H8R 5603   2.352   4.917   7.350 -0.1805  0.3077 -0.3963
   67SAPC   C29 5604   2.297   4.834   7.542  0.1069  0.3106  0.2842
   67SAPC   H9R 5605   2.284   4.933   7.587  0.8914  0.1819  0.8166
   67SAPC  C210 5606   2.277   4.726   7.647 -0.4866 -0.5718 -0.1094
   67SAPC  H10R 5607   2.224   4.644   7.593 -3.0531  1.3933 -0.7319
   67SAPC  H10S 5608   2.201   4.747   7.724 -0.2085 -2.0092  0.5926
   67SAPC  C211 5609   2.414   4.684   7.709  0.0931  0.0423 -0.1453
   67SAPC  H11R 5610   2.488   4.654   7.633  0.5052 -0.8924  0.6016
   67SAPC  C212 5611   2.444   4.676   7.837 -0.2884  0.2347  0.0928
   67SAPC  H12R 5612   2.550   4.663   7.863  0.0069 -0.2534 -1.2762
   67SAPC  C213 5613   2.356   4.706   7.959  0.3795 -0.1845  0.0002
   67SAPC  H13R 5614   2.342   4.618   8.026 -1.5315 -0.9980 -1.3853
   67SAPC  H13S 5615   2.252   4.719   7.923 -0.0590 -2.3361  0.3583
   67SAPC  C214 5616   2.407   4.833   8.024  0.8266  0.6907  0.6648
   67SAPC  H14R 5617   2.416   4.926   7.967 -1.0046  1.4473  1.5085
   67SAPC  C215 5618   2.462   4.842   8.142 -0.5066 -0.0878 -0.1990
   67SAPC  H15R 5619   2.484   4.943   8.180 -1.9951  0.4857 -0.7649
   67SAPC  C216 5620   2.495   4.733   8.236 -0.0959 -0.1209  0.2563
   67SAPC  H16R 5621   2.604   4.734   8.257  0.0831  0.1820 -0.6430
   67SAPC  H16S 5622   2.480   4.637   8.182 -1.3735 -0.4437  1.1338
   67SAPC  C217 5623   2.396   4.747   8.360 -0.3484  0.7608 -0.0910
   67SAPC  H17R 5624   2.296   4.708   8.330  0.1822  1.3522 -2.8919
   67SAPC  H17S 5625   2.391   4.855   8.385  3.1314  0.9312  0.3708
   67SAPC  C218 5626   2.437   4.668   8.484 -0.0155  0.5744 -0.5931
   67SAPC  H18R 5627   2.524   4.712   8.537  1.1607 -1.1867 -0.9678
   67SAPC  H18S 5628   2.486   4.569   8.470  1.3248  1.0305  0.5796
   67SAPC  C219 5629   2.321   4.641   8.588  0.7862 -0.4237  0.6535
   67SAPC  H19R 5630   2.362   4.570   8.664 -0.6882 -1.2084  0.7566
   67SAPC  H19S 5631   2.242   4.584   8.535 -0.8253  1.9308  0.3670
   67SAPC  C220 5632   2.263   4.765   8.656 -0.3216 -0.0270 -0.1650
   67SAPC  H20R 5633   2.328   4.821   8.726  0.8559 -1.7007  0.1337
   67SAPC  H20S 5634   2.167   4.742   8.709 -0.9259 -0.8657 -1.5666
   67SAPC  H20T 5635   2.244   4.836   8.573 -0.7343 -0.2692 -0.2820
   67SAPC   C33 5636   2.827   4.344   7.056 -0.4370  0.1146  0.0907
   67SAPC   H3X 5637   2.866   4.444   7.027  5.0506 -1.2756  1.5112
   67SAPC   H3Y 5638   2.897   4.322   7.139 -1.2054 -1.5953  0.3432
   67SAPC   C34 5639   2.682   4.338   7.095  0.2584  0.1655 -0.0735
   67SAPC   H4X 5640   2.644   4.236   7.115 -1.3064  0.4975 -1.1674
   67SAPC   H4Y 5641   2.618   4.380   7.014 -3.9894 -0.1915  2.7671
   67SAPC   C35 5642   2.654   4.425   7.212 -0.7329  0.4172  0.0854
   67SAPC   H5X 5643   2.551   4.413   7.251 -0.4752  1.9618  1.3710
   67SAPC   H5Y 5644   2.669   4.531   7.180  2.6198 -0.5337 -2.0136
   67SAPC   C36 5645   2.746   4.397   7.335  0.2210 -0.6220 -0.5396
   67SAPC   H6X 5646   2.848   4.432   7.306 -0.0579 -1.2150 -2.4255
   67SAPC   H6Y 5647   2.740   4.287   7.352 -0.0844 -0.4716  0.3336
   67SAPC   C37 5648   2.698   4.457   7.472  0.6107 -0.4406 -0.2508
   67SAPC   H7X 5649   2.591   4.432   7.489  0.8136 -0.5209  1.0174
   67SAPC   H7Y 5650   2.696   4.568   7.462  1.6978 -0.5113 -1.5523
   67SAPC   C38 5651   2.799   4.434   7.590 -0.2782  0.0218  0.4459
   67SAPC   H8X 5652   2.892   4.491   7.570 -0.3762 -0.1902 -0.6713
   67SAPC   H8Y 5653   2.824   4.326   7.590  0.8447  0.2700  0.7285
   67SAPC   C39 5654   2.752   4.482   7.730  0.3868 -0.4825  0.1590
   67SAPC   H9X 5655   2.675   4.407   7.758  0.0825  0.1969  1.1791
   67SAPC   H9Y 5656   2.701   4.580   7.722 -0.4390 -0.9005  0.2310
   67SAPC  C310 5657   2.863   4.486   7.836 -0.1674  0.2397  0.2656
   67SAPC  H10X 5658   2.935   4.560   7.796 -0.3083 -0.6250 -1.6789
   67SAPC  H10Y 5659   2.898   4.381   7.849  0.5953  0.6936  2.3370
   67SAPC  C311 5660   2.810   4.548   7.965 -0.0807 -0.3046  0.4345
   67SAPC  H11X 5661   2.754   4.637   7.930 -0.5941 -0.5743  0.5606
   67SAPC  H11Y 5662   2.897   4.572   8.030 -0.7723 -0.8391  1.5737
   67SAPC  C312 5663   2.715   4.450   8.038  0.2990  0.3661 -0.1056
   67SAPC  H12X 5664   2.680   4.383   7.957 -3.3394  0.7059  1.0288
   67SAPC  H12Y 5665   2.625   4.502   8.077  0.6802  0.5259  0.5844
   67SAPC  C313 5666   2.771   4.373   8.154  0.1277  0.1571 -0.2948
   67SAPC  H13X 5667   2.866   4.328   8.120 -0.2385 -0.3439 -0.6701
   67SAPC  H13Y 5668   2.693   4.295   8.167  0.6166 -0.0859  1.4260
   67SAPC  C314 5669   2.779   4.451   8.281  0.1758 -0.1836 -0.4381
   67SAPC  H14X 5670   2.680   4.500   8.288 -0.0492 -0.4956 -1.2558
   67SAPC  H14Y 5671   2.857   4.529   8.272 -0.8250  1.4271  3.1861
   67SAPC  C315 5672   2.800   4.365   8.402 -0.1567  0.0039 -0.3957
   67SAPC  H15X 5673   2.859   4.272   8.385  2.5685  1.5842 -0.1468
   67SAPC  H15Y 5674   2.710   4.323   8.452  1.3816 -1.5412  1.2583
   67SAPC  C316 5675   2.872   4.431   8.524  0.0374  0.1688  0.5232
   67SAPC  H16X 5676   2.842   4.537   8.540 -0.6057  0.1284 -0.3302
   67SAPC  H16Y 5677   2.976   4.454   8.491 -0.3608  0.0137 -0.9272
   67SAPC  C317 5678   2.870   4.360   8.660 -0.3627  0.5640  0.0296
   67SAPC  H17X 5679   2.924   4.263   8.661  1.5525  1.5604  2.1674
   67SAPC  H17Y 5680   2.761   4.356   8.680 -0.7407 -0.8198 -2.0119
   67SAPC  C318 5681   2.936   4.437   8.772 -0.8603  0.7930 -0.6506
   67SAPC  H18X 5682   2.927   4.373   8.863 -0.4663  0.2495 -0.9824
   67SAPC  H18Y 5683   2.885   4.535   8.783 -1.2979  0.4359  0.7128
   67SAPC  H18Z 5684   3.044   4.439   8.748 -0.5013 -1.4737  0.4654
   68SAPC     N 5685   2.550   1.456   6.062  0.0320 -0.6316  0.5537
   68SAPC   C12 5686   2.441   1.385   6.150  0.0105  0.1075  0.7233
   68SAPC  H12A 5687   2.489   1.332   6.231 -1.4537 -0.8258  1.0306
   68SAPC  H12B 5688   2.398   1.304   6.093  1.7282  0.1886 -0.7680
   68SAPC   C13 5689   2.604   1.581   6.130 -0.6037 -0.5824  0.1415
   68SAPC  H13A 5690   2.647   1.559   6.226 -1.0794  1.3905  0.8422
   68SAPC  H13B 5691   2.684   1.613   6.064 -1.3980 -0.6556 -0.8840
   68SAPC  H13C 5692   2.543   1.669   6.129  0.1071 -0.0745  0.5701
   68SAPC   C14 5693   2.678   1.368   6.046 -0.0217 -0.2006 -0.1009
   68SAPC  H14A 5694   2.761   1.418   5.999 -1.0466  0.5666 -1.1399
   68SAPC  H14B 5695   2.712   1.329   6.141  1.4217  0.9884 -0.0785
   68SAPC  H14C 5696   2.659   1.284   5.981 -0.2499 -1.0276  0.9973
   68SAPC   C15 5697   2.495   1.498   5.934  0.0769 -0.2113 -0.1758
   68SAPC  H15A 5698   2.573   1.522   5.862  0.0268 -0.9229 -0.4733
   68SAPC  H15B 5699   2.423   1.431   5.890 -0.5098 -0.3298  0.9273
   68SAPC  H15C 5700   2.430   1.583   5.946  2.4064  1.9806 -1.8518
   68SAPC   C11 5701   2.329   1.474   6.209  0.2178 -0.7141  0.8842
   68SAPC  H11A 5702   2.385   1.551   6.266 -0.2382  1.8243 -1.8323
   68SAPC  H11B 5703   2.262   1.413   6.274  0.3662 -1.7574  0.0948
   68SAPC     P 5704   2.220   1.699   6.113  0.1342  0.2199 -0.2152
   68SAPC   O13 5705   2.339   1.765   6.062  0.4579  0.3163 -1.0558
   68SAPC   O14 5706   2.093   1.731   6.045  0.0949  0.7375  0.0995
   68SAPC   O12 5707   2.244   1.543   6.112 -0.2738  0.2694  0.3252
   68SAPC   O11 5708   2.199   1.747   6.261  0.4075  0.6609 -0.0262
   68SAPC    C1 5709   2.071   1.743   6.326 -0.2430 -0.5173  0.4171
   68SAPC    HA 5710   2.007   1.829   6.298  0.8808  0.2280  0.0699
   68SAPC    HB 5711   2.022   1.645   6.306 -0.5086 -0.4281  0.6259
   68SAPC    C2 5712   2.089   1.741   6.482  0.0313  0.3942 -0.4485
   68SAPC    HS 5713   2.129   1.840   6.512  1.4834  0.9947 -3.8918
   68SAPC   O21 5714   2.185   1.636   6.514  0.2940 -0.1862 -0.3166
   68SAPC   C21 5715   2.302   1.670   6.569  0.4918 -0.1959  0.1096
   68SAPC   O22 5716   2.332   1.785   6.600  0.3084 -0.0674  0.3781
   68SAPC   C22 5717   2.379   1.550   6.610 -0.7256  0.6100  0.1550
   68SAPC   H2R 5718   2.309   1.466   6.625  1.9584 -1.7208  0.4092
   68SAPC   H2S 5719   2.438   1.508   6.526 -2.5543 -3.7007  0.7669
   68SAPC    C3 5720   1.957   1.709   6.556 -1.3217  0.1571  0.7951
   68SAPC    HX 5721   1.914   1.611   6.526 -1.6747  0.5324  0.0503
   68SAPC    HY 5722   1.881   1.784   6.525  1.3471  1.3936 -3.5297
   68SAPC   O31 5723   1.973   1.726   6.701  0.3521  0.4022 -0.0866
   68SAPC   C31 5724   1.919   1.640   6.776 -0.3490 -0.0350  0.0924
   68SAPC   O32 5725   1.844   1.549   6.743  0.5748 -0.0193  0.3663
   68SAPC   C32 5726   1.947   1.673   6.926  0.1112 -0.4684 -1.0461
   68SAPC   H2X 5727   1.850   1.683   6.980  1.4398  5.2864  1.0934
   68SAPC   H2Y 5728   1.999   1.770   6.941 -1.3378  0.3986 -1.3526
   68SAPC   C23 5729   2.478   1.548   6.732 -0.3501 -0.5223 -0.0082
   68SAPC   H3R 5730   2.434   1.567   6.832  1.1446 -0.9179  0.7573
   68SAPC   H3S 5731   2.559   1.623   6.718  1.6308 -2.1535  1.9588
   68SAPC   C24 5732   2.539   1.404   6.737  0.0437  0.0193 -0.3554
   68SAPC   H4R 5733   2.574   1.375   6.636 -0.1917  2.4408 -1.1970
   68SAPC   H4S 5734   2.460   1.334   6.771 -1.1188  1.3841 -0.1368
   68SAPC   C25 5735   2.650   1.405   6.846 -0.3308  0.1126 -0.1748
   68SAPC   H5R 5736   2.752   1.430   6.813 -0.4682 -0.8255 -1.4259
   68SAPC   C26 5737   2.627   1.380   6.974  0.3825 -0.1359  0.0238
   68SAPC   H6R 5738   2.713   1.389   7.043  0.9253  0.0438 -0.6683
   68SAPC   C27 5739   2.494   1.344   7.037 -0.0323 -0.0130 -0.0919
   68SAPC   H7R 5740   2.400   1.381   6.990  0.9668  0.3911 -1.8742
   68SAPC   H7S 5741   2.503   1.399   7.133  0.8576  1.8075 -1.1686
   68SAPC   C28 5742   2.485   1.191   7.049 -0.3679  0.6131  0.3075
   68SAPC   H8R 5743   2.445   1.137   6.962  2.1145 -0.6295 -0.1553
   68SAPC   C29 5744   2.506   1.117   7.161 -0.7283 -0.4868 -0.2394
   68SAPC   H9R 5745   2.479   1.010   7.159 -1.4767 -0.3470  1.1174
   68SAPC  C210 5746   2.555   1.167   7.297  0.1956 -0.2785 -0.0440
   68SAPC  H10R 5747   2.616   1.259   7.289 -0.2788  0.0221 -0.2959
   68SAPC  H10S 5748   2.615   1.090   7.350  1.3044  1.1426  0.8249
   68SAPC  C211 5749   2.434   1.202   7.368  0.8643 -0.3084 -0.1065
   68SAPC  H11R 5750   2.335   1.190   7.323  1.1497  1.3163 -1.2542
   68SAPC  C212 5751   2.428   1.259   7.488  0.4786 -0.0200 -0.2620
   68SAPC  H12R 5752   2.334   1.284   7.540  0.0589  0.5928 -1.2829
   68SAPC  C213 5753   2.545   1.294   7.578 -0.3405  0.1863 -0.3004
   68SAPC  H13R 5754   2.589   1.395   7.561 -0.4162  0.5744  1.6434
   68SAPC  H13S 5755   2.630   1.238   7.534 -0.7174  0.9919 -2.1575
   68SAPC  C214 5756   2.530   1.259   7.726  0.1677  0.6391  0.7891
   68SAPC  H14R 5757   2.571   1.164   7.762  0.3460  1.2770  2.3898
   68SAPC  C215 5758   2.494   1.350   7.821 -0.4362 -0.5259 -0.1749
   68SAPC  H15R 5759   2.479   1.312   7.923  0.8770  1.9905  1.0626
   68SAPC  C216 5760   2.463   1.499   7.796  0.2399  0.4877  0.5716
   68SAPC  H16R 5761   2.362   1.526   7.835 -0.7950 -0.5699 -1.1855
   68SAPC  H16S 5762   2.445   1.518   7.688 -0.6936  0.8369  0.7796
   68SAPC  C217 5763   2.584   1.592   7.829  0.1655 -0.3845  0.3474
   68SAPC  H17R 5764   2.553   1.699   7.821  2.4520  0.3547  0.7482
   68SAPC  H17S 5765   2.662   1.563   7.756  1.1388 -2.2865  2.0669
   68SAPC  C218 5766   2.638   1.574   7.973  0.4450 -0.0333 -0.6005
   68SAPC  H18R 5767   2.647   1.469   8.009 -1.1296  0.9713  3.3334
   68SAPC  H18S 5768   2.563   1.604   8.050 -0.6584 -0.8060 -1.3484
   68SAPC  C219 5769   2.761   1.667   7.997  0.9995 -0.3264 -0.5734
   68SAPC  H19R 5770   2.742   1.763   7.945 -1.0255 -1.4320 -2.0522
   68SAPC  H19S 5771   2.856   1.627   7.955  0.8089 -1.6809  0.2245
   68SAPC  C220 5772   2.770   1.705   8.146  0.0622 -0.4624  0.7113
   68SAPC  H20R 5773   2.841   1.790   8.161 -0.9626  0.5286  0.0989
   68SAPC  H20S 5774   2.809   1.618   8.202  0.9171 -1.2710 -1.0541
   68SAPC  H20T 5775   2.673   1.739   8.188 -0.0750 -0.0544  0.0768
   68SAPC   C33 5776   2.026   1.557   7.000 -0.2305  0.4231  0.3699
   68SAPC   H3X 5777   2.072   1.600   7.091 -1.5688 -0.8466  1.6862
   68SAPC   H3Y 5778   2.113   1.524   6.939 -1.4201 -0.7991 -0.7369
   68SAPC   C34 5779   1.943   1.439   7.040 -0.2710 -0.3060 -0.3668
   68SAPC   H4X 5780   1.931   1.367   6.957  1.2961  0.2290 -1.1037
   68SAPC   H4Y 5781   1.840   1.471   7.066 -0.5278 -1.6200  0.2901
   68SAPC   C35 5782   2.007   1.359   7.157  0.0733  0.0877 -0.2596
   68SAPC   H5X 5783   2.021   1.426   7.245  1.9894 -0.4589 -0.1049
   68SAPC   H5Y 5784   2.106   1.315   7.133 -0.9760 -1.8353 -1.2645
   68SAPC   C36 5785   1.916   1.246   7.193  0.1447  0.3649  0.6862
   68SAPC   H6X 5786   1.914   1.170   7.112  0.6536 -0.8017  1.7324
   68SAPC   H6Y 5787   1.817   1.297   7.195 -0.0750  0.0206 -0.4502
   68SAPC   C37 5788   1.957   1.169   7.321 -0.1126 -0.6601 -0.9472
   68SAPC   H7X 5789   2.057   1.122   7.304  0.8086 -0.2910  2.6223
   68SAPC   H7Y 5790   1.871   1.099   7.329 -1.7538  1.3126 -0.6355
   68SAPC   C38 5791   1.955   1.249   7.454 -0.0075 -0.0254 -0.3664
   68SAPC   H8X 5792   2.032   1.329   7.456 -0.9055  0.8571 -0.4131
   68SAPC   H8Y 5793   1.975   1.191   7.546 -1.8864  0.4631  0.3996
   68SAPC   C39 5794   1.823   1.316   7.475 -0.3194 -0.4523 -0.0191
   68SAPC   H9X 5795   1.747   1.242   7.442 -0.5701  0.3893 -1.4192
   68SAPC   H9Y 5796   1.822   1.397   7.398  1.1777 -0.6929 -0.3146
   68SAPC  C310 5797   1.797   1.370   7.618 -0.4325  0.1152 -0.5093
   68SAPC  H10X 5798   1.852   1.465   7.633 -1.3849  0.5099  0.6088
   68SAPC  H10Y 5799   1.825   1.295   7.695 -1.4469 -0.1332 -0.3603
   68SAPC  C311 5800   1.659   1.406   7.643 -0.3219 -0.2030  0.8089
   68SAPC  H11X 5801   1.607   1.315   7.679  0.5985 -1.1088 -0.0692
   68SAPC  H11Y 5802   1.600   1.432   7.552 -2.3977 -1.3414  1.7628
   68SAPC  C312 5803   1.643   1.529   7.737  0.5642  0.0130  0.0442
   68SAPC  H12X 5804   1.538   1.565   7.736  0.2097 -0.8652 -2.2384
   68SAPC  H12Y 5805   1.701   1.619   7.706  0.0373 -0.0865 -1.3205
   68SAPC  C313 5806   1.694   1.512   7.882  0.4237  0.4103  0.4728
   68SAPC  H13X 5807   1.726   1.614   7.914  0.2308  0.6826 -0.1786
   68SAPC  H13Y 5808   1.781   1.443   7.879  1.0602  1.2171  0.0675
   68SAPC  C314 5809   1.586   1.442   7.970  0.5974 -0.1328 -0.2574
   68SAPC  H14X 5810   1.549   1.344   7.934 -0.8430  0.3659 -0.2055
   68SAPC  H14Y 5811   1.490   1.497   7.956 -1.1835 -2.8924  0.2817
   68SAPC  C315 5812   1.622   1.462   8.111  0.0709  0.6698 -0.3932
   68SAPC  H15X 5813   1.637   1.568   8.142  1.6897  1.0100 -2.2038
   68SAPC  H15Y 5814   1.715   1.406   8.130  0.0844  0.0709 -2.1348
   68SAPC  C316 5815   1.513   1.408   8.211 -0.6533 -0.0174  0.2499
   68SAPC  H16X 5816   1.517   1.301   8.180  1.6697  0.4495 -1.3195
   68SAPC  H16Y 5817   1.421   1.462   8.182 -0.0622 -0.1147 -2.0028
   68SAPC  C317 5818   1.555   1.422   8.357  0.2177  0.2303  0.1380
   68SAPC  H17X 5819   1.470   1.365   8.400  0.0339 -0.6815 -1.3826
   68SAPC  H17Y 5820   1.538   1.527   8.391  1.1014  0.6063 -0.5228
   68SAPC  C318 5821   1.701   1.376   8.404  0.8683 -0.2592 -0.3462
   68SAPC  H18X 5822   1.704   1.364   8.515  2.1342 -0.0389 -0.3393
   68SAPC  H18Y 5823   1.776   1.456   8.386 -0.0875  0.7884  0.1945
   68SAPC  H18Z 5824   1.730   1.285   8.347  0.5440 -1.4892  1.3597
   69SLPC     N 5825   5.626   0.136  10.631  0.5948 -0.3378  0.4421
   69SLPC   C13 5826   5.676   0.165  10.490 -0.0574 -0.0379  0.3842
   69SLPC  H13A 5827   5.650   0.087  10.420 -2.8920 -0.2821  1.5879
   69SLPC  H13B 5828   5.626   0.253  10.453  0.2667  0.7443  1.7409
   69SLPC  H13C 5829   5.782   0.188  10.496 -0.4045  2.9996 -2.2951
   69SLPC   C14 5830   5.700   0.019  10.685 -0.7466 -0.4164 -0.3666
   69SLPC  H14A 5831   5.697  -0.066  10.620 -0.2927  0.2124 -1.2313
   69SLPC  H14B 5832   5.804   0.048  10.693 -1.2988  1.1760  2.3751
   69SLPC  H14C 5833   5.664  -0.021  10.778 -0.3959 -3.1714 -1.3281
   69SLPC   C15 5834   5.478   0.088  10.619 -0.2365  0.1887 -0.5321
   69SLPC  H15A 5835   5.439   0.061  10.716 -2.2811 -0.7242 -1.5408
   69SLPC  H15B 5836   5.411   0.166  10.586 -0.2105  0.4386  0.0023
   69SLPC  H15C 5837   5.473   0.007  10.548 -1.4671 -1.6011  1.4591
   69SLPC   C12 5838   5.634   0.259  10.707 -0.2570 -0.5972  0.3837
   69SLPC  H12A 5839   5.586   0.343  10.659  1.8110  0.9305  0.8369
   69SLPC  H12B 5840   5.732   0.305  10.708 -0.4245 -0.1693  2.4814
   69SLPC   C11 5841   5.579   0.268  10.858 -0.4619  0.4330  0.0070
   69SLPC  H11A 5842   5.636   0.347  10.911 -0.4474  0.1859  0.3702
   69SLPC  H11B 5843   5.592   0.168  10.906  0.1569  0.7664  0.5451
   69SLPC     P 5844   5.393   0.451  10.866 -0.3328  0.1730 -0.0182
   69SLPC   O13 5845   5.251   0.464  10.910  0.2602  0.1899  0.1779
   69SLPC   O14 5846   5.490   0.535  10.945  0.4297 -0.4416 -0.7656
   69SLPC   O12 5847   5.441   0.301  10.857 -0.0334 -0.2712 -0.4841
   69SLPC   O11 5848   5.408   0.499  10.709  0.3168 -0.0871  0.1472
   69SLPC    C1 5849   5.450   0.635  10.682 -0.2045  0.2830  0.3572
   69SLPC    HA 5850   5.400   0.710  10.747 -0.1236 -0.9136  1.8759
   69SLPC    HB 5851   5.557   0.650  10.710 -0.3976  0.7650  0.8686
   69SLPC    C2 5852   5.438   0.669  10.534  0.3425 -0.5959  0.6262
   69SLPC    HS 5853   5.464   0.776  10.519  1.3895 -0.8659  0.4073
   69SLPC   O21 5854   5.295   0.641  10.504 -0.1867 -0.2581  0.5807
   69SLPC   C21 5855   5.208   0.738  10.531 -0.6436 -0.8794 -0.0023
   69SLPC   O22 5856   5.240   0.850  10.575 -0.3516 -0.0188 -0.5484
   69SLPC   C22 5857   5.069   0.692  10.512  0.6784 -0.3771 -0.3736
   69SLPC   H2R 5858   5.045   0.640  10.607 -0.2056 -0.7363 -0.7798
   69SLPC   H2S 5859   4.992   0.772  10.503 -0.4198 -1.2596  0.7063
   69SLPC    C3 5860   5.512   0.572  10.431  0.3808 -0.2373  0.3403
   69SLPC    HX 5861   5.489   0.468  10.464  0.6172 -1.0393 -1.8327
   69SLPC    HY 5862   5.616   0.605  10.452 -0.0037  0.4956  1.1281
   69SLPC   O31 5863   5.481   0.595  10.294  0.2379  0.0080  0.0816
   69SLPC   C31 5864   5.376   0.530  10.238  0.6978 -0.4860  0.6028
   69SLPC   O32 5865   5.318   0.437  10.287 -0.0546 -0.0536  0.7507
   69SLPC   C32 5866   5.362   0.588  10.094  0.0662 -0.0271  0.1001
   69SLPC   H2X 5867   5.300   0.679  10.113  0.6848 -0.0371  2.4604
   69SLPC   H2Y 5868   5.292   0.520  10.041 -0.2007  0.4217 -0.1354
   69SLPC   C23 5869   5.044   0.595  10.390  0.1065 -0.3233  0.3921
   69SLPC   H3R 5870   5.045   0.489  10.421  0.0613 -1.0194 -1.8061
   69SLPC   H3S 5871   5.122   0.611  10.312 -1.0317  2.2204 -0.3234
   69SLPC   C24 5872   4.902   0.631  10.330 -0.2496 -0.6880 -0.3950
   69SLPC   H4R 5873   4.896   0.740  10.307 -2.9098 -0.3771  1.4072
   69SLPC   H4S 5874   4.823   0.603  10.402  0.2711 -0.9549  0.0791
   69SLPC   C25 5875   4.882   0.537  10.212  0.2494  0.3430  0.4615
   69SLPC   H5R 5876   4.774   0.533  10.188  1.0544 -2.2867 -3.8967
   69SLPC   H5S 5877   4.909   0.434  10.247 -0.0577 -0.4091 -1.4042
   69SLPC   C26 5878   4.960   0.561  10.081 -0.4302 -0.1916  0.8488
   69SLPC   H6R 5879   5.068   0.569  10.107 -1.0998  1.9975  3.4468
   69SLPC   H6S 5880   4.927   0.650  10.023  1.3490  0.8516  1.3564
   69SLPC   C27 5881   4.943   0.442   9.984 -0.2989 -0.0134  0.8567
   69SLPC   H7R 5882   4.834   0.441   9.960 -0.4548 -1.6206  1.4735
   69SLPC   H7S 5883   4.974   0.355  10.046 -1.0002  0.2689  1.6210
   69SLPC   C28 5884   5.022   0.460   9.855  0.3200  1.4042  0.1836
   69SLPC   H8R 5885   5.122   0.490   9.890 -0.3381  2.7007  1.0123
   69SLPC   H8S 5886   4.973   0.550   9.810 -3.7451 -0.3855  0.5366
   69SLPC   C29 5887   5.012   0.345   9.754 -0.2951 -0.8304  0.0141
   69SLPC   H9R 5888   5.096   0.274   9.755  0.9477  0.6033  0.4475
   69SLPC  C210 5889   4.932   0.329   9.648  0.1624  0.0757 -0.2269
   69SLPC  H10R 5890   4.942   0.231   9.598 -1.0530  0.2825 -0.9408
   69SLPC  C211 5891   4.813   0.419   9.608  0.0233 -0.3461 -0.2052
   69SLPC  H11R 5892   4.840   0.459   9.508  1.5157  0.2362  0.3988
   69SLPC  H11S 5893   4.787   0.490   9.689 -0.5881 -0.2626 -0.4729
   69SLPC  C212 5894   4.696   0.320   9.600  0.3903 -0.7198  0.3969
   69SLPC  H12R 5895   4.679   0.234   9.666 -0.3153 -0.4131  0.6239
   69SLPC  C213 5896   4.610   0.326   9.492 -0.7847 -0.5947 -0.0988
   69SLPC  H13R 5897   4.545   0.238   9.477  1.1708 -1.7882 -2.4588
   69SLPC  C214 5898   4.622   0.418   9.376 -0.4192  0.3191  0.2454
   69SLPC  H14R 5899   4.677   0.511   9.399 -1.1911  1.3663 -1.8739
   69SLPC  H14S 5900   4.526   0.461   9.342  0.3328  1.4869 -0.4743
   69SLPC  C215 5901   4.689   0.373   9.247  0.1742  0.1700  0.6091
   69SLPC  H15R 5902   4.646   0.433   9.165  2.5833 -0.8866 -1.5762
   69SLPC  H15S 5903   4.661   0.272   9.210  0.3444  0.1064  0.6493
   69SLPC  C216 5904   4.839   0.387   9.237  0.5168 -0.0783 -0.2143
   69SLPC  H16R 5905   4.887   0.325   9.316 -3.9517 -0.8618  2.2081
   69SLPC  H16S 5906   4.861   0.496   9.247 -1.2298  0.2099  0.8818
   69SLPC  C217 5907   4.889   0.343   9.095 -0.3735  0.1261  0.1682
   69SLPC  H17R 5908   4.860   0.237   9.082  0.5257 -0.4600  2.4079
   69SLPC  H17S 5909   5.000   0.350   9.102 -0.2216  0.9249 -2.2400
   69SLPC  C218 5910   4.844   0.427   8.977 -0.3661  0.0138 -0.2118
   69SLPC  H18R 5911   4.738   0.456   8.961 -0.2202 -0.2925 -1.9270
   69SLPC  H18S 5912   4.880   0.380   8.883  2.9059 -2.2268  1.9461
   69SLPC  H18T 5913   4.893   0.527   8.982  2.3445 -1.2038 -0.4582
   69SLPC   C33 5914   5.497   0.608  10.011  0.3643  0.1353 -0.4543
   69SLPC   H3X 5915   5.550   0.510  10.019 -0.0200 -0.0846 -0.5927
   69SLPC   H3Y 5916   5.561   0.687  10.056 -0.3758  0.9702 -0.8582
   69SLPC   C34 5917   5.468   0.633   9.863  0.1268 -0.2769 -0.1096
   69SLPC   H4X 5918   5.561   0.674   9.818  1.4782 -1.9988  0.9587
   69SLPC   H4Y 5919   5.395   0.715   9.850  1.3590  1.4486  2.9081
   69SLPC   C35 5920   5.434   0.511   9.786 -0.5274  0.4884  0.2328
   69SLPC   H5X 5921   5.345   0.464   9.835  0.2633  0.0073  1.2606
   69SLPC   H5Y 5922   5.523   0.444   9.789  1.3556  2.7365 -1.5941
   69SLPC   C36 5923   5.405   0.542   9.639  1.0237  0.5067 -0.0924
   69SLPC   H6X 5924   5.437   0.453   9.581 -0.2448 -0.3925  0.5532
   69SLPC   H6Y 5925   5.471   0.627   9.612  1.9507  0.2182  1.1612
   69SLPC   C37 5926   5.264   0.596   9.606 -0.2324  0.0881  0.2483
   69SLPC   H7X 5927   5.233   0.669   9.684 -0.6735 -0.9073  1.0437
   69SLPC   H7Y 5928   5.194   0.509   9.610 -0.6228  0.2894 -1.4327
   69SLPC   C38 5929   5.253   0.673   9.468  1.2343  0.0997 -1.0017
   69SLPC   H8X 5930   5.327   0.755   9.455 -1.8111  3.4295  1.0743
   69SLPC   H8Y 5931   5.153   0.720   9.474  0.4852 -1.1390 -2.6779
   69SLPC   C39 5932   5.249   0.576   9.349 -0.7267  0.3971 -0.2625
   69SLPC   H9X 5933   5.162   0.509   9.365 -0.5515  0.4020  0.7579
   69SLPC   H9Y 5934   5.331   0.502   9.358  0.7372  1.9970  0.0564
   69SLPC  C310 5935   5.261   0.633   9.208  0.3650  0.0360 -0.2325
   69SLPC  H10X 5936   5.334   0.716   9.202 -0.7698  1.0861 -0.0037
   69SLPC  H10Y 5937   5.165   0.687   9.190  0.9648  0.9230 -0.8713
   69SLPC  C311 5938   5.285   0.529   9.106  0.0039  0.0366 -0.6217
   69SLPC  H11X 5939   5.204   0.453   9.104 -0.2479  0.3044 -0.7184
   69SLPC  H11Y 5940   5.376   0.472   9.134  0.1891  1.6334  2.4813
   69SLPC  C312 5941   5.314   0.584   8.966  0.5657 -0.3664  0.1706
   69SLPC  H12X 5942   5.384   0.512   8.917  2.6660 -0.7339  3.3971
   69SLPC  H12Y 5943   5.358   0.686   8.963 -1.9565  0.7736 -2.1833
   69SLPC  C313 5944   5.171   0.593   8.894 -0.0670  0.4459  0.1618
   69SLPC  H13X 5945   5.105   0.668   8.943 -1.4356 -0.0318 -0.8922
   69SLPC  H13Y 5946   5.129   0.491   8.908 -0.1046  0.4463  0.0559
   69SLPC  C314 5947   5.171   0.622   8.746  0.7461 -0.2548  0.1238
   69SLPC  H14X 5948   5.066   0.609   8.711  1.1413 -0.9367 -0.8718
   69SLPC  H14Y 5949   5.223   0.547   8.682 -3.2101 -2.8918 -0.3439
   69SLPC  C315 5950   5.232   0.761   8.716 -0.5099 -0.2367 -0.0695
   69SLPC  H15X 5951   5.340   0.765   8.741 -0.0094  2.3682 -2.1461
   69SLPC  H15Y 5952   5.189   0.839   8.783  0.6293 -0.7984  1.3700
   69SLPC  C316 5953   5.224   0.812   8.570  0.5458 -0.2072 -0.3867
   69SLPC  H16X 5954   5.118   0.817   8.538  0.6144  2.7793 -0.3790
   69SLPC  H16Y 5955   5.283   0.733   8.518  2.2996 -0.1691  1.4300
   69SLPC  C317 5956   5.280   0.948   8.536  0.5826 -0.6622  0.3528
   69SLPC  H17X 5957   5.305   0.951   8.428  1.0333 -4.0106  0.2762
   69SLPC  H17Y 5958   5.382   0.962   8.577  0.5891  2.3711 -0.4600
   69SLPC  C318 5959   5.197   1.073   8.578  0.0520 -0.1919  0.0791
   69SLPC  H18X 5960   5.104   1.090   8.519  0.6079  1.5326 -0.3635
   69SLPC  H18Y 5961   5.260   1.162   8.559  2.1418 -1.0782  2.2259
   69SLPC  H18Z 5962   5.185   1.071   8.689  2.8786 -0.0618  0.4565
   70SLPC     N 5963   6.157   6.488  10.946  0.5905 -0.2179  0.1613
   70SLPC   C13 5964   6.253   6.594  10.984  0.2073 -0.2807 -0.2113
   70SLPC  H13A 5965   6.209   6.690  11.008  2.0708  0.5626  0.0147
   70SLPC  H13B 5966   6.304   6.562  11.073 -0.3779 -1.2533 -0.2171
   70SLPC  H13C 5967   6.317   6.615  10.900 -1.1804 -0.5383 -1.3734
   70SLPC   C14 5968   6.062   6.463  11.060  0.5224  0.0169  1.2340
   70SLPC  H14A 5969   6.106   6.448  11.158  0.0651 -2.6257  1.1071
   70SLPC  H14B 5970   5.992   6.545  11.072 -0.4509 -0.3753 -1.2887
   70SLPC  H14C 5971   6.007   6.374  11.036  0.9683  0.1318 -0.2908
   70SLPC   C15 5972   6.239   6.361  10.926 -0.2856  0.1813  0.3273
   70SLPC  H15A 5973   6.297   6.331  11.012 -0.7852  0.1420  0.6563
   70SLPC  H15B 5974   6.176   6.278  10.898  0.4403  0.3376 -1.9204
   70SLPC  H15C 5975   6.308   6.376  10.845 -0.4834  0.6002  0.2315
   70SLPC   C12 5976   6.085   6.531  10.822 -0.1689 -0.3548 -0.0915
   70SLPC  H12A 5977   6.027   6.620  10.841  0.5623  0.4091 -1.2328
   70SLPC  H12B 5978   6.010   6.459  10.794 -1.9672  0.4811  2.2859
   70SLPC   C11 5979   6.178   6.569  10.703  0.9102  0.3411  0.0024
   70SLPC  H11A 5980   6.130   6.532  10.610 -1.5821  1.4822  0.7564
   70SLPC  H11B 5981   6.275   6.514  10.706  1.8872  1.9336 -1.1310
   70SLPC     P 5982   6.101   6.818  10.657 -0.2970  0.0868 -0.3560
   70SLPC   O13 5983   5.995   6.830  10.764  0.6448  0.2547  0.0759
   70SLPC   O14 5984   6.177   6.941  10.628 -0.1270  0.4828 -0.0918
   70SLPC   O12 5985   6.208   6.707  10.699  0.1611  0.2239 -0.2712
   70SLPC   O11 5986   6.047   6.764  10.524  0.2905 -0.5778 -0.1116
   70SLPC    C1 5987   6.132   6.740  10.408  0.6126 -0.2461 -0.3793
   70SLPC    HA 5988   6.239   6.768  10.419  0.4417  0.1997  0.2678
   70SLPC    HB 5989   6.131   6.631  10.388 -1.6076 -0.0069 -1.9541
   70SLPC    C2 5990   6.078   6.793  10.275 -0.0290  0.0264  0.0931
   70SLPC    HS 5991   5.990   6.734  10.240 -0.8485  2.3608 -2.0361
   70SLPC   O21 5992   6.176   6.782  10.172 -0.1431  0.7460 -0.0938
   70SLPC   C21 5993   6.138   6.748  10.045 -0.4106 -1.1993 -0.5166
   70SLPC   O22 5994   6.026   6.724  10.012  0.7185  0.1979 -0.3482
   70SLPC   C22 5995   6.260   6.756   9.968 -0.4233 -0.4275 -0.6143
   70SLPC   H2R 5996   6.292   6.863   9.966  1.5398 -0.9837 -1.3569
   70SLPC   H2S 5997   6.333   6.689  10.018 -0.5031  1.0449  1.6406
   70SLPC    C3 5998   6.033   6.940  10.289 -0.9617  0.1612 -0.3660
   70SLPC    HX 5999   6.129   6.996  10.284  0.9868 -2.4880  3.0728
   70SLPC    HY 6000   5.988   6.966  10.388 -1.2126 -0.9914 -0.1582
   70SLPC   O31 6001   5.943   6.985  10.183  0.3009  0.5773  0.4467
   70SLPC   C31 6002   5.884   7.102  10.202 -0.0121 -0.0654  0.1278
   70SLPC   O32 6003   5.899   7.165  10.305 -0.2622 -0.1939 -0.8249
   70SLPC   C32 6004   5.796   7.137  10.081  0.7933 -0.2990  0.4485
   70SLPC   H2X 6005   5.728   7.219  10.112  0.0889 -0.6146 -0.2419
   70SLPC   H2Y 6006   5.737   7.052  10.041  2.8826 -1.5002 -0.2394
   70SLPC   C23 6007   6.246   6.710   9.815 -0.1907  0.3649 -1.1345
   70SLPC   H3R 6008   6.171   6.774   9.764  0.2439  2.2783  0.4841
   70SLPC   H3S 6009   6.201   6.609   9.823  0.1246  0.3449  1.0429
   70SLPC   C24 6010   6.376   6.703   9.740  0.5872 -0.1042  0.1459
   70SLPC   H4R 6011   6.446   6.631   9.787  0.8892 -0.1665 -0.3884
   70SLPC   H4S 6012   6.427   6.801   9.744  0.4312 -0.0529  0.9254
   70SLPC   C25 6013   6.348   6.671   9.597  0.0869 -0.3020  0.3730
   70SLPC   H5R 6014   6.271   6.747   9.568 -1.4604 -1.4377  1.3324
   70SLPC   H5S 6015   6.295   6.574   9.590 -0.0889 -0.1830 -0.0326
   70SLPC   C26 6016   6.471   6.665   9.509  0.1026 -0.5004 -0.2598
   70SLPC   H6R 6017   6.540   6.586   9.545  1.1744 -0.0030 -1.1488
   70SLPC   H6S 6018   6.516   6.765   9.490  0.8691 -0.2441  2.5018
   70SLPC   C27 6019   6.433   6.586   9.374 -0.5934 -0.0149 -1.1831
   70SLPC   H7R 6020   6.402   6.481   9.391 -0.3641  0.4665  3.3769
   70SLPC   H7S 6021   6.519   6.582   9.303 -0.2190 -3.1759 -0.6922
   70SLPC   C28 6022   6.322   6.663   9.295  0.2280 -0.7068 -0.3703
   70SLPC   H8R 6023   6.237   6.688   9.362  0.3989 -1.6658  0.2266
   70SLPC   H8S 6024   6.280   6.598   9.215 -0.2666  1.1347 -1.6525
   70SLPC   C29 6025   6.370   6.800   9.240  0.0109  0.7802  0.7621
   70SLPC   H9R 6026   6.401   6.871   9.318 -0.3564  1.2607  0.4755
   70SLPC  C210 6027   6.371   6.845   9.113  0.1221  0.2013 -1.0724
   70SLPC  H10R 6028   6.413   6.946   9.110 -1.3654  0.9501  0.9148
   70SLPC  C211 6029   6.325   6.775   8.990 -0.2190  1.4119  0.4505
   70SLPC  H11R 6030   6.293   6.844   8.908  4.4556 -0.8734 -3.9046
   70SLPC  H11S 6031   6.230   6.726   9.016  0.0623  0.3144 -0.5042
   70SLPC  C212 6032   6.431   6.686   8.930  0.0248  0.2121  0.8856
   70SLPC  H12R 6033   6.402   6.580   8.941 -1.1047  0.5843  1.6268
   70SLPC  C213 6034   6.525   6.718   8.841 -0.3369  0.1272  0.2274
   70SLPC  H13R 6035   6.596   6.639   8.817 -0.2608  0.1128  0.4960
   70SLPC  C214 6036   6.562   6.851   8.785 -0.2386  0.1344  0.6925
   70SLPC  H14R 6037   6.667   6.853   8.751 -0.2770 -0.0130  0.5592
   70SLPC  H14S 6038   6.537   6.928   8.860 -1.8936 -1.6332  2.0692
   70SLPC  C215 6039   6.483   6.871   8.654 -0.0362 -0.2679 -0.3426
   70SLPC  H15R 6040   6.377   6.839   8.665  0.6352 -2.0296  1.5291
   70SLPC  H15S 6041   6.536   6.816   8.574 -2.7859 -2.3803 -0.8601
   70SLPC  C216 6042   6.481   7.017   8.603  0.7366 -0.0050 -1.3849
   70SLPC  H16R 6043   6.438   7.004   8.502 -0.0903 -1.5191 -0.8722
   70SLPC  H16S 6044   6.585   7.057   8.606  0.6656  0.1525 -0.3189
   70SLPC  C217 6045   6.395   7.116   8.686  0.3715 -0.0800 -0.0610
   70SLPC  H17R 6046   6.423   7.126   8.793 -2.0324 -2.0972  0.8550
   70SLPC  H17S 6047   6.291   7.077   8.688  0.5071 -0.6344 -1.8843
   70SLPC  C218 6048   6.398   7.259   8.621 -0.2075 -0.1297  0.0008
   70SLPC  H18R 6049   6.349   7.329   8.693  1.5524  0.3177  0.8247
   70SLPC  H18S 6050   6.352   7.262   8.520  1.5033 -0.6683 -0.8302
   70SLPC  H18T 6051   6.497   7.307   8.608 -0.2135  0.6525  2.3885
   70SLPC   C33 6052   5.879   7.195   9.962 -0.6325 -0.1083 -0.5987
   70SLPC   H3X 6053   5.957   7.126   9.926 -0.8053 -1.0423  0.7446
   70SLPC   H3Y 6054   5.929   7.286  10.001 -1.8704  0.3324  0.0065
   70SLPC   C34 6055   5.788   7.244   9.848  0.1374  0.4789 -0.3094
   70SLPC   H4X 6056   5.776   7.354   9.859 -0.0111  0.3944  0.4398
   70SLPC   H4Y 6057   5.695   7.184   9.842  1.3520 -1.4218 -0.9758
   70SLPC   C35 6058   5.838   7.218   9.701  0.8862  0.0347  0.3684
   70SLPC   H5X 6059   5.868   7.111   9.702  0.8379  0.0217  1.1844
   70SLPC   H5Y 6060   5.926   7.285   9.698  0.1032  1.0755  0.1063
   70SLPC   C36 6061   5.744   7.261   9.598  0.5442 -0.6971  0.2594
   70SLPC   H6X 6062   5.738   7.372   9.608  1.7379 -0.6868  1.0441
   70SLPC   H6Y 6063   5.651   7.205   9.618 -1.1567  1.8193 -0.1221
   70SLPC   C37 6064   5.787   7.239   9.452  0.6655  0.4461 -0.2132
   70SLPC   H7X 6065   5.813   7.132   9.434  1.4453  0.7652 -1.0501
   70SLPC   H7Y 6066   5.888   7.283   9.436  1.7247 -2.4226 -2.1253
   70SLPC   C38 6067   5.696   7.287   9.343  0.6072  0.5569 -0.1904
   70SLPC   H8X 6068   5.590   7.274   9.376  0.2008  2.7148 -0.4736
   70SLPC   H8Y 6069   5.707   7.230   9.249  3.7966  1.9906 -0.8107
   70SLPC   C39 6070   5.723   7.435   9.297  0.5574 -0.6450 -0.1583
   70SLPC   H9X 6071   5.830   7.457   9.314  0.9591 -2.4880 -0.0349
   70SLPC   H9Y 6072   5.654   7.502   9.354 -1.6753 -0.6961 -2.5878
   70SLPC  C310 6073   5.680   7.476   9.156  0.1129 -0.3124  0.5541
   70SLPC  H10X 6074   5.570   7.471   9.141 -0.0157  0.5366  1.1611
   70SLPC  H10Y 6075   5.727   7.398   9.092 -0.9190 -1.6130  1.3298
   70SLPC  C311 6076   5.711   7.609   9.120 -0.4401 -0.4394 -0.7510
   70SLPC  H11X 6077   5.820   7.620   9.138 -0.7196  0.3746  0.6174
   70SLPC  H11Y 6078   5.656   7.671   9.194  0.4622  0.8231 -1.1052
   70SLPC  C312 6079   5.672   7.652   8.981 -0.0690  0.4319 -0.0363
   70SLPC  H12X 6080   5.561   7.645   8.976 -0.0802 -0.6184  1.0231
   70SLPC  H12Y 6081   5.714   7.575   8.913 -0.0585 -1.5674  2.0751
   70SLPC  C313 6082   5.719   7.793   8.934 -0.9094  0.3899 -0.1718
   70SLPC  H13X 6083   5.828   7.791   8.916 -0.9469 -1.3035 -0.4502
   70SLPC  H13Y 6084   5.696   7.865   9.015 -0.1372  0.1785  0.2433
   70SLPC  C314 6085   5.664   7.820   8.796  0.3591 -0.1827  0.5352
   70SLPC  H14X 6086   5.553   7.828   8.786  0.1708 -1.7680  1.1683
   70SLPC  H14Y 6087   5.694   7.731   8.738  0.3001 -0.2110  0.5471
   70SLPC  C315 6088   5.739   7.944   8.738 -0.3320 -0.3842  0.3305
   70SLPC  H15X 6089   5.845   7.933   8.710 -1.1395 -2.3682 -2.4088
   70SLPC  H15Y 6090   5.721   8.025   8.812 -1.5513  0.3913 -0.7642
   70SLPC  C316 6091   5.674   7.981   8.598 -0.6083 -0.0901 -0.1946
   70SLPC  H16X 6092   5.571   7.948   8.625  0.5830 -3.1084  1.0233
   70SLPC  H16Y 6093   5.709   7.903   8.528 -0.9763  0.5290 -1.0905
   70SLPC  C317 6094   5.698   8.125   8.558  0.2816  0.4722  0.0654
   70SLPC  H17X 6095   5.807   8.147   8.566  0.1936  1.1446 -0.4712
   70SLPC  H17Y 6096   5.638   8.193   8.623  1.4634  3.1514 -1.4412
   70SLPC  C318 6097   5.646   8.146   8.415 -0.7757  0.9841  0.4971
   70SLPC  H18X 6098   5.704   8.088   8.340 -1.1842 -0.5503  1.3329
   70SLPC  H18Y 6099   5.655   8.256   8.399  0.1914  0.8166 -0.2349
   70SLPC  H18Z 6100   5.541   8.110   8.403 -0.3930  0.5558 -2.4671
   71SLPC     N 6101   5.365   2.139  11.015 -0.1071  0.0210  0.3222
   71SLPC   C13 6102   5.412   2.055  11.131  0.4213 -0.0266 -0.4447
   71SLPC  H13A 6103   5.354   1.965  11.142 -0.5894  0.9060  3.2930
   71SLPC  H13B 6104   5.518   2.036  11.131  1.1250  3.1165  1.7493
   71SLPC  H13C 6105   5.389   2.103  11.225  0.1885 -0.4788 -0.2669
   71SLPC   C14 6106   5.213   2.135  11.017  0.0596 -0.7665 -0.1361
   71SLPC  H14A 6107   5.172   2.036  11.006 -2.3446  0.1331  0.2044
   71SLPC  H14B 6108   5.167   2.189  11.099 -0.1981 -0.1442 -0.6830
   71SLPC  H14C 6109   5.165   2.180  10.932 -0.6739 -0.8415  0.2289
   71SLPC   C15 6110   5.414   2.083  10.883 -0.3930 -0.1051  0.4351
   71SLPC  H15A 6111   5.516   2.106  10.858 -0.7610 -1.4081 -2.8901
   71SLPC  H15B 6112   5.400   1.976  10.896 -1.0936  0.0736  1.2319
   71SLPC  H15C 6113   5.349   2.105  10.799  1.1021 -1.4090 -1.1621
   71SLPC   C12 6114   5.411   2.284  11.036  0.2384  0.3220 -0.6539
   71SLPC  H12A 6115   5.365   2.320  11.126  0.1233  1.0899 -1.0079
   71SLPC  H12B 6116   5.388   2.348  10.952 -0.6307  0.6376 -0.1865
   71SLPC   C11 6117   5.565   2.301  11.060 -0.7428 -1.3391 -0.3254
   71SLPC  H11A 6118   5.604   2.234  11.139  2.1456  0.7631  0.1915
   71SLPC  H11B 6119   5.589   2.407  11.084 -0.9631 -1.3770  0.0605
   71SLPC     P 6120   5.663   2.383  10.848 -0.8269  0.1160  0.0307
   71SLPC   O13 6121   5.538   2.410  10.773 -0.5673 -0.1151 -0.5643
   71SLPC   O14 6122   5.723   2.503  10.909 -1.0144 -0.2333 -0.7825
   71SLPC   O12 6123   5.641   2.262  10.951  0.1593 -0.2463  0.0730
   71SLPC   O11 6124   5.759   2.318  10.746 -0.2035  0.2530  0.6893
   71SLPC    C1 6125   5.892   2.379  10.728 -0.6139 -0.4452 -0.2009
   71SLPC    HA 6126   5.888   2.489  10.712 -1.4238  0.1520  3.3190
   71SLPC    HB 6127   5.957   2.369  10.818 -0.7060  0.2036 -0.0577
   71SLPC    C2 6128   5.951   2.323  10.597  0.2990 -0.4551 -0.4069
   71SLPC    HS 6129   6.034   2.390  10.565  2.0661 -2.5677 -0.4864
   71SLPC   O21 6130   5.855   2.314  10.493 -0.2134 -0.2603 -0.7308
   71SLPC   C21 6131   5.828   2.429  10.440 -0.5706 -0.1930 -0.3961
   71SLPC   O22 6132   5.880   2.539  10.466 -0.2020 -0.3542  0.2345
   71SLPC   C22 6133   5.711   2.409  10.344 -0.4471  0.2932 -0.0104
   71SLPC   H2R 6134   5.637   2.351  10.403  1.4050 -1.0968  1.0966
   71SLPC   H2S 6135   5.681   2.510  10.311  1.7830  0.1395 -2.9125
   71SLPC    C3 6136   6.006   2.181  10.622  0.0899 -0.3374  0.3959
   71SLPC    HX 6137   5.934   2.115  10.674 -0.9777  0.7093  0.2816
   71SLPC    HY 6138   6.083   2.198  10.701  1.5305 -1.7585 -0.6321
   71SLPC   O31 6139   6.075   2.132  10.506 -0.0203 -0.3338  0.3235
   71SLPC   C31 6140   6.015   2.047  10.442  0.5701  0.5102  0.3319
   71SLPC   O32 6141   5.900   2.003  10.463  0.2742  0.1703  0.0233
   71SLPC   C32 6142   6.093   2.000  10.324  0.0046 -0.6266  0.3163
   71SLPC   H2X 6143   6.074   1.892  10.308  2.4093 -1.0530 -0.0323
   71SLPC   H2Y 6144   6.202   2.020  10.329 -0.2694  0.7979  2.6042
   71SLPC   C23 6145   5.734   2.327  10.219 -0.2413  0.5255  0.3906
   71SLPC   H3R 6146   5.641   2.269  10.198 -1.4950  2.5824 -0.1067
   71SLPC   H3S 6147   5.826   2.266  10.225 -1.0637 -0.9206 -0.8585
   71SLPC   C24 6148   5.746   2.419  10.100 -0.0023  0.9311 -0.6306
   71SLPC   H4R 6149   5.847   2.463  10.090  0.2846  0.2262 -0.9052
   71SLPC   H4S 6150   5.676   2.503  10.120  0.7310  1.3418  0.2597
   71SLPC   C25 6151   5.709   2.345   9.971  0.1863 -0.7213  0.2005
   71SLPC   H5R 6152   5.602   2.320   9.986 -0.1420  0.7038  0.3537
   71SLPC   H5S 6153   5.773   2.255   9.957 -0.7838 -1.2330 -1.2649
   71SLPC   C26 6154   5.729   2.427   9.849 -0.6155  0.6868  0.4513
   71SLPC   H6R 6155   5.829   2.408   9.805 -1.1296  1.6547 -1.1921
   71SLPC   H6S 6156   5.730   2.535   9.874 -2.7697  1.2042 -1.3966
   71SLPC   C27 6157   5.619   2.413   9.738  0.3567 -0.6031  0.8358
   71SLPC   H7R 6158   5.527   2.462   9.775  0.3027 -0.1427  0.1134
   71SLPC   H7S 6159   5.601   2.309   9.704  0.3521 -0.3543  0.0582
   71SLPC   C28 6160   5.648   2.501   9.614  0.2088 -0.3682  0.2146
   71SLPC   H8R 6161   5.668   2.607   9.638 -2.0719  0.7574 -2.2650
   71SLPC   H8S 6162   5.561   2.509   9.545  1.5817  4.4448 -1.3484
   71SLPC   C29 6163   5.764   2.446   9.534 -0.0220  0.0905  0.8593
   71SLPC   H9R 6164   5.852   2.413   9.591 -1.2139 -0.9326  2.1872
   71SLPC  C210 6165   5.765   2.419   9.399  0.1432 -0.7704 -0.1565
   71SLPC  H10R 6166   5.853   2.370   9.354 -1.1703 -1.8263 -1.6853
   71SLPC  C211 6167   5.652   2.437   9.299  0.0300 -0.0572 -0.5030
   71SLPC  H11R 6168   5.559   2.382   9.325 -0.7404  0.7937 -1.3809
   71SLPC  H11S 6169   5.698   2.380   9.215 -1.1327 -2.2678  0.2931
   71SLPC  C212 6170   5.608   2.577   9.253 -0.0997 -0.4410  0.3386
   71SLPC  H12R 6171   5.603   2.653   9.333 -1.4718 -1.8111  1.6198
   71SLPC  C213 6172   5.571   2.606   9.123  0.1849 -0.4998 -0.0329
   71SLPC  H13R 6173   5.509   2.697   9.115 -1.5141 -1.5493  0.7529
   71SLPC  C214 6174   5.557   2.520   9.007  0.2618  0.0359  0.0911
   71SLPC  H14R 6175   5.645   2.455   8.991  1.2224  1.5518 -1.0027
   71SLPC  H14S 6176   5.537   2.575   8.912 -1.8707 -1.4493 -0.4082
   71SLPC  C215 6177   5.434   2.427   9.027  0.0505  0.1003 -0.1280
   71SLPC  H15R 6178   5.437   2.368   9.121  0.9189  1.1989  0.5707
   71SLPC  H15S 6179   5.429   2.352   8.945  1.5803  0.8162 -0.9205
   71SLPC  C216 6180   5.293   2.500   9.040 -0.4724 -0.7175 -0.0286
   71SLPC  H16R 6181   5.284   2.560   8.948  0.3054  0.2375  0.4994
   71SLPC  H16S 6182   5.287   2.573   9.124  2.4587 -1.4261  0.9353
   71SLPC  C217 6183   5.166   2.403   9.045  0.1367 -0.2630  0.1473
   71SLPC  H17R 6184   5.175   2.322   9.120 -1.4545 -1.5001 -0.9577
   71SLPC  H17S 6185   5.168   2.350   8.948  1.9518 -1.1124  0.5936
   71SLPC  C218 6186   5.032   2.461   9.076 -0.7249 -1.2058  0.1030
   71SLPC  H18R 6187   5.016   2.553   9.016  0.9101 -0.9454  0.0258
   71SLPC  H18S 6188   5.025   2.497   9.181  1.3708  0.6704 -0.3495
   71SLPC  H18T 6189   4.955   2.382   9.061 -0.8316 -0.8767 -1.2106
   71SLPC   C33 6190   6.042   2.063  10.192  0.6046  0.0777 -0.3929
   71SLPC   H3X 6191   6.027   2.172  10.206  1.0074 -0.0427  1.2411
   71SLPC   H3Y 6192   5.947   2.009  10.174 -0.4287  1.5584  0.3945
   71SLPC   C34 6193   6.133   2.039  10.070 -0.2038 -0.2021 -1.1644
   71SLPC   H4X 6194   6.102   1.935  10.046 -1.9628  0.2644 -1.0115
   71SLPC   H4Y 6195   6.238   2.040  10.108 -1.2640 -1.0882  2.1733
   71SLPC   C35 6196   6.098   2.126   9.948  0.1863  0.1742  0.1622
   71SLPC   H5X 6197   6.145   2.226   9.959 -1.1183  0.7642  0.5073
   71SLPC   H5Y 6198   5.992   2.153   9.930 -0.2711 -0.4069  1.7659
   71SLPC   C36 6199   6.143   2.071   9.809 -0.3212 -0.5799 -0.1990
   71SLPC   H6X 6200   6.096   1.971   9.806 -0.8536 -0.3388 -0.1127
   71SLPC   H6Y 6201   6.253   2.058   9.804 -0.1497  0.1382  1.0425
   71SLPC   C37 6202   6.100   2.157   9.686 -0.0688  0.8574  0.2600
   71SLPC   H7X 6203   6.135   2.263   9.690 -1.4421  1.3238  0.7113
   71SLPC   H7Y 6204   5.991   2.157   9.668 -0.2961  0.5374  1.5087
   71SLPC   C38 6205   6.161   2.097   9.554 -0.4674 -0.2465 -0.4407
   71SLPC   H8X 6206   6.118   1.995   9.544 -0.3850 -0.3038 -0.2054
   71SLPC   H8Y 6207   6.267   2.074   9.576 -0.5528 -0.0521  0.2174
   71SLPC   C39 6208   6.136   2.177   9.430 -0.0909  0.2064  0.0239
   71SLPC   H9X 6209   6.215   2.256   9.427  0.3793 -0.2801 -2.1979
   71SLPC   H9Y 6210   6.036   2.225   9.434 -0.0046  0.4591 -0.7272
   71SLPC  C310 6211   6.152   2.098   9.303 -0.0135  0.1739  0.3090
   71SLPC  H10X 6212   6.086   2.009   9.312  0.2583 -0.2675 -1.7354
   71SLPC  H10Y 6213   6.257   2.062   9.295  0.8400  2.3416  0.9328
   71SLPC  C311 6214   6.095   2.164   9.176  0.3118  0.3876  0.2672
   71SLPC  H11X 6215   5.999   2.214   9.198  0.2220 -0.5593  2.2193
   71SLPC  H11Y 6216   6.087   2.076   9.108 -1.9471  0.0032  0.9647
   71SLPC  C312 6217   6.189   2.264   9.113  0.0001  0.7759 -0.0875
   71SLPC  H12X 6218   6.289   2.218   9.127 -1.5026 -3.5337 -1.9761
   71SLPC  H12Y 6219   6.177   2.359   9.170 -1.0472 -0.2660  1.5236
   71SLPC  C313 6220   6.155   2.275   8.969 -0.0696  0.2415  0.4400
   71SLPC  H13X 6221   6.049   2.307   8.961  0.4640  2.3337  1.0042
   71SLPC  H13Y 6222   6.166   2.178   8.917 -0.6540 -0.2142  1.1482
   71SLPC  C314 6223   6.245   2.380   8.900  0.3284 -0.0842 -0.3713
   71SLPC  H14X 6224   6.351   2.347   8.901  0.2990 -0.7922 -4.4648
   71SLPC  H14Y 6225   6.229   2.473   8.958 -1.0342  0.7270 -1.9712
   71SLPC  C315 6226   6.208   2.411   8.756  0.3019 -0.1014  0.1116
   71SLPC  H15X 6227   6.147   2.504   8.757  0.0922 -0.2305  0.9363
   71SLPC  H15Y 6228   6.153   2.327   8.709  0.3113  1.0049 -2.0053
   71SLPC  C316 6229   6.337   2.444   8.677  0.3212  0.0044 -0.1245
   71SLPC  H16X 6230   6.396   2.350   8.663 -1.9926 -1.3959 -1.1357
   71SLPC  H16Y 6231   6.396   2.530   8.716 -1.4593  0.2798  2.1506
   71SLPC  C317 6232   6.308   2.501   8.532 -0.2181 -0.4475 -0.0168
   71SLPC  H17X 6233   6.398   2.515   8.469 -0.5139  3.1791  0.1833
   71SLPC  H17Y 6234   6.280   2.605   8.560 -0.2349 -0.5013  0.1703
   71SLPC  C318 6235   6.196   2.432   8.446 -1.0660  0.1331  0.8741
   71SLPC  H18X 6236   6.177   2.484   8.349 -0.3340  1.3872  1.3854
   71SLPC  H18Y 6237   6.096   2.427   8.494 -1.7420  0.5963 -0.4422
   71SLPC  H18Z 6238   6.227   2.330   8.413  3.4121  1.6397 -0.3110
   72SLPC     N 6239   0.966   2.163  11.029 -0.6122  0.2068 -0.2769
   72SLPC   C13 6240   1.088   2.094  11.067  0.7601  0.0626  0.4847
   72SLPC  H13A 6241   1.173   2.160  11.057  1.3657 -0.6350  0.9493
   72SLPC  H13B 6242   1.087   2.057  11.168  0.3149  0.2676  0.5600
   72SLPC  H13C 6243   1.115   2.024  10.990 -0.9637  1.5513 -1.5998
   72SLPC   C14 6244   0.981   2.305  11.074  0.6386 -0.1340 -1.0205
   72SLPC  H14A 6245   0.999   2.296  11.180 -1.0798  3.9299 -0.1859
   72SLPC  H14B 6246   1.068   2.347  11.027  0.6127  1.6798  0.4660
   72SLPC  H14C 6247   0.892   2.364  11.059  0.2319 -0.4664 -0.0114
   72SLPC   C15 6248   0.850   2.097  11.100  0.1058 -0.6367  0.5739
   72SLPC  H15A 6249   0.757   2.132  11.059  1.4734  0.7852 -1.5432
   72SLPC  H15B 6250   0.870   1.991  11.089  1.0369 -0.3936 -0.2445
   72SLPC  H15C 6251   0.852   2.120  11.205  0.1307  1.7136  0.0968
   72SLPC   C12 6252   0.939   2.168  10.883 -0.2374 -0.6992 -0.5232
   72SLPC  H12A 6253   0.868   2.249  10.873  1.1853  0.7125  0.3285
   72SLPC  H12B 6254   0.897   2.074  10.850 -0.8269 -1.2231  1.5627
   72SLPC   C11 6255   1.057   2.198  10.786 -0.3065  0.3191  0.0739
   72SLPC  H11A 6256   1.012   2.195  10.685 -1.2648  1.7423  0.4359
   72SLPC  H11B 6257   1.140   2.124  10.798  1.0883  1.8389  0.2115
   72SLPC     P 6258   1.261   2.370  10.759  0.5632 -0.2737  0.0246
   72SLPC   O13 6259   1.300   2.511  10.798  0.2080 -0.0292 -0.1499
   72SLPC   O14 6260   1.349   2.263  10.811  0.2423 -0.1172 -0.1446
   72SLPC   O12 6261   1.110   2.331  10.814 -1.1400  0.0905  0.0781
   72SLPC   O11 6262   1.229   2.352  10.608  0.8591 -0.3946 -0.1666
   72SLPC    C1 6263   1.127   2.435  10.548  0.2057  0.6693  0.7376
   72SLPC    HA 6264   1.054   2.366  10.502  0.5243  0.6622  0.2338
   72SLPC    HB 6265   1.069   2.495  10.622 -2.7253  0.7404 -1.4230
   72SLPC    C2 6266   1.198   2.519  10.431  0.2988  0.9289 -0.7836
   72SLPC    HS 6267   1.127   2.596  10.394  1.8698  2.7817 -0.0731
   72SLPC   O21 6268   1.256   2.436  10.329 -0.3075  0.4763  0.0715
   72SLPC   C21 6269   1.172   2.394  10.225 -0.2940 -0.0670  0.2936
   72SLPC   O22 6270   1.050   2.413  10.226  0.0288  0.0700 -0.3786
   72SLPC   C22 6271   1.262   2.339  10.118 -0.2567  0.6384  0.2734
   72SLPC   H2R 6272   1.338   2.270  10.162  0.2450  0.5616 -0.6727
   72SLPC   H2S 6273   1.211   2.273  10.044  0.9237  0.1030 -0.0894
   72SLPC    C3 6274   1.313   2.598  10.492  0.0622  0.1422  0.1946
   72SLPC    HX 6275   1.389   2.523  10.523  1.7492  0.6697 -2.4192
   72SLPC    HY 6276   1.282   2.650  10.585  1.3793 -0.7940  1.1985
   72SLPC   O31 6277   1.363   2.693  10.405 -0.4323 -0.1772 -0.5483
   72SLPC   C31 6278   1.484   2.664  10.348  0.8599 -0.2233 -0.1790
   72SLPC   O32 6279   1.555   2.568  10.359 -0.8838 -0.1564  0.4030
   72SLPC   C32 6280   1.522   2.777  10.253 -0.4401 -0.2181  0.0774
   72SLPC   H2X 6281   1.629   2.766  10.224 -0.9835 -0.2239 -2.1388
   72SLPC   H2Y 6282   1.511   2.868  10.316 -1.1685 -1.2844  1.5331
   72SLPC   C23 6283   1.345   2.446  10.037  0.2831 -0.0022 -0.9401
   72SLPC   H3R 6284   1.430   2.390   9.992  0.9900  0.3916 -0.1441
   72SLPC   H3S 6285   1.396   2.518  10.106 -0.4201 -1.6173  1.3844
   72SLPC   C24 6286   1.261   2.509   9.924  0.1220 -0.1551  0.3358
   72SLPC   H4R 6287   1.242   2.616   9.949  0.5047 -0.1058  0.4228
   72SLPC   H4S 6288   1.165   2.455   9.913  0.6586 -0.7666 -1.7748
   72SLPC   C25 6289   1.326   2.510   9.781 -0.2490 -0.5004  0.0483
   72SLPC   H5R 6290   1.426   2.557   9.788  0.3122 -1.5954 -0.4436
   72SLPC   H5S 6291   1.265   2.574   9.714 -1.1744  0.8487  2.0889
   72SLPC   C26 6292   1.351   2.371   9.718  0.0413 -0.0439 -0.0709
   72SLPC   H6R 6293   1.250   2.334   9.689 -0.1022 -2.0797  2.6865
   72SLPC   H6S 6294   1.398   2.302   9.791 -0.2011  0.0615  0.1845
   72SLPC   C27 6295   1.441   2.387   9.590  0.0485 -0.5041  0.4242
   72SLPC   H7R 6296   1.451   2.284   9.547  0.0970  0.3410 -1.7130
   72SLPC   H7S 6297   1.546   2.415   9.613  0.0029 -1.0621  1.3562
   72SLPC   C28 6298   1.391   2.483   9.482 -0.1755  0.4877  0.1190
   72SLPC   H8R 6299   1.477   2.494   9.413  0.6229  3.1790  1.4167
   72SLPC   H8S 6300   1.371   2.582   9.527 -0.9426 -0.5879  2.3254
   72SLPC   C29 6301   1.263   2.445   9.412 -0.1692 -0.0342  0.0321
   72SLPC   H9R 6302   1.182   2.397   9.469 -1.2320 -1.1318 -2.2269
   72SLPC  C210 6303   1.236   2.448   9.281  0.5741  0.2684  0.0351
   72SLPC  H10R 6304   1.138   2.407   9.251  1.7419 -3.1767  0.5292
   72SLPC  C211 6305   1.325   2.502   9.178  0.4097  0.2459  0.2328
   72SLPC  H11R 6306   1.376   2.599   9.197  2.3470 -0.3294 -1.6158
   72SLPC  H11S 6307   1.266   2.523   9.087  1.5137 -1.4494 -0.9395
   72SLPC  C212 6308   1.421   2.400   9.139 -0.3002 -0.3415 -0.1724
   72SLPC  H12R 6309   1.438   2.312   9.203  0.1126  0.8996  1.4929
   72SLPC  C213 6310   1.489   2.409   9.021 -0.0335  0.0178 -0.7180
   72SLPC  H13R 6311   1.574   2.341   9.007  0.2361  0.2436 -0.2133
   72SLPC  C214 6312   1.482   2.519   8.919 -0.0407  0.6007 -0.2183
   72SLPC  H14R 6313   1.581   2.569   8.910  0.1543  0.2938  0.1913
   72SLPC  H14S 6314   1.412   2.597   8.957  0.1544  0.2702  0.8696
   72SLPC  C215 6315   1.439   2.468   8.782 -0.3901 -0.4087  0.4430
   72SLPC  H15R 6316   1.434   2.550   8.708  0.6696  0.1095  0.9282
   72SLPC  H15S 6317   1.340   2.419   8.791 -2.1063  3.1020  2.7420
   72SLPC  C216 6318   1.549   2.376   8.719  0.8782 -1.2638 -0.3606
   72SLPC  H16R 6319   1.580   2.300   8.793  1.3571 -0.7943 -0.0662
   72SLPC  H16S 6320   1.641   2.435   8.695  0.5329  0.0568  1.3281
   72SLPC  C217 6321   1.496   2.300   8.598  0.2456 -0.8829  0.8186
   72SLPC  H17R 6322   1.414   2.232   8.631 -2.6026  1.1946 -1.4542
   72SLPC  H17S 6323   1.573   2.240   8.545  1.6967  0.4475  1.3479
   72SLPC  C218 6324   1.441   2.390   8.488 -0.7293 -0.2324 -0.4677
   72SLPC  H18R 6325   1.342   2.433   8.512 -0.4267  0.3488 -0.2580
   72SLPC  H18S 6326   1.422   2.337   8.392  3.0238  1.1760 -2.1818
   72SLPC  H18T 6327   1.513   2.473   8.475 -0.6282 -0.0220  1.2778
   72SLPC   C33 6328   1.431   2.789  10.126 -1.0652  0.5123 -0.7698
   72SLPC   H3X 6329   1.322   2.778  10.147 -0.7093 -0.0982  0.9043
   72SLPC   H3Y 6330   1.467   2.707  10.059 -0.4695  0.3072 -0.2038
   72SLPC   C34 6331   1.458   2.925  10.058 -0.2639  0.0349  0.6192
   72SLPC   H4X 6332   1.568   2.919  10.040  0.3043  2.4928  2.6913
   72SLPC   H4Y 6333   1.441   3.012  10.125  0.8586  2.6418 -2.2280
   72SLPC   C35 6334   1.384   2.957   9.926 -0.4376 -0.2740 -0.5795
   72SLPC   H5X 6335   1.382   3.068   9.919 -1.2951 -0.2191  0.3195
   72SLPC   H5Y 6336   1.277   2.934   9.942 -0.6472 -0.4558 -2.1203
   72SLPC   C36 6337   1.444   2.899   9.803 -0.5387  0.1358  0.0408
   72SLPC   H6X 6338   1.406   2.796   9.787  0.3610 -0.1754 -0.1805
   72SLPC   H6Y 6339   1.555   2.902   9.805 -0.2909 -0.1483 -4.1816
   72SLPC   C37 6340   1.408   2.979   9.675  1.0437 -0.1012  0.8758
   72SLPC   H7X 6341   1.447   3.083   9.680 -1.3797  0.9428 -0.3496
   72SLPC   H7Y 6342   1.298   2.988   9.668  1.0095 -1.4164 -1.6138
   72SLPC   C38 6343   1.448   2.919   9.541  0.5040  0.2434  0.0777
   72SLPC   H8X 6344   1.401   2.819   9.530  2.1799 -0.7128  1.1998
   72SLPC   H8Y 6345   1.557   2.900   9.546  0.3580 -0.2560  2.5465
   72SLPC   C39 6346   1.409   3.007   9.420  0.3704  0.1242  0.0742
   72SLPC   H9X 6347   1.460   3.106   9.425 -3.8657  2.4831  1.4930
   72SLPC   H9Y 6348   1.303   3.038   9.418  0.5852  0.8439 -1.7623
   72SLPC  C310 6349   1.456   2.947   9.287 -0.3703  0.4134 -0.0133
   72SLPC  H10X 6350   1.431   2.840   9.303  1.3167  0.1634  1.1797
   72SLPC  H10Y 6351   1.565   2.955   9.268 -0.3369  3.4911  0.8410
   72SLPC  C311 6352   1.390   3.012   9.168  0.2572  0.2861  0.0910
   72SLPC  H11X 6353   1.430   3.115   9.150 -3.0093  1.8796  1.0912
   72SLPC  H11Y 6354   1.282   3.031   9.189  0.6876  0.4417  2.3360
   72SLPC  C312 6355   1.424   2.936   9.039  0.8374  0.2299 -0.1265
   72SLPC  H12X 6356   1.421   2.828   9.065 -0.1649  0.2575 -0.1147
   72SLPC  H12Y 6357   1.526   2.960   9.001  1.0075  0.3482  0.4035
   72SLPC  C313 6358   1.332   2.971   8.925 -0.0619 -0.2108  0.5834
   72SLPC  H13X 6359   1.337   3.080   8.905  0.7260 -0.2797  0.3818
   72SLPC  H13Y 6360   1.230   2.950   8.963 -1.5810  2.3453 -1.7552
   72SLPC  C314 6361   1.359   2.879   8.803 -0.6990 -0.0421 -0.0593
   72SLPC  H14X 6362   1.331   2.776   8.831 -0.8183 -0.3185 -1.1335
   72SLPC  H14Y 6363   1.469   2.893   8.788 -0.2956  1.6497  3.4329
   72SLPC  C315 6364   1.284   2.912   8.668 -0.4795 -0.0192  0.4066
   72SLPC  H15X 6365   1.307   3.014   8.629 -0.6411 -0.0621  0.1983
   72SLPC  H15Y 6366   1.175   2.908   8.689 -0.4952 -0.0065  0.3254
   72SLPC  C316 6367   1.307   2.803   8.566  0.2378 -0.4429 -0.1455
   72SLPC  H16X 6368   1.285   2.709   8.620  0.9290  0.2552  1.4320
   72SLPC  H16Y 6369   1.413   2.786   8.538  0.7148 -0.7101  1.6979
   72SLPC  C317 6370   1.213   2.813   8.443  0.2884  0.5726  0.0863
   72SLPC  H17X 6371   1.252   2.754   8.357  0.4508  1.5955 -0.5594
   72SLPC  H17Y 6372   1.222   2.918   8.407 -1.1976  1.3852  1.9307
   72SLPC  C318 6373   1.074   2.759   8.469 -0.3937  0.2804 -0.9104
   72SLPC  H18X 6374   1.022   2.814   8.550 -2.3273 -0.0761 -1.8526
   72SLPC  H18Y 6375   1.079   2.655   8.505  1.2662  1.1236  1.5839
   72SLPC  H18Z 6376   1.008   2.773   8.381 -1.0815  2.7392 -0.0896
   73SLPC     N 6377   6.420   5.853  11.155  0.0605 -0.4238 -0.1733
   73SLPC   C13 6378   6.447   5.713  11.170 -0.0576 -0.4317  0.1660
   73SLPC  H13A 6379   6.487   5.680  11.075 -0.1926 -1.7863  0.5644
   73SLPC  H13B 6380   6.524   5.708  11.246 -0.2288 -0.5712  0.3279
   73SLPC  H13C 6381   6.358   5.668  11.209 -0.3491  0.7014  0.8543
   73SLPC   C14 6382   6.355   5.903  11.280 -0.2461  0.5021  0.3725
   73SLPC  H14A 6383   6.367   6.010  11.283 -2.3338  0.8764 -1.8266
   73SLPC  H14B 6384   6.253   5.870  11.296 -0.0028 -2.0805 -2.5209
   73SLPC  H14C 6385   6.414   5.872  11.365  0.9053 -0.1930 -0.6533
   73SLPC   C15 6386   6.317   5.872  11.046 -0.4196 -0.5366  0.6195
   73SLPC  H15A 6387   6.350   5.829  10.952 -1.7316 -1.1442  0.4101
   73SLPC  H15B 6388   6.222   5.826  11.069 -0.8949 -0.1574 -0.5114
   73SLPC  H15C 6389   6.303   5.979  11.039  2.2828 -0.1266  0.5900
   73SLPC   C12 6390   6.548   5.934  11.121 -0.1698  0.0289  0.3162
   73SLPC  H12A 6391   6.598   5.951  11.215  2.2700  2.6982 -1.3092
   73SLPC  H12B 6392   6.502   6.024  11.084 -3.0654 -0.7205  1.8168
   73SLPC   C11 6393   6.647   5.871  11.013  0.9259 -0.3214 -0.0843
   73SLPC  H11A 6394   6.726   5.947  10.997  0.4836 -0.1461 -1.5681
   73SLPC  H11B 6395   6.588   5.862  10.919  0.4259  1.0417  0.0729
   73SLPC     P 6396   6.847   5.699  11.028  0.0344 -0.1127  0.6332
   73SLPC   O13 6397   6.940   5.808  11.068  0.0937  0.0960  0.1974
   73SLPC   O14 6398   6.866   5.570  11.093  0.4848  0.1206 -0.6338
   73SLPC   O12 6399   6.697   5.746  11.052  0.3986 -0.1324  0.5345
   73SLPC   O11 6400   6.854   5.674  10.870 -0.9457  0.5678 -0.2166
   73SLPC    C1 6401   6.743   5.610  10.803 -0.3670  0.1341  0.1492
   73SLPC    HA 6402   6.749   5.501  10.821  0.9750  0.1805  0.0693
   73SLPC    HB 6403   6.642   5.647  10.833 -0.2726 -0.5924  1.4083
   73SLPC    C2 6404   6.751   5.605  10.650 -0.0468 -0.4615 -0.3620
   73SLPC    HS 6405   6.699   5.515  10.611 -3.7380  1.9070 -1.3968
   73SLPC   O21 6406   6.888   5.617  10.594  0.1859  0.0163  0.0022
   73SLPC   C21 6407   6.973   5.527  10.628  0.1786 -0.6294 -0.6361
   73SLPC   O22 6408   6.947   5.426  10.705  0.0928 -0.3007  0.3805
   73SLPC   C22 6409   7.109   5.563  10.576  0.1217  0.4718 -0.2301
   73SLPC   H2R 6410   7.084   5.609  10.478 -0.4463 -1.9235 -1.2640
   73SLPC   H2S 6411   7.157   5.635  10.646  0.3866 -0.5384  0.6494
   73SLPC    C3 6412   6.668   5.719  10.593  1.1004 -0.2773  1.1771
   73SLPC    HX 6413   6.700   5.812  10.644 -0.0236  1.1258 -0.5582
   73SLPC    HY 6414   6.565   5.699  10.629 -0.6210  2.0146 -1.9503
   73SLPC   O31 6415   6.655   5.714  10.453  0.6441 -0.0182 -0.3133
   73SLPC   C31 6416   6.737   5.788  10.384  0.2537 -0.0118 -0.7188
   73SLPC   O32 6417   6.823   5.865  10.427  0.3179  0.4712 -0.4225
   73SLPC   C32 6418   6.721   5.769  10.233 -0.1948  0.5193  0.1378
   73SLPC   H2X 6419   6.640   5.836  10.197  0.5735  2.4176  1.7605
   73SLPC   H2Y 6420   6.692   5.663  10.217  0.0913  0.0673  2.2903
   73SLPC   C23 6421   7.196   5.431  10.548  0.3583  0.2116 -0.6494
   73SLPC   H3R 6422   7.139   5.363  10.482  2.7081  0.1395 -2.7502
   73SLPC   H3S 6423   7.220   5.376  10.642 -1.6867 -0.4914 -0.4996
   73SLPC   C24 6424   7.334   5.468  10.491 -0.6480 -0.1133 -0.3785
   73SLPC   H4R 6425   7.387   5.520  10.574 -1.3759  1.9071 -1.1344
   73SLPC   H4S 6426   7.331   5.544  10.410 -2.1299 -1.5311 -1.7245
   73SLPC   C25 6427   7.392   5.342  10.432 -0.4806  0.0534 -0.6153
   73SLPC   H5R 6428   7.307   5.293  10.379 -1.5316  1.7542 -0.5846
   73SLPC   H5S 6429   7.428   5.272  10.511  0.6652 -1.4513 -2.3932
   73SLPC   C26 6430   7.499   5.367  10.327 -0.3142  0.0219 -1.1687
   73SLPC   H6R 6431   7.529   5.266  10.289 -4.1558 -1.1214 -1.5902
   73SLPC   H6S 6432   7.587   5.418  10.372 -1.0968  0.0342  0.4253
   73SLPC   C27 6433   7.447   5.445  10.203 -0.5968 -0.0049 -0.3162
   73SLPC   H7R 6434   7.421   5.548  10.238  0.9762  0.2718  0.0890
   73SLPC   H7S 6435   7.348   5.403  10.174 -0.3305 -0.2428 -0.8897
   73SLPC   C28 6436   7.536   5.439  10.079 -0.0794  0.1922 -0.0273
   73SLPC   H8R 6437   7.489   5.478   9.986  1.5479 -0.3732 -1.1193
   73SLPC   H8S 6438   7.550   5.333  10.050  1.6242  0.4976 -0.4204
   73SLPC   C29 6439   7.673   5.507  10.105  0.5199  0.5973  0.0531
   73SLPC   H9R 6440   7.674   5.564  10.198  0.5322 -1.1952  1.1966
   73SLPC  C210 6441   7.773   5.521  10.015 -0.0418  0.5059  0.0270
   73SLPC  H10R 6442   7.864   5.568  10.054 -0.7213  3.2812 -1.4605
   73SLPC  C211 6443   7.776   5.482   9.868  0.2229  0.0900 -0.2382
   73SLPC  H11R 6444   7.724   5.565   9.816 -0.2727 -0.2390 -0.2718
   73SLPC  H11S 6445   7.722   5.385   9.857  0.5314 -0.0373 -0.6607
   73SLPC  C212 6446   7.917   5.463   9.815 -0.2216 -0.7909 -0.1443
   73SLPC  H12R 6447   7.989   5.448   9.896  1.0737 -2.1237 -1.4801
   73SLPC  C213 6448   7.954   5.477   9.684 -0.1314 -0.5211  0.6399
   73SLPC  H13R 6449   8.054   5.452   9.647 -0.6186 -0.0699 -1.1115
   73SLPC  C214 6450   7.865   5.497   9.567  0.8275  0.5666  0.6375
   73SLPC  H14R 6451   7.842   5.605   9.554  0.4060  0.3370 -0.6855
   73SLPC  H14S 6452   7.767   5.449   9.591 -0.2754  1.5328 -1.5887
   73SLPC  C215 6453   7.918   5.444   9.432 -0.2610 -0.1478  0.0122
   73SLPC  H15R 6454   7.949   5.338   9.445  1.4051  0.3005  0.0146
   73SLPC  H15S 6455   8.005   5.500   9.391  0.1631 -2.2437 -2.2019
   73SLPC  C216 6456   7.804   5.442   9.326 -0.4741 -0.6204 -0.1742
   73SLPC  H16R 6457   7.756   5.542   9.322  0.1598 -0.3550 -2.1255
   73SLPC  H16S 6458   7.730   5.368   9.364  1.2487 -2.3401  0.0125
   73SLPC  C217 6459   7.845   5.406   9.182  0.5037 -0.2895  0.2502
   73SLPC  H17R 6460   7.762   5.343   9.144 -0.0001 -1.8571  3.6012
   73SLPC  H17S 6461   7.940   5.349   9.187  1.6298  1.5020  0.4859
   73SLPC  C218 6462   7.871   5.528   9.095 -0.8006 -0.2585 -0.1114
   73SLPC  H18R 6463   7.874   5.502   8.987  0.1942  1.6461 -0.6017
   73SLPC  H18S 6464   7.966   5.578   9.124 -1.5184  0.8417  0.4163
   73SLPC  H18T 6465   7.797   5.611   9.103 -1.1982 -0.4544 -1.4237
   73SLPC   C33 6466   6.854   5.812  10.161 -0.2937 -0.5291 -0.3091
   73SLPC   H3X 6467   6.940   5.750  10.191 -0.7420 -1.3229 -0.6364
   73SLPC   H3Y 6468   6.872   5.917  10.193 -0.0813 -1.2281  2.0341
   73SLPC   C34 6469   6.849   5.801  10.011 -0.0839 -0.4597  0.1023
   73SLPC   H4X 6470   6.780   5.872   9.960 -0.1536 -1.0076 -0.5873
   73SLPC   H4Y 6471   6.821   5.698   9.980 -0.4000  0.1333 -1.7595
   73SLPC   C35 6472   6.981   5.837   9.929  0.8021 -0.8006  0.9373
   73SLPC   H5X 6473   7.045   5.747   9.938  0.7627 -1.1040 -1.2313
   73SLPC   H5Y 6474   7.030   5.927   9.971 -0.0300  0.3200 -0.3716
   73SLPC   C36 6475   6.953   5.896   9.788 -0.2344 -0.4945 -0.3102
   73SLPC   H6X 6476   7.054   5.902   9.743  0.7851  0.2781  1.9611
   73SLPC   H6Y 6477   6.926   6.003   9.799  1.2923 -0.1353  0.0886
   73SLPC   C37 6478   6.858   5.811   9.712  0.3419  0.0123  0.1449
   73SLPC   H7X 6479   6.757   5.799   9.757 -0.5085 -1.7209 -2.0261
   73SLPC   H7Y 6480   6.900   5.710   9.694  1.0700  0.7028 -2.3467
   73SLPC   C38 6481   6.825   5.883   9.578 -0.6952  0.2512 -0.4305
   73SLPC   H8X 6482   6.802   5.989   9.601 -1.2468 -0.1086  0.8127
   73SLPC   H8Y 6483   6.735   5.838   9.529 -0.4211 -0.3233 -0.4148
   73SLPC   C39 6484   6.943   5.877   9.473 -0.1122  0.3939 -0.3838
   73SLPC   H9X 6485   6.959   5.768   9.457 -0.3359  0.1314  1.0667
   73SLPC   H9Y 6486   7.038   5.916   9.516  0.9297 -0.4552 -1.8152
   73SLPC  C310 6487   6.912   5.958   9.347  0.5720 -0.1771 -0.4489
   73SLPC  H10X 6488   6.930   6.067   9.361  2.2427 -0.2049 -1.9487
   73SLPC  H10Y 6489   6.808   5.931   9.322  0.2376  1.8288 -1.3702
   73SLPC  C311 6490   6.994   5.907   9.226 -0.2512 -1.0130 -0.0130
   73SLPC  H11X 6491   6.983   5.797   9.216 -2.6477 -0.6843 -1.7223
   73SLPC  H11Y 6492   7.100   5.935   9.241 -0.4435 -0.6527  0.7306
   73SLPC  C312 6493   6.953   5.977   9.099  0.2209 -0.0842 -0.0436
   73SLPC  H12X 6494   6.970   6.086   9.110  0.2841 -0.2445  1.7129
   73SLPC  H12Y 6495   6.843   5.972   9.087 -0.2167  1.1793  2.6833
   73SLPC  C313 6496   7.033   5.923   8.981  0.3027 -0.2099  0.3965
   73SLPC  H13X 6497   7.014   5.815   8.959 -1.1083  0.3747 -1.4965
   73SLPC  H13Y 6498   7.144   5.934   8.984  0.2683  0.4403 -0.4697
   73SLPC  C314 6499   6.996   5.993   8.838 -0.3916  0.2193  0.1792
   73SLPC  H14X 6500   7.079   5.982   8.765  0.5775  0.1035  1.2892
   73SLPC  H14Y 6501   6.995   6.100   8.869 -0.6510 -0.6291  3.4507
   73SLPC  C315 6502   6.860   5.940   8.777 -0.6382 -0.4761 -0.4647
   73SLPC  H15X 6503   6.780   5.975   8.845  0.5840  3.0451 -0.6500
   73SLPC  H15Y 6504   6.863   5.829   8.786 -1.7494 -0.6089 -1.4293
   73SLPC  C316 6505   6.828   5.987   8.635 -0.0255 -0.6833  0.3155
   73SLPC  H16X 6506   6.842   6.097   8.629 -4.0848 -0.0953 -1.7152
   73SLPC  H16Y 6507   6.720   5.966   8.620 -0.2403 -0.8515  1.8760
   73SLPC  C317 6508   6.909   5.917   8.521  0.6882 -0.1658 -0.4560
   73SLPC  H17X 6509   6.901   5.811   8.553  1.6386 -0.0750  0.1377
   73SLPC  H17Y 6510   7.020   5.924   8.529  0.7142 -0.3474 -0.6343
   73SLPC  C318 6511   6.846   5.940   8.384 -0.0606 -0.0809  0.9566
   73SLPC  H18X 6512   6.915   5.919   8.299 -0.4499  0.2819  0.5466
   73SLPC  H18Y 6513   6.817   6.047   8.375 -1.4467 -0.3745  1.7356
   73SLPC  H18Z 6514   6.752   5.882   8.374  0.2379 -0.3701 -0.3735
   74SLPC     N 6515   2.810   3.717  10.727 -0.5935  0.4777 -0.5813
   74SLPC   C13 6516   2.783   3.825  10.621  0.2610  0.5241 -0.1826
   74SLPC  H13A 6517   2.784   3.775  10.525  2.3261  0.2851 -0.0915
   74SLPC  H13B 6518   2.691   3.872  10.653  0.0406  0.5641 -0.8658
   74SLPC  H13C 6519   2.865   3.895  10.628  0.9095 -0.1672 -0.6634
   74SLPC   C14 6520   2.693   3.623  10.762 -0.1055 -0.1172 -0.5945
   74SLPC  H14A 6521   2.661   3.561  10.680  0.3365  0.0019 -0.8561
   74SLPC  H14B 6522   2.719   3.565  10.849 -2.6515  0.7415  0.8555
   74SLPC  H14C 6523   2.607   3.681  10.794  0.1604 -1.0655  2.1435
   74SLPC   C15 6524   2.845   3.790  10.855  0.3885 -0.1930 -0.0114
   74SLPC  H15A 6525   2.846   3.722  10.939 -4.1351  2.7312  2.9372
   74SLPC  H15B 6526   2.934   3.849  10.840  0.8012 -0.4128  1.4150
   74SLPC  H15C 6527   2.767   3.862  10.879  1.3754 -0.1476  3.7601
   74SLPC   C12 6528   2.922   3.621  10.674  0.2398 -0.9832 -0.9432
   74SLPC  H12A 6529   2.940   3.546  10.749 -2.4250  0.9155  1.7788
   74SLPC  H12B 6530   3.015   3.676  10.671  0.2940 -1.0083  0.1594
   74SLPC   C11 6531   2.910   3.554  10.537 -0.5113 -0.0458  0.3675
   74SLPC  H11A 6532   3.009   3.541  10.489 -0.9770 -0.0265 -0.6277
   74SLPC  H11B 6533   2.847   3.615  10.469 -1.8100 -1.8180 -0.0791
   74SLPC     P 6534   2.940   3.298  10.591  0.0131 -0.1571 -0.5601
   74SLPC   O13 6535   3.079   3.334  10.624  0.1487 -0.3190  0.5266
   74SLPC   O14 6536   2.871   3.224  10.699 -0.0082  0.2244 -0.2617
   74SLPC   O12 6537   2.850   3.428  10.568  0.0979  0.2670  0.3217
   74SLPC   O11 6538   2.944   3.216  10.451  0.4024 -0.4530 -0.1020
   74SLPC    C1 6539   2.823   3.189  10.379  0.2332  0.3896  0.2106
   74SLPC    HA 6540   2.733   3.204  10.442  0.5154  1.4917  0.3655
   74SLPC    HB 6541   2.819   3.263  10.296  3.9309 -0.4365 -0.9078
   74SLPC    C2 6542   2.810   3.053  10.324 -0.1958  0.3013  0.8428
   74SLPC    HS 6543   2.843   2.977  10.398 -0.3089 -0.7372 -0.1508
   74SLPC   O21 6544   2.886   3.053  10.206  0.1445 -0.9141  0.1894
   74SLPC   C21 6545   2.955   2.944  10.171  0.1642 -0.0230 -0.0998
   74SLPC   O22 6546   2.956   2.839  10.236 -0.5268  0.0792 -0.8763
   74SLPC   C22 6547   3.017   2.970  10.032 -0.2916 -0.3193 -0.0496
   74SLPC   H2R 6548   3.006   3.076  10.001 -2.6178 -0.2986  0.6373
   74SLPC   H2S 6549   3.125   2.947  10.040 -0.1348  0.5064  0.2885
   74SLPC    C3 6550   2.669   3.008  10.290  0.5560  0.2060  0.1115
   74SLPC    HX 6551   2.613   2.970  10.378  0.5572 -1.6636 -0.6446
   74SLPC    HY 6552   2.675   2.917  10.228 -2.3841  0.8041 -1.2211
   74SLPC   O31 6553   2.596   3.113  10.219 -0.1365 -0.0340  0.1279
   74SLPC   C31 6554   2.474   3.082  10.178  0.2364 -0.3155  0.5868
   74SLPC   O32 6555   2.417   2.980  10.179 -0.4147  0.2098  0.6118
   74SLPC   C32 6556   2.412   3.208  10.146 -0.2448 -0.4004  0.3503
   74SLPC   H2X 6557   2.478   3.292  10.114  0.6222 -1.1175  0.2077
   74SLPC   H2Y 6558   2.374   3.243  10.244 -0.7185  1.6538 -0.5223
   74SLPC   C23 6559   2.948   2.890   9.925 -0.0725  0.2457 -0.6518
   74SLPC   H3R 6560   2.956   2.785   9.958 -1.2742 -0.6664 -3.0588
   74SLPC   H3S 6561   3.006   2.907   9.832 -0.5039 -0.7000 -1.0962
   74SLPC   C24 6562   2.801   2.924   9.908  0.3908  0.0673  1.0040
   74SLPC   H4R 6563   2.799   3.026   9.866  1.5689 -0.6572 -0.9207
   74SLPC   H4S 6564   2.737   2.907   9.998  2.1484  0.7600  2.4332
   74SLPC   C25 6565   2.729   2.825   9.815 -0.2046 -0.4416 -0.3326
   74SLPC   H5R 6566   2.627   2.867   9.802 -0.0546  0.5138  1.2875
   74SLPC   H5S 6567   2.721   2.726   9.864  0.9695 -0.4263 -0.0887
   74SLPC   C26 6568   2.792   2.783   9.688 -0.4034 -1.2883  0.3084
   74SLPC   H6R 6569   2.730   2.700   9.645 -3.4898  0.3952  1.2100
   74SLPC   H6S 6570   2.895   2.748   9.709  1.0210  1.4295 -1.5274
   74SLPC   C27 6571   2.806   2.883   9.570 -0.4458 -0.3586  0.5384
   74SLPC   H7R 6572   2.813   2.983   9.618  3.7615  0.6885 -1.7974
   74SLPC   H7S 6573   2.727   2.895   9.493  1.7153  2.6303 -1.4087
   74SLPC   C28 6574   2.941   2.863   9.493 -0.0610  0.1160  0.4721
   74SLPC   H8R 6575   3.024   2.873   9.567  1.2556 -2.7938 -0.4540
   74SLPC   H8S 6576   2.936   2.954   9.429 -0.1698  0.5583  1.1001
   74SLPC   C29 6577   2.950   2.722   9.442 -0.2147 -0.2445  0.4180
   74SLPC   H9R 6578   2.958   2.649   9.524  1.1152 -3.0658 -2.0563
   74SLPC  C210 6579   2.923   2.683   9.319 -0.7827  0.1048  0.5050
   74SLPC  H10R 6580   2.923   2.576   9.292  0.0920 -0.3263  2.0964
   74SLPC  C211 6581   2.888   2.770   9.199  0.5028 -0.0357 -0.6914
   74SLPC  H11R 6582   2.842   2.863   9.239  2.0178  0.4274  0.0702
   74SLPC  H11S 6583   2.803   2.739   9.134 -1.3261  0.8747  1.1419
   74SLPC  C212 6584   3.001   2.810   9.113 -0.5089 -0.1872 -0.8098
   74SLPC  H12R 6585   3.088   2.835   9.176  1.0009  0.7010 -3.0809
   74SLPC  C213 6586   3.018   2.801   8.974  0.3247 -0.4518 -0.1425
   74SLPC  H13R 6587   3.113   2.832   8.928  0.7405 -2.6396 -0.8696
   74SLPC  C214 6588   2.924   2.756   8.865  0.3233 -0.0205  0.0878
   74SLPC  H14R 6589   2.828   2.734   8.915 -0.9346  1.8643 -1.3429
   74SLPC  H14S 6590   2.960   2.666   8.811 -0.1138 -1.5628  2.2280
   74SLPC  C215 6591   2.891   2.866   8.759 -0.8277 -0.1482 -0.4590
   74SLPC  H15R 6592   2.985   2.911   8.721 -0.7799 -0.3773 -0.6176
   74SLPC  H15S 6593   2.847   2.959   8.801 -2.6604 -0.1727 -2.2106
   74SLPC  C216 6594   2.809   2.803   8.651  0.7484 -0.0296  0.1693
   74SLPC  H16R 6595   2.709   2.792   8.699 -0.1332  0.1238 -1.5356
   74SLPC  H16S 6596   2.846   2.712   8.600 -1.5710  0.7778 -3.3976
   74SLPC  C217 6597   2.781   2.903   8.537 -0.0385  0.2380 -0.4630
   74SLPC  H17R 6598   2.868   2.927   8.472 -0.3867 -0.7694 -1.3301
   74SLPC  H17S 6599   2.746   2.997   8.585  1.3134  0.9671 -0.8730
   74SLPC  C218 6600   2.657   2.858   8.457 -0.0772 -0.7086  0.1452
   74SLPC  H18R 6601   2.629   2.938   8.385  0.7088 -0.4806  0.0807
   74SLPC  H18S 6602   2.568   2.838   8.521  0.2297 -0.8080  0.5417
   74SLPC  H18T 6603   2.679   2.764   8.404  1.2886 -0.9512  1.0781
   74SLPC   C33 6604   2.299   3.195  10.042  0.6946  0.4870  1.2100
   74SLPC   H3X 6605   2.228   3.280  10.037 -0.6590 -0.6347  0.9330
   74SLPC   H3Y 6606   2.241   3.102  10.057  3.5767 -1.2290  2.4512
   74SLPC   C34 6607   2.353   3.186   9.895 -0.3241 -0.2860  0.1414
   74SLPC   H4X 6608   2.421   3.099   9.904 -2.3298 -1.7463  2.5894
   74SLPC   H4Y 6609   2.415   3.275   9.870  1.1244 -1.5231 -0.8634
   74SLPC   C35 6610   2.245   3.177   9.791  0.7844  0.2359 -0.5349
   74SLPC   H5X 6611   2.175   3.263   9.801  0.0169 -0.4680  0.4015
   74SLPC   H5Y 6612   2.186   3.086   9.814 -2.3242  2.0086 -0.9450
   74SLPC   C36 6613   2.302   3.167   9.650 -0.4871 -0.7304  0.5978
   74SLPC   H6X 6614   2.344   3.065   9.650  0.6671 -0.2989  1.9552
   74SLPC   H6Y 6615   2.384   3.243   9.645 -1.8590  0.7016 -1.3871
   74SLPC   C37 6616   2.196   3.183   9.540 -0.1320  0.0428  0.4732
   74SLPC   H7X 6617   2.154   3.283   9.562 -0.3066  0.1178 -0.1812
   74SLPC   H7Y 6618   2.120   3.103   9.555 -0.1249 -0.0113  0.2344
   74SLPC   C38 6619   2.261   3.170   9.405  0.3584  0.3453  0.2273
   74SLPC   H8X 6620   2.302   3.068   9.390 -0.5031  0.2317 -1.6144
   74SLPC   H8Y 6621   2.336   3.251   9.393 -0.3411  1.0525  0.4911
   74SLPC   C39 6622   2.166   3.193   9.287 -0.1209  0.2132  0.2978
   74SLPC   H9X 6623   2.134   3.299   9.294 -0.7925 -0.0155  1.0044
   74SLPC   H9Y 6624   2.075   3.128   9.291 -0.4133  0.5837 -0.2864
   74SLPC  C310 6625   2.236   3.182   9.148  0.2657 -0.3551  0.7034
   74SLPC  H10X 6626   2.277   3.079   9.133  0.0146 -0.4396  0.5908
   74SLPC  H10Y 6627   2.324   3.249   9.159  0.8700 -1.1959  1.1786
   74SLPC  C311 6628   2.159   3.229   9.025 -0.4406 -0.0573  0.3016
   74SLPC  H11X 6629   2.108   3.326   9.043 -0.4323  0.2179 -1.0698
   74SLPC  H11Y 6630   2.080   3.154   9.007  0.5494 -0.7746 -1.2329
   74SLPC  C312 6631   2.251   3.258   8.916  0.0746  0.8551  0.0028
   74SLPC  H12X 6632   2.295   3.161   8.884  2.4017  2.1158 -0.8845
   74SLPC  H12Y 6633   2.329   3.331   8.948  2.3799 -1.1246 -0.7663
   74SLPC  C313 6634   2.181   3.310   8.791  0.1448  0.6856  0.1119
   74SLPC  H13X 6635   2.255   3.346   8.716  0.5775  1.3083  0.8124
   74SLPC  H13Y 6636   2.111   3.389   8.825 -0.2360  1.5316 -2.4151
   74SLPC  C314 6637   2.103   3.203   8.717  0.5033 -0.4638  0.0596
   74SLPC  H14X 6638   2.036   3.146   8.784  0.9743 -2.0529 -0.7844
   74SLPC  H14Y 6639   2.174   3.133   8.669  0.4488  0.0635 -0.8107
   74SLPC  C315 6640   2.015   3.261   8.603 -0.1501  0.8171 -0.5989
   74SLPC  H15X 6641   1.978   3.362   8.632  1.2945  1.6597 -1.5201
   74SLPC  H15Y 6642   1.928   3.194   8.592 -0.0038  0.4270  0.4861
   74SLPC  C316 6643   2.087   3.289   8.472 -0.0795 -0.1645 -0.1528
   74SLPC  H16X 6644   2.122   3.193   8.427 -0.6615 -0.6022  0.3089
   74SLPC  H16Y 6645   2.178   3.353   8.476  0.2336 -0.6616  3.0746
   74SLPC  C317 6646   1.983   3.346   8.369 -0.2533  0.2238 -1.0230
   74SLPC  H17X 6647   2.020   3.344   8.264 -2.8120 -1.7510 -1.9671
   74SLPC  H17Y 6648   1.975   3.451   8.405 -0.1749 -0.3381  0.7217
   74SLPC  C318 6649   1.846   3.283   8.361 -0.1315  0.3903 -0.2697
   74SLPC  H18X 6650   1.790   3.333   8.279 -0.4900  2.2382  1.0476
   74SLPC  H18Y 6651   1.791   3.287   8.457  0.1670 -2.4245  0.0956
   74SLPC  H18Z 6652   1.862   3.174   8.345 -1.1107  0.0326  1.0437
   75SLPC     N 6653   6.171   3.063   6.007 -0.3323 -0.1072 -1.4976
   75SLPC   C13 6654   6.119   2.942   6.070 -0.3370 -0.3046 -0.4422
   75SLPC  H13A 6655   6.105   2.961   6.175  0.2695 -2.5887  0.1002
   75SLPC  H13B 6656   6.022   2.910   6.034  0.2230 -4.3247  1.1027
   75SLPC  H13C 6657   6.182   2.856   6.052 -1.8113 -1.0331 -2.4506
   75SLPC   C14 6658   6.062   3.163   5.991 -0.5578  0.6106  0.5587
   75SLPC  H14A 6659   6.019   3.185   6.088 -1.1923 -0.1323  0.4543
   75SLPC  H14B 6660   6.097   3.256   5.950 -0.8128  0.2832 -0.4201
   75SLPC  H14C 6661   5.992   3.138   5.913  0.0500  1.7205 -0.3703
   75SLPC   C15 6662   6.227   3.035   5.873 -0.5291 -0.2298  0.0399
   75SLPC  H15A 6663   6.282   3.123   5.842 -2.6219  1.2094  0.1742
   75SLPC  H15B 6664   6.293   2.951   5.870 -0.9674 -0.6440  1.4202
   75SLPC  H15C 6665   6.141   3.021   5.808  0.0463 -0.7674 -0.6148
   75SLPC   C12 6666   6.277   3.129   6.092 -0.6741  0.1226  0.3628
   75SLPC  H12A 6667   6.330   3.204   6.034  1.0973 -1.3051  0.0195
   75SLPC  H12B 6668   6.361   3.063   6.112  1.2961  2.1911 -0.6729
   75SLPC   C11 6669   6.232   3.194   6.224  0.2269  0.1721 -0.6793
   75SLPC  H11A 6670   6.166   3.283   6.209 -1.2624 -0.2874  2.2758
   75SLPC  H11B 6671   6.324   3.233   6.272 -0.3124 -0.7073  1.2003
   75SLPC     P 6672   6.047   3.144   6.390 -0.1381 -0.4930 -0.5327
   75SLPC   O13 6673   6.078   3.260   6.476  0.0718  0.1070  0.1567
   75SLPC   O14 6674   5.937   3.151   6.293 -0.4471 -0.3720  0.0112
   75SLPC   O12 6675   6.172   3.097   6.311  0.6701  0.1357  0.7146
   75SLPC   O11 6676   6.019   3.024   6.488 -0.2409  1.2342  0.9279
   75SLPC    C1 6677   6.116   2.956   6.556  0.3353 -0.1564 -0.1343
   75SLPC    HA 6678   6.144   2.863   6.501 -0.0798 -0.1182 -0.4121
   75SLPC    HB 6679   6.203   3.025   6.565 -0.2136  0.5429 -0.1369
   75SLPC    C2 6680   6.075   2.931   6.706 -0.2169  0.3366  0.2462
   75SLPC    HS 6681   6.162   2.888   6.760 -1.2265 -1.1615  0.7378
   75SLPC   O21 6682   5.961   2.839   6.704 -0.3246 -0.3289  0.2736
   75SLPC   C21 6683   5.999   2.716   6.667  0.2695 -0.2258 -0.2680
   75SLPC   O22 6684   6.109   2.675   6.639  0.7455 -0.3778 -0.1241
   75SLPC   C22 6685   5.868   2.622   6.681  0.1317  0.2104 -0.1384
   75SLPC   H2R 6686   5.780   2.687   6.704 -0.5605  0.0926 -2.2307
   75SLPC   H2S 6687   5.851   2.580   6.579  0.8051  0.3953 -0.3283
   75SLPC    C3 6688   6.040   3.061   6.782  0.3752 -0.4631  0.4728
   75SLPC    HX 6689   5.961   3.104   6.717  0.3400 -1.1015  0.0831
   75SLPC    HY 6690   6.121   3.137   6.781 -0.2446  0.2087  0.7142
   75SLPC   O31 6691   5.986   3.045   6.909  0.3278 -0.0814 -0.2268
   75SLPC   C31 6692   6.069   3.006   7.005  0.2335  0.4337  0.3989
   75SLPC   O32 6693   6.189   2.988   6.992 -0.1894  0.1618  0.0471
   75SLPC   C32 6694   5.986   2.985   7.133 -0.0735  0.2111 -0.0889
   75SLPC   H2X 6695   5.901   2.924   7.098  0.0388  0.7030 -1.2461
   75SLPC   H2Y 6696   5.955   3.088   7.162  0.1074  0.0315  0.7982
   75SLPC   C23 6697   5.883   2.523   6.794 -0.2317  0.3704  0.0512
   75SLPC   H3R 6698   5.985   2.483   6.811  0.1708  0.7033 -1.4142
   75SLPC   H3S 6699   5.818   2.435   6.771 -0.1686  0.2235  0.4240
   75SLPC   C24 6700   5.828   2.586   6.926  0.1188  0.1050 -0.3092
   75SLPC   H4R 6701   5.719   2.609   6.919  0.4852  2.2477  0.2267
   75SLPC   H4S 6702   5.890   2.675   6.947 -2.8539  1.6294  3.0984
   75SLPC   C25 6703   5.856   2.495   7.048 -0.3875  0.0466 -0.2322
   75SLPC   H5R 6704   5.965   2.473   7.042 -0.2081  1.2329 -2.7024
   75SLPC   H5S 6705   5.801   2.401   7.025  0.2425  0.0221 -1.7831
   75SLPC   C26 6706   5.817   2.566   7.181 -0.6700 -0.3070  0.3232
   75SLPC   H6R 6707   5.707   2.574   7.181 -0.6904  0.8646 -2.6321
   75SLPC   H6S 6708   5.858   2.669   7.185  0.7702 -0.8967  2.1152
   75SLPC   C27 6709   5.872   2.506   7.312  0.8220 -0.0000 -0.0602
   75SLPC   H7R 6710   5.856   2.576   7.396 -0.2168 -0.0321 -0.2207
   75SLPC   H7S 6711   5.981   2.510   7.289  0.5648  1.6436 -1.1403
   75SLPC   C28 6712   5.816   2.361   7.337 -0.4002 -0.1410  0.0699
   75SLPC   H8R 6713   5.827   2.305   7.242  1.6605 -0.8463  0.6534
   75SLPC   H8S 6714   5.707   2.369   7.356 -0.2295  1.1534  0.6755
   75SLPC   C29 6715   5.890   2.310   7.457 -0.7942 -0.4899 -0.1151
   75SLPC   H9R 6716   5.995   2.281   7.438  0.6667  4.3020 -0.6336
   75SLPC  C210 6717   5.846   2.301   7.585 -0.1387  0.2460 -0.0463
   75SLPC  H10R 6718   5.896   2.245   7.666 -2.2086 -3.3464 -1.0300
   75SLPC  C211 6719   5.715   2.344   7.637  0.1426 -0.1276  0.2696
   75SLPC  H11R 6720   5.680   2.431   7.578 -0.2800 -0.9171 -0.6708
   75SLPC  H11S 6721   5.715   2.383   7.741 -1.5630 -2.3448  1.1980
   75SLPC  C212 6722   5.608   2.237   7.621 -0.6402 -0.1830 -0.6003
   75SLPC  H12R 6723   5.578   2.232   7.516  2.0173 -4.7870 -1.4301
   75SLPC  C213 6724   5.550   2.159   7.719  0.6957  0.2523  0.0281
   75SLPC  H13R 6725   5.484   2.077   7.687  0.0512 -1.0265  3.9674
   75SLPC  C214 6726   5.573   2.158   7.872  0.2137  0.2618  0.4294
   75SLPC  H14R 6727   5.494   2.217   7.923 -0.3388 -0.8207  0.8360
   75SLPC  H14S 6728   5.670   2.212   7.880  1.3243 -1.2483 -1.7439
   75SLPC  C215 6729   5.572   2.014   7.947  0.1920 -0.5384  0.2649
   75SLPC  H15R 6730   5.613   1.941   7.873 -1.2572 -0.3394 -0.7812
   75SLPC  H15S 6731   5.468   1.978   7.955 -0.6344  1.7772  0.6937
   75SLPC  C216 6732   5.654   2.015   8.073  0.1446  0.3670 -0.3361
   75SLPC  H16R 6733   5.612   2.090   8.144  1.5713  3.4566 -2.5545
   75SLPC  H16S 6734   5.757   2.053   8.053  0.7730 -0.5596  0.9639
   75SLPC  C217 6735   5.657   1.874   8.130  0.3123  0.5763 -0.1882
   75SLPC  H17R 6736   5.711   1.808   8.059  1.8132  0.3809  1.0880
   75SLPC  H17S 6737   5.559   1.826   8.149  0.3315  1.7932  4.1979
   75SLPC  C218 6738   5.740   1.848   8.261  0.1786  0.3403 -0.1030
   75SLPC  H18R 6739   5.678   1.888   8.344 -1.7451  2.1630 -2.2669
   75SLPC  H18S 6740   5.835   1.905   8.251  1.0745 -1.1401 -0.3964
   75SLPC  H18T 6741   5.757   1.738   8.264  0.5669  0.4180  1.6221
   75SLPC   C33 6742   6.062   2.939   7.263 -0.0722  0.4567 -0.2702
   75SLPC   H3X 6743   6.089   2.832   7.250  0.5186  0.8564 -2.8909
   75SLPC   H3Y 6744   6.154   2.999   7.283  0.3445 -0.8104  1.9590
   75SLPC   C34 6745   5.988   2.958   7.407 -0.3648 -0.1903 -0.1827
   75SLPC   H4X 6746   5.900   3.022   7.386  1.1217  2.7169  1.7153
   75SLPC   H4Y 6747   6.054   3.008   7.481 -0.6812 -0.8316  0.5499
   75SLPC   C35 6748   5.920   2.832   7.456  0.2578  0.6126  0.1298
   75SLPC   H5X 6749   5.991   2.748   7.468  0.5336  1.0103  1.4188
   75SLPC   H5Y 6750   5.835   2.814   7.388 -1.1210  1.1842  1.6427
   75SLPC   C36 6751   5.853   2.859   7.582  0.1939 -0.6266 -0.8268
   75SLPC   H6X 6752   5.831   2.968   7.580  0.6180 -0.4511  1.3975
   75SLPC   H6Y 6753   5.933   2.850   7.659  0.1660  3.7627 -0.0440
   75SLPC   C37 6754   5.738   2.768   7.615  0.2158 -0.2441  0.5085
   75SLPC   H7X 6755   5.787   2.670   7.634  0.9675  0.3151  1.5828
   75SLPC   H7Y 6756   5.681   2.762   7.520  0.7543 -0.7875  0.2137
   75SLPC   C38 6757   5.640   2.800   7.724  0.2483  1.0431  0.1220
   75SLPC   H8X 6758   5.544   2.744   7.714 -0.2525  2.0001 -0.6901
   75SLPC   H8Y 6759   5.603   2.903   7.703 -1.9537  0.5588  1.3681
   75SLPC   C39 6760   5.695   2.790   7.859 -0.0421 -0.2823 -0.3239
   75SLPC   H9X 6761   5.681   2.889   7.908 -0.0768 -0.9583  1.1062
   75SLPC   H9Y 6762   5.805   2.784   7.855 -0.0742 -0.2483 -1.4196
   75SLPC  C310 6763   5.650   2.670   7.939  0.4395  0.0266 -0.4247
   75SLPC  H10X 6764   5.682   2.576   7.890  2.2922  0.6308 -0.4744
   75SLPC  H10Y 6765   5.540   2.671   7.948  0.3782  0.7504 -1.1523
   75SLPC  C311 6766   5.706   2.671   8.080  0.4133 -0.3361 -0.0582
   75SLPC  H11X 6767   5.667   2.768   8.118 -0.1354 -0.4322 -0.3659
   75SLPC  H11Y 6768   5.816   2.671   8.091  0.2233 -1.4763  2.2779
   75SLPC  C312 6769   5.653   2.565   8.167  0.1679 -0.0399 -0.6417
   75SLPC  H12X 6770   5.676   2.471   8.113  0.4775 -0.7149  0.6183
   75SLPC  H12Y 6771   5.542   2.561   8.177  0.2501 -2.0278 -0.1391
   75SLPC  C313 6772   5.716   2.553   8.307  0.3546  0.4276  0.0458
   75SLPC  H13X 6773   5.752   2.653   8.337  0.7290  0.3177 -0.0362
   75SLPC  H13Y 6774   5.808   2.495   8.286 -0.5379 -0.7350 -0.8252
   75SLPC  C314 6775   5.634   2.486   8.419  0.0509 -0.8985  0.2256
   75SLPC  H14X 6776   5.538   2.541   8.422  0.8752  0.6049  0.4089
   75SLPC  H14Y 6777   5.689   2.512   8.513  1.5189  2.7787 -1.4513
   75SLPC  C315 6778   5.621   2.334   8.406 -0.2779  0.0629 -0.6050
   75SLPC  H15X 6779   5.711   2.292   8.457 -0.7869 -2.9785 -1.9676
   75SLPC  H15Y 6780   5.628   2.307   8.298 -0.9244  1.3247 -0.9810
   75SLPC  C316 6781   5.490   2.278   8.455  0.3641  0.4387  0.1093
   75SLPC  H16X 6782   5.482   2.168   8.438 -0.7650  0.0664  2.5394
   75SLPC  H16Y 6783   5.400   2.324   8.409 -0.7547 -2.0332 -0.3536
   75SLPC  C317 6784   5.471   2.291   8.603 -0.1847 -0.0271 -0.7490
   75SLPC  H17X 6785   5.431   2.392   8.625  0.5000 -0.0909  0.9472
   75SLPC  H17Y 6786   5.574   2.292   8.645 -1.8372 -0.1390  3.8803
   75SLPC  C318 6787   5.399   2.184   8.683  0.0504 -0.6773 -0.8144
   75SLPC  H18X 6788   5.444   2.088   8.652  0.1407 -0.8396 -0.1954
   75SLPC  H18Y 6789   5.292   2.182   8.654 -0.3430 -1.8050  0.6042
   75SLPC  H18Z 6790   5.405   2.195   8.794 -2.0320  0.8195 -0.7841
   76SLPC     N 6791   0.574   3.582   6.180  0.2675  0.1920 -0.1921
   76SLPC   C13 6792   0.620   3.720   6.217  0.3724 -0.3057  0.2405
   76SLPC  H13A 6793   0.716   3.745   6.175 -0.3485  0.6141 -0.9333
   76SLPC  H13B 6794   0.562   3.802   6.178  3.0423  1.0909 -1.0021
   76SLPC  H13C 6795   0.634   3.732   6.323  1.1682 -2.2460  0.3924
   76SLPC   C14 6796   0.558   3.584   6.032 -0.4733  1.2547  0.1069
   76SLPC  H14A 6797   0.510   3.674   5.996 -0.0178  1.4749  0.0405
   76SLPC  H14B 6798   0.654   3.572   5.985 -1.1524 -4.5756 -0.5252
   76SLPC  H14C 6799   0.503   3.497   5.998  1.8610 -0.4849  0.5800
   76SLPC   C15 6800   0.434   3.564   6.238  0.4144 -0.0259 -0.0883
   76SLPC  H15A 6801   0.431   3.575   6.346 -2.2895  0.4052 -0.1516
   76SLPC  H15B 6802   0.363   3.631   6.194  1.1197  0.5513 -0.3713
   76SLPC  H15C 6803   0.394   3.464   6.228 -0.9200  0.3670  1.0814
   76SLPC   C12 6804   0.678   3.481   6.217  0.4894  0.1590  0.1239
   76SLPC  H12A 6805   0.772   3.504   6.170  1.1679 -1.7144  0.4872
   76SLPC  H12B 6806   0.654   3.387   6.170  1.5594 -0.4444  0.7531
   76SLPC   C11 6807   0.695   3.454   6.370 -0.1085  0.1137 -0.7424
   76SLPC  H11A 6808   0.730   3.547   6.421 -0.9354 -0.3296  0.6859
   76SLPC  H11B 6809   0.777   3.379   6.381 -0.7766 -0.9244 -2.4548
   76SLPC     P 6810   0.531   3.259   6.413  0.5453 -0.3513 -0.1819
   76SLPC   O13 6811   0.383   3.266   6.398 -0.4095 -0.0015 -0.3448
   76SLPC   O14 6812   0.598   3.200   6.296 -0.1471 -0.6643 -0.3912
   76SLPC   O12 6813   0.573   3.405   6.430 -0.4401 -0.0724 -0.2355
   76SLPC   O11 6814   0.577   3.182   6.539 -0.4196 -0.2979 -0.1476
   76SLPC    C1 6815   0.711   3.142   6.560  0.2069  0.7894 -0.3990
   76SLPC    HA 6816   0.754   3.075   6.483  1.3560 -0.6101  1.3463
   76SLPC    HB 6817   0.785   3.225   6.563  2.7008 -1.2555 -1.6099
   76SLPC    C2 6818   0.733   3.048   6.685 -0.2328  0.1437  1.0258
   76SLPC    HS 6819   0.663   2.962   6.678 -0.2540  0.2915 -1.5722
   76SLPC   O21 6820   0.734   3.119   6.807  0.3423  0.9098  0.2370
   76SLPC   C21 6821   0.705   3.040   6.914 -0.7945 -0.0512  0.3118
   76SLPC   O22 6822   0.688   2.917   6.901 -0.0857  0.4804 -0.3172
   76SLPC   C22 6823   0.718   3.116   7.044  0.3446  0.6809  1.0950
   76SLPC   H2R 6824   0.792   3.199   7.039  1.5274  0.1067  5.3825
   76SLPC   H2S 6825   0.617   3.155   7.069 -0.2899  0.1456 -0.4893
   76SLPC    C3 6826   0.873   2.977   6.667 -0.0973 -0.0125  0.4882
   76SLPC    HX 6827   0.854   2.902   6.588  2.6679 -3.4509  2.7638
   76SLPC    HY 6828   0.893   2.913   6.755  0.1936  1.6313  1.6638
   76SLPC   O31 6829   0.978   3.075   6.625  0.3220  0.2222  0.7939
   76SLPC   C31 6830   1.024   3.146   6.728  0.5820 -0.6285  0.9262
   76SLPC   O32 6831   1.005   3.114   6.846  0.6584 -0.2941  0.2732
   76SLPC   C32 6832   1.114   3.262   6.682  0.9794  0.2765 -0.1412
   76SLPC   H2X 6833   1.174   3.210   6.604 -1.4735 -2.5445 -0.3092
   76SLPC   H2Y 6834   1.184   3.286   6.766  1.0178  1.1658 -0.4236
   76SLPC   C23 6835   0.767   3.019   7.152 -0.6884 -0.4448 -0.0594
   76SLPC   H3R 6836   0.829   2.941   7.104  0.0515  0.3623 -0.4425
   76SLPC   H3S 6837   0.680   2.965   7.194 -0.4289 -2.7377 -2.2468
   76SLPC   C24 6838   0.851   3.097   7.260 -0.0302  0.0886  0.1938
   76SLPC   H4R 6839   0.799   3.194   7.275 -0.6456 -0.2859  0.5307
   76SLPC   H4S 6840   0.950   3.111   7.212 -0.4547 -0.4970 -0.9061
   76SLPC   C25 6841   0.848   3.025   7.390  0.1592 -0.0625  0.0445
   76SLPC   H5R 6842   0.872   2.917   7.386  0.9838  0.0617  1.1231
   76SLPC   H5S 6843   0.747   3.023   7.437 -0.1371  0.5365 -0.5416
   76SLPC   C26 6844   0.930   3.099   7.494 -0.1849 -0.4040  0.0471
   76SLPC   H6R 6845   0.889   3.201   7.507  2.0990  0.3086  2.5709
   76SLPC   H6S 6846   1.034   3.103   7.456 -0.2618 -2.2090 -0.4541
   76SLPC   C27 6847   0.945   3.026   7.629  0.3179 -0.2185 -0.2113
   76SLPC   H7R 6848   1.020   3.082   7.688  2.7115  0.0084 -3.2392
   76SLPC   H7S 6849   0.990   2.926   7.610 -1.7842 -1.3223  0.2670
   76SLPC   C28 6850   0.818   3.029   7.720 -0.0409  0.1542  0.3549
   76SLPC   H8R 6851   0.862   3.035   7.822  0.2200  0.9692  0.1985
   76SLPC   H8S 6852   0.769   3.127   7.700 -0.9167 -0.0783  1.2549
   76SLPC   C29 6853   0.717   2.921   7.724 -0.4538 -0.1989  0.4812
   76SLPC   H9R 6854   0.691   2.890   7.622  1.8894  0.3826 -0.3406
   76SLPC  C210 6855   0.663   2.869   7.836  0.1834  0.1076 -0.2228
   76SLPC  H10R 6856   0.607   2.774   7.835  0.0799  0.1227  1.4577
   76SLPC  C211 6857   0.688   2.898   7.984 -0.0874  0.1362  0.1370
   76SLPC  H11R 6858   0.594   2.909   8.043  0.7435 -0.9865  1.7547
   76SLPC  H11S 6859   0.740   2.996   7.988 -1.3397  1.0876 -3.2711
   76SLPC  C212 6860   0.794   2.808   8.044 -0.2230 -0.2595 -0.5155
   76SLPC  H12R 6861   0.861   2.754   7.975  0.3248  0.3684 -0.4736
   76SLPC  C213 6862   0.824   2.800   8.177 -0.0508  0.4882  0.5977
   76SLPC  H13R 6863   0.912   2.740   8.206  0.8553 -0.6508 -3.7992
   76SLPC  C214 6864   0.753   2.867   8.291 -0.5177 -0.2073 -0.3534
   76SLPC  H14R 6865   0.709   2.966   8.264 -0.1166 -0.0661 -0.4992
   76SLPC  H14S 6866   0.823   2.877   8.376  0.0034 -1.0675 -0.6704
   76SLPC  C215 6867   0.634   2.782   8.350  0.2736 -0.1525  0.2239
   76SLPC  H15R 6868   0.581   2.720   8.275  0.5565 -1.0423  0.7321
   76SLPC  H15S 6869   0.568   2.850   8.408  0.6869  0.7108 -0.2948
   76SLPC  C216 6870   0.691   2.677   8.452 -0.4142  0.4049 -0.2853
   76SLPC  H16R 6871   0.754   2.718   8.534  0.1586 -1.7463  0.4272
   76SLPC  H16S 6872   0.767   2.612   8.403  0.8802  1.9192 -0.3675
   76SLPC  C217 6873   0.588   2.585   8.511 -0.0754 -0.0433 -0.4434
   76SLPC  H17R 6874   0.637   2.500   8.563  1.4877  1.2424  0.2885
   76SLPC  H17S 6875   0.522   2.552   8.428 -0.2980  1.1994 -0.7821
   76SLPC  C218 6876   0.502   2.650   8.621 -0.1512  0.5973 -0.1434
   76SLPC  H18R 6877   0.570   2.704   8.690  1.3075 -1.5660  0.2201
   76SLPC  H18S 6878   0.446   2.577   8.683  0.0151 -0.8748 -1.6251
   76SLPC  H18T 6879   0.428   2.719   8.574 -0.6739  0.6529  0.7501
   76SLPC   C33 6880   1.046   3.390   6.636  0.5174 -0.1130 -0.5021
   76SLPC   H3X 6881   0.959   3.352   6.579 -0.0629  0.1393  0.1981
   76SLPC   H3Y 6882   1.115   3.451   6.573  1.2341  0.9727  1.2693
   76SLPC   C34 6883   1.000   3.471   6.759  0.6806  0.6148 -0.0210
   76SLPC   H4X 6884   0.982   3.575   6.726 -0.8114  1.5899  3.3470
   76SLPC   H4Y 6885   1.074   3.471   6.842 -1.3716 -2.0779  2.0058
   76SLPC   C35 6886   0.858   3.436   6.825 -0.9230  0.0231  0.1849
   76SLPC   H5X 6887   0.845   3.353   6.898 -0.6690  1.7349  2.2746
   76SLPC   H5Y 6888   0.793   3.414   6.738  1.4955 -1.9330 -1.2965
   76SLPC   C36 6889   0.806   3.570   6.889  0.1119 -0.1378  0.3674
   76SLPC   H6X 6890   0.704   3.546   6.925 -0.5930  1.4863 -0.4649
   76SLPC   H6Y 6891   0.778   3.650   6.817  0.4678 -0.6518 -0.3621
   76SLPC   C37 6892   0.896   3.621   6.996 -0.2122  0.1208  0.3864
   76SLPC   H7X 6893   0.845   3.715   7.027 -0.2501 -0.3567  1.8469
   76SLPC   H7Y 6894   0.996   3.656   6.963 -1.1696  2.7375  0.0126
   76SLPC   C38 6895   0.909   3.511   7.101  0.0410  0.3599  0.1017
   76SLPC   H8X 6896   0.982   3.438   7.062  0.0781  1.2350 -1.5718
   76SLPC   H8Y 6897   0.817   3.452   7.123  0.8860 -0.9976  0.1041
   76SLPC   C39 6898   0.968   3.560   7.232 -0.2176  0.5957 -0.0760
   76SLPC   H9X 6899   0.903   3.647   7.260 -0.7512  0.1409  0.1243
   76SLPC   H9Y 6900   1.068   3.608   7.222 -0.3974  0.8615 -0.7139
   76SLPC  C310 6901   0.966   3.456   7.349  0.3697 -0.4507 -0.8454
   76SLPC  H10X 6902   1.031   3.367   7.333  1.4100 -0.6794  3.5120
   76SLPC  H10Y 6903   0.863   3.424   7.374 -0.3496  2.6293  0.7462
   76SLPC  C311 6904   1.027   3.521   7.479 -0.0532 -0.3776 -0.9008
   76SLPC  H11X 6905   0.979   3.619   7.498 -0.6752 -0.7561 -0.4927
   76SLPC  H11Y 6906   1.135   3.541   7.459 -0.0348  0.4569 -0.0336
   76SLPC  C312 6907   1.031   3.440   7.609 -0.0169 -0.0240  0.2892
   76SLPC  H12X 6908   1.094   3.350   7.591 -1.6294 -1.2213  0.3625
   76SLPC  H12Y 6909   0.926   3.411   7.631 -0.1839  0.7032  0.4779
   76SLPC  C313 6910   1.085   3.519   7.728  0.3207 -0.4666  0.0692
   76SLPC  H13X 6911   1.007   3.593   7.756  0.8455  0.6472 -1.2747
   76SLPC  H13Y 6912   1.172   3.578   7.690 -0.0409 -0.4016 -0.6682
   76SLPC  C314 6913   1.130   3.437   7.848 -0.1297  0.1106 -0.2738
   76SLPC  H14X 6914   1.183   3.505   7.918 -0.0709  0.8611 -1.0352
   76SLPC  H14Y 6915   1.203   3.361   7.812  0.5361 -0.6655  2.4645
   76SLPC  C315 6916   1.017   3.354   7.916 -0.1448  0.6434 -0.3548
   76SLPC  H15X 6917   0.959   3.308   7.833  0.5679  0.2395 -0.6406
   76SLPC  H15Y 6918   0.951   3.418   7.979 -2.8064 -1.1792 -1.1405
   76SLPC  C316 6919   1.090   3.245   7.998 -0.9069  0.5560  0.0142
   76SLPC  H16X 6920   1.175   3.293   8.050 -1.1593 -1.7689  2.8147
   76SLPC  H16Y 6921   1.131   3.176   7.922 -0.3821 -0.0972  0.8830
   76SLPC  C317 6922   1.006   3.173   8.096  0.2597  0.3390 -0.8727
   76SLPC  H17X 6923   0.906   3.147   8.057 -1.3152  3.9693  0.3258
   76SLPC  H17Y 6924   0.990   3.245   8.179  0.8613  0.6934 -1.0568
   76SLPC  C318 6925   1.069   3.043   8.144  1.0575 -0.2205  0.4886
   76SLPC  H18X 6926   1.066   2.969   8.061  0.2445 -0.2044  0.4897
   76SLPC  H18Y 6927   1.020   2.997   8.232 -1.5219  1.0359 -0.1773
   76SLPC  H18Z 6928   1.173   3.049   8.181  0.4993  1.8274  1.9267
   77SLPC     N 6929   4.057   3.413   6.133  0.4762 -0.3401 -0.6747
   77SLPC   C13 6930   4.100   3.550   6.175 -0.7059 -0.5166  0.1279
   77SLPC  H13A 6931   4.055   3.555   6.273  3.2619 -0.4815  2.1536
   77SLPC  H13B 6932   4.205   3.574   6.173 -1.0459  1.0582 -1.0517
   77SLPC  H13C 6933   4.059   3.631   6.116 -1.6079  0.3389  1.8329
   77SLPC   C14 6934   4.090   3.393   5.993 -0.4176 -0.2039 -0.1645
   77SLPC  H14A 6935   4.079   3.289   5.968 -2.7670 -0.1340  0.3719
   77SLPC  H14B 6936   4.029   3.455   5.929  0.7683 -0.2619 -1.4049
   77SLPC  H14C 6937   4.191   3.423   5.967 -0.1021  0.3618  1.6191
   77SLPC   C15 6938   3.907   3.414   6.138 -0.0533 -0.3075  0.2533
   77SLPC  H15A 6939   3.870   3.320   6.098  1.7291 -0.5125 -1.0236
   77SLPC  H15B 6940   3.867   3.425   6.237 -0.2487 -0.2607  0.1701
   77SLPC  H15C 6941   3.875   3.495   6.073  2.2379  1.0293  0.6848
   77SLPC   C12 6942   4.101   3.304   6.227  0.0405 -0.1797 -0.3246
   77SLPC  H12A 6943   4.209   3.307   6.220  0.2051 -2.0402  0.6869
   77SLPC  H12B 6944   4.068   3.205   6.198 -0.1150 -0.2269  0.0094
   77SLPC   C11 6945   4.065   3.317   6.378 -0.4632 -0.2109 -0.1117
   77SLPC  H11A 6946   4.081   3.424   6.403 -1.0130  0.5358 -2.6461
   77SLPC  H11B 6947   4.136   3.253   6.435 -0.0356  0.3504 -0.0038
   77SLPC     P 6948   3.866   3.147   6.453 -0.4716 -0.0110  0.2691
   77SLPC   O13 6949   3.749   3.182   6.531  0.2278 -0.2667 -0.3032
   77SLPC   O14 6950   3.830   3.064   6.336  0.2216  0.1692 -0.3974
   77SLPC   O12 6951   3.924   3.281   6.394  0.1830 -0.4036  0.8935
   77SLPC   O11 6952   3.983   3.084   6.536 -0.5768  0.1520 -0.4072
   77SLPC    C1 6953   3.965   2.998   6.646 -0.4687 -0.0795 -0.1428
   77SLPC    HA 6954   4.058   2.991   6.707  1.5533 -1.6619 -3.1092
   77SLPC    HB 6955   3.886   3.030   6.717 -1.8451  0.4225 -1.8135
   77SLPC    C2 6956   3.948   2.851   6.604  0.0349 -0.2468 -0.1078
   77SLPC    HS 6957   3.873   2.847   6.522 -0.8036  2.0239  0.4716
   77SLPC   O21 6958   3.905   2.767   6.708  0.2454  0.1543 -0.1487
   77SLPC   C21 6959   3.772   2.766   6.750 -0.2046  0.4950  0.0486
   77SLPC   O22 6960   3.690   2.839   6.693  0.6799  0.3557  0.2205
   77SLPC   C22 6961   3.762   2.677   6.870  0.6205  0.5316 -0.0970
   77SLPC   H2R 6962   3.785   2.582   6.819  0.9156  1.4253 -1.6959
   77SLPC   H2S 6963   3.844   2.709   6.939  2.3789 -0.3995 -1.6761
   77SLPC    C3 6964   4.083   2.805   6.561  0.0344 -0.2187  0.3695
   77SLPC    HX 6965   4.128   2.871   6.484  1.1779 -0.1061  1.1092
   77SLPC    HY 6966   4.063   2.706   6.514  0.7799 -0.5975  0.8390
   77SLPC   O31 6967   4.173   2.802   6.672  0.0405  0.1673  0.1014
   77SLPC   C31 6968   4.209   2.677   6.709 -0.4183  0.4141 -0.0912
   77SLPC   O32 6969   4.184   2.577   6.641 -0.0442 -0.0141 -0.6249
   77SLPC   C32 6970   4.294   2.687   6.837  0.3577  0.6495  0.3994
   77SLPC   H2X 6971   4.277   2.787   6.883 -4.5622 -0.4030  1.4334
   77SLPC   H2Y 6972   4.401   2.688   6.808  1.1507 -0.3246  2.9599
   77SLPC   C23 6973   3.621   2.669   6.929  0.6508  0.2474  0.3445
   77SLPC   H3R 6974   3.603   2.562   6.953 -0.5717  0.0925 -1.1096
   77SLPC   H3S 6975   3.538   2.686   6.857  0.0469 -2.3894  0.3165
   77SLPC   C24 6976   3.600   2.752   7.047  0.0952  0.2380  0.6780
   77SLPC   H4R 6977   3.630   2.857   7.026  2.2269  0.1655  2.9225
   77SLPC   H4S 6978   3.668   2.720   7.129 -0.2378 -0.9602  0.5137
   77SLPC   C25 6979   3.452   2.767   7.083 -0.6133 -0.2419  0.2168
   77SLPC   H5R 6980   3.409   2.674   7.124  0.3297 -1.9233 -2.3837
   77SLPC   H5S 6981   3.392   2.791   6.993 -0.2841 -2.9825 -0.8075
   77SLPC   C26 6982   3.432   2.873   7.193 -0.2902 -0.5534  0.3918
   77SLPC   H6R 6983   3.324   2.889   7.211  0.2710  0.6176  3.3594
   77SLPC   H6S 6984   3.470   2.970   7.153 -0.9667 -0.1710  0.6676
   77SLPC   C27 6985   3.509   2.844   7.325  0.1601  0.3769  0.5005
   77SLPC   H7R 6986   3.618   2.868   7.334  0.2106  0.6946 -0.7670
   77SLPC   H7S 6987   3.509   2.733   7.334 -1.2514  0.4017  0.9883
   77SLPC   C28 6988   3.447   2.919   7.444  0.0658 -0.3907 -0.2023
   77SLPC   H8R 6989   3.337   2.906   7.438  0.0561  0.2853 -1.7770
   77SLPC   H8S 6990   3.457   3.028   7.430  1.3179 -0.5445 -0.5868
   77SLPC   C29 6991   3.500   2.871   7.584  0.2646 -0.3372  0.9007
   77SLPC   H9R 6992   3.457   2.784   7.635  2.3170 -3.1486 -1.8127
   77SLPC  C210 6993   3.612   2.930   7.631  0.1481 -0.1273 -0.5248
   77SLPC  H10R 6994   3.647   2.879   7.721 -0.5069 -1.3445 -0.9377
   77SLPC  C211 6995   3.688   3.049   7.571 -0.3637 -0.0986 -0.2980
   77SLPC  H11R 6996   3.688   3.134   7.642 -1.5592  0.8207 -1.3544
   77SLPC  H11S 6997   3.651   3.081   7.471  0.4821 -0.1810 -0.6486
   77SLPC  C212 6998   3.834   3.003   7.558  0.3144  0.4229 -0.0078
   77SLPC  H12R 6999   3.894   2.980   7.648  0.8185 -1.0882 -0.7043
   77SLPC  C213 7000   3.902   2.991   7.438  0.2758  0.0655 -0.8540
   77SLPC  H13R 7001   4.011   2.981   7.447  0.1041 -1.3170 -0.0066
   77SLPC  C214 7002   3.851   3.015   7.303  0.2807 -0.3315  0.6145
   77SLPC  H14R 7003   3.760   3.078   7.313 -0.4405 -1.4337  1.1594
   77SLPC  H14S 7004   3.814   2.915   7.273  0.6696 -0.3336  0.1132
   77SLPC  C215 7005   3.955   3.073   7.203  0.0590  0.6034  1.2081
   77SLPC  H15R 7006   4.046   3.009   7.206  0.2579  0.7600 -0.3067
   77SLPC  H15S 7007   3.998   3.170   7.235 -0.8113  0.4068  3.0382
   77SLPC  C216 7008   3.898   3.081   7.060 -0.3061  0.3329  0.3642
   77SLPC  H16R 7009   3.848   2.986   7.033 -0.3414  0.1525  1.0486
   77SLPC  H16S 7010   3.980   3.091   6.986 -1.4054 -0.7168 -1.0466
   77SLPC  C217 7011   3.789   3.186   7.031  0.3434 -0.6519 -0.0850
   77SLPC  H17R 7012   3.832   3.287   7.050  2.8378 -1.4652 -1.0316
   77SLPC  H17S 7013   3.706   3.166   7.102  1.0715 -1.0135  0.6859
   77SLPC  C218 7014   3.728   3.190   6.883 -0.1875 -0.2984 -0.1247
   77SLPC  H18R 7015   3.695   3.085   6.867 -0.6470  0.0108 -1.2510
   77SLPC  H18S 7016   3.809   3.215   6.810 -0.0670 -0.0602  0.0878
   77SLPC  H18T 7017   3.640   3.256   6.871  0.5118  0.6936  0.0056
   77SLPC   C33 7018   4.265   2.576   6.935 -0.2569  0.3753 -0.2703
   77SLPC   H3X 7019   4.341   2.586   7.015 -0.4480 -1.3825  0.1852
   77SLPC   H3Y 7020   4.281   2.476   6.889 -0.4077 -1.0683  2.5725
   77SLPC   C34 7021   4.124   2.575   6.998  0.0585  0.8033 -1.1024
   77SLPC   H4X 7022   4.094   2.488   7.060  3.3303  0.6902  0.5097
   77SLPC   H4Y 7023   4.051   2.577   6.914 -3.0025 -3.1089  1.1236
   77SLPC   C35 7024   4.108   2.696   7.096  0.0426  0.1734 -0.1556
   77SLPC   H5X 7025   4.052   2.770   7.036  0.0704  1.0693  0.8967
   77SLPC   H5Y 7026   4.210   2.732   7.121 -1.1150  0.9862  4.3491
   77SLPC   C36 7027   4.037   2.670   7.235  0.1795 -0.8961  0.1643
   77SLPC   H6X 7028   3.958   2.593   7.228  1.6168 -2.3157 -1.5741
   77SLPC   H6Y 7029   3.988   2.766   7.261 -1.4159 -1.2914 -1.2076
   77SLPC   C37 7030   4.143   2.641   7.342 -0.2100  0.0358 -0.7765
   77SLPC   H7X 7031   4.212   2.726   7.366  0.2073 -0.5702  0.2215
   77SLPC   H7Y 7032   4.214   2.560   7.315  1.1077  0.9397 -0.1555
   77SLPC   C38 7033   4.076   2.592   7.480  0.1039 -0.1879  0.1416
   77SLPC   H8X 7034   4.018   2.498   7.477  0.2522 -0.2612 -0.5801
   77SLPC   H8Y 7035   4.014   2.682   7.497  0.9223  0.5506 -0.6436
   77SLPC   C39 7036   4.179   2.593   7.594 -0.2564  0.1549  0.1331
   77SLPC   H9X 7037   4.235   2.688   7.596 -1.1173  0.7840 -2.1738
   77SLPC   H9Y 7038   4.243   2.505   7.573 -0.1679  0.4899 -1.0900
   77SLPC  C310 7039   4.104   2.594   7.730 -0.0801 -0.3663 -0.1571
   77SLPC  H10X 7040   4.077   2.499   7.780  0.2900 -0.1740  0.4056
   77SLPC  H10Y 7041   4.006   2.639   7.702 -0.4286  0.2510  1.8856
   77SLPC  C311 7042   4.173   2.677   7.843  0.1283  0.2949 -0.1635
   77SLPC  H11X 7043   4.187   2.779   7.801 -0.2050  0.9113  1.1780
   77SLPC  H11Y 7044   4.275   2.640   7.866  0.0776 -0.2946 -0.8364
   77SLPC  C312 7045   4.100   2.675   7.972  0.0643 -0.3168  0.1623
   77SLPC  H12X 7046   4.086   2.573   8.012 -1.5626 -0.5599 -0.9371
   77SLPC  H12Y 7047   3.998   2.716   7.954 -0.4870 -1.5867  0.2882
   77SLPC  C313 7048   4.152   2.746   8.100 -0.7117 -0.0291 -0.1466
   77SLPC  H13X 7049   4.152   2.857   8.094 -0.2637  0.0898  1.4627
   77SLPC  H13Y 7050   4.258   2.714   8.108 -1.1727 -1.2441  1.8250
   77SLPC  C314 7051   4.084   2.694   8.226 -0.3283  0.7218  0.2980
   77SLPC  H14X 7052   4.146   2.721   8.314  0.8236  4.1448 -1.3855
   77SLPC  H14Y 7053   4.091   2.583   8.219 -0.3738  0.7473 -0.2416
   77SLPC  C315 7054   3.937   2.727   8.246  0.0672  0.2905 -0.2031
   77SLPC  H15X 7055   3.880   2.709   8.153  1.0643  1.4269 -1.0636
   77SLPC  H15Y 7056   3.942   2.836   8.266  0.7404  0.2571 -0.1626
   77SLPC  C316 7057   3.881   2.634   8.360  0.2956 -0.4600 -0.7738
   77SLPC  H16X 7058   3.922   2.670   8.457  1.1705 -1.2112 -0.8546
   77SLPC  H16Y 7059   3.923   2.533   8.342  0.7914 -0.3466 -0.2633
   77SLPC  C317 7060   3.728   2.636   8.356  0.1324  0.2132  0.5058
   77SLPC  H17X 7061   3.693   2.603   8.256 -2.0556  0.4665  1.1343
   77SLPC  H17Y 7062   3.711   2.745   8.368 -1.8956  0.0489 -0.3580
   77SLPC  C318 7063   3.666   2.560   8.472  0.3337  0.2483 -0.7062
   77SLPC  H18X 7064   3.555   2.569   8.474  0.3372  0.6753 -1.6495
   77SLPC  H18Y 7065   3.704   2.598   8.569 -2.5610  1.2350  0.1462
   77SLPC  H18Z 7066   3.678   2.450   8.464  0.2796  0.1065  0.8996
   78SLPC     N 7067   6.254   2.043   5.954  0.7903  0.0863  0.0754
   78SLPC   C13 7068   6.173   2.147   5.877 -0.3086 -0.2759  0.1637
   78SLPC  H13A 7069   6.222   2.149   5.781 -1.4107 -1.9626 -0.4851
   78SLPC  H13B 7070   6.070   2.116   5.864  0.1165 -1.0109 -1.8135
   78SLPC  H13C 7071   6.170   2.244   5.925  0.1484  0.6395 -1.5977
   78SLPC   C14 7072   6.396   2.091   5.971 -0.3187  0.0348  0.5722
   78SLPC  H14A 7073   6.457   2.010   6.009 -0.9854 -0.7094  0.0862
   78SLPC  H14B 7074   6.440   2.118   5.876 -0.7281  1.7125  0.8279
   78SLPC  H14C 7075   6.407   2.168   6.046  2.8490  0.3704 -0.0887
   78SLPC   C15 7076   6.253   1.914   5.880 -0.2170  0.0279  0.1926
   78SLPC  H15A 7077   6.311   1.924   5.790 -1.2947 -1.7167 -0.7588
   78SLPC  H15B 7078   6.312   1.846   5.941 -0.9381  0.7653  1.7803
   78SLPC  H15C 7079   6.161   1.863   5.855  1.4187 -2.9937 -0.0952
   78SLPC   C12 7080   6.191   2.010   6.091 -0.3799 -0.1464 -0.2930
   78SLPC  H12A 7081   6.195   2.102   6.147 -0.1860  0.3209 -1.0565
   78SLPC  H12B 7082   6.255   1.939   6.142  0.9769 -1.2164 -3.2756
   78SLPC   C11 7083   6.045   1.964   6.097  0.2323  0.2773 -0.7508
   78SLPC  H11A 7084   5.998   2.036   6.027  0.3428 -0.0428 -1.1588
   78SLPC  H11B 7085   6.001   1.977   6.198 -1.1626 -1.4325 -1.0729
   78SLPC     P 7086   6.090   1.706   6.119  0.1763 -0.2311  0.4250
   78SLPC   O13 7087   6.043   1.584   6.059 -0.0494 -0.0677 -0.1287
   78SLPC   O14 7088   6.238   1.729   6.120 -0.0599 -0.1660  0.2039
   78SLPC   O12 7089   6.026   1.830   6.042  1.1292 -0.2511  0.0636
   78SLPC   O11 7090   6.028   1.716   6.261 -0.7191  0.1223  0.4165
   78SLPC    C1 7091   6.107   1.764   6.372  0.4578  0.0074  0.0023
   78SLPC    HA 7092   6.188   1.833   6.342  0.5613 -0.7855 -1.6513
   78SLPC    HB 7093   6.039   1.813   6.445  0.3393 -1.1463  0.6904
   78SLPC    C2 7094   6.186   1.648   6.440  0.5532 -0.3258  0.1509
   78SLPC    HS 7095   6.241   1.605   6.354  1.0764 -1.8787  1.1929
   78SLPC   O21 7096   6.091   1.553   6.498 -0.6655 -0.3792 -0.5248
   78SLPC   C21 7097   6.135   1.433   6.517  0.4637 -0.0091  0.5442
   78SLPC   O22 7098   6.247   1.399   6.492  0.0911 -0.0749  0.1803
   78SLPC   C22 7099   6.018   1.333   6.565  0.0890  0.1647  0.6756
   78SLPC   H2R 7100   5.942   1.395   6.618 -0.2295 -0.2212  0.6675
   78SLPC   H2S 7101   5.975   1.284   6.475 -0.4036 -0.6441  1.3419
   78SLPC    C3 7102   6.286   1.707   6.546 -0.3722  0.1414 -0.1274
   78SLPC    HX 7103   6.333   1.797   6.500  0.5529  0.3416  1.1444
   78SLPC    HY 7104   6.373   1.639   6.553  1.8875  2.7685 -1.0621
   78SLPC   O31 7105   6.224   1.750   6.671  0.7012 -0.3189 -0.1977
   78SLPC   C31 7106   6.236   1.665   6.768  0.0616  0.1163 -0.6534
   78SLPC   O32 7107   6.284   1.551   6.754 -0.6768 -0.0244  0.0067
   78SLPC   C32 7108   6.188   1.725   6.894  0.0137 -0.4823 -0.5635
   78SLPC   H2X 7109   6.077   1.722   6.882 -0.0960 -0.9746  0.4574
   78SLPC   H2Y 7110   6.210   1.833   6.906 -1.8350 -0.2094  1.0257
   78SLPC   C23 7111   6.063   1.222   6.664 -0.1831  0.4662  0.1446
   78SLPC   H3R 7112   6.152   1.160   6.635 -0.9170 -0.7448  0.3964
   78SLPC   H3S 7113   5.983   1.145   6.673  1.2167 -0.9325  1.1644
   78SLPC   C24 7114   6.071   1.275   6.805  0.1878  0.2142  0.5816
   78SLPC   H4R 7115   5.968   1.296   6.840 -0.2441  0.1612 -0.5986
   78SLPC   H4S 7116   6.120   1.375   6.806 -1.8274  1.2547  0.4079
   78SLPC   C25 7117   6.133   1.177   6.912  0.2451 -0.5130  0.5286
   78SLPC   H5R 7118   6.233   1.136   6.885  0.2842 -0.1519  0.1158
   78SLPC   H5S 7119   6.054   1.099   6.911 -0.4679  0.1690  1.9189
   78SLPC   C26 7120   6.138   1.224   7.059 -0.5159 -0.5049 -0.6468
   78SLPC   H6R 7121   6.060   1.300   7.080  1.5211  1.4107  0.3883
   78SLPC   H6S 7122   6.236   1.275   7.076 -1.8246  2.3534 -1.0666
   78SLPC   C27 7123   6.133   1.112   7.160  0.5242  0.4504  0.5776
   78SLPC   H7R 7124   6.208   1.031   7.148  1.1906  1.0422  0.6592
   78SLPC   H7S 7125   6.029   1.074   7.151  0.2256  1.3517  0.0650
   78SLPC   C28 7126   6.158   1.167   7.304 -0.2370  0.1479  1.2283
   78SLPC   H8R 7127   6.082   1.247   7.305 -1.2388 -0.6861 -1.2893
   78SLPC   H8S 7128   6.262   1.205   7.315  0.5637 -0.8672 -1.8736
   78SLPC   C29 7129   6.130   1.058   7.409 -0.1759 -0.3780 -0.0017
   78SLPC   H9R 7130   6.182   0.962   7.395  3.6004  1.4896 -0.1332
   78SLPC  C210 7131   6.060   1.071   7.525 -0.4669  0.1756 -0.3406
   78SLPC  H10R 7132   6.046   0.986   7.594 -0.9591  0.6072  0.0952
   78SLPC  C211 7133   5.985   1.193   7.570  0.0129  0.3938  0.2387
   78SLPC  H11R 7134   5.950   1.261   7.490  2.5287  0.7047 -0.6760
   78SLPC  H11S 7135   6.060   1.247   7.632 -0.0861 -1.0823  1.6966
   78SLPC  C212 7136   5.880   1.156   7.670  0.3881  0.0530  0.5199
   78SLPC  H12R 7137   5.777   1.171   7.636  2.0501  4.1110 -3.8971
   78SLPC  C213 7138   5.897   1.118   7.802  0.2229  0.6016  0.7058
   78SLPC  H13R 7139   5.810   1.086   7.861 -0.7115 -1.1734 -1.4645
   78SLPC  C214 7140   6.032   1.096   7.866  0.0634 -0.2488 -0.1884
   78SLPC  H14R 7141   6.062   1.168   7.945  0.9082 -1.7586  0.9258
   78SLPC  H14S 7142   6.118   1.105   7.797  0.4421 -2.1813 -0.0114
   78SLPC  C215 7143   6.066   0.949   7.916  0.1105 -0.7360 -0.3263
   78SLPC  H15R 7144   6.073   0.890   7.823  0.2580 -0.4291 -0.5134
   78SLPC  H15S 7145   5.980   0.919   7.979 -0.1919  1.8745  0.6309
   78SLPC  C216 7146   6.208   0.949   7.980  0.5259  0.0768  0.0620
   78SLPC  H16R 7147   6.200   1.005   8.076 -0.5715 -0.4035  0.2665
   78SLPC  H16S 7148   6.279   1.020   7.932  1.4035 -1.4083 -0.9263
   78SLPC  C217 7149   6.267   0.813   8.001 -0.3795  0.2604 -0.2451
   78SLPC  H17R 7150   6.281   0.776   7.897  1.6516  0.6331 -0.1516
   78SLPC  H17S 7151   6.200   0.742   8.055 -0.2404  0.3610  0.0629
   78SLPC  C218 7152   6.409   0.814   8.078  0.1518 -0.0682  0.4037
   78SLPC  H18R 7153   6.427   0.710   8.111  2.8317 -0.2990 -1.4970
   78SLPC  H18S 7154   6.409   0.872   8.173 -0.3080  1.6175 -0.5744
   78SLPC  H18T 7155   6.491   0.860   8.019  2.2387 -1.3112  2.2122
   78SLPC   C33 7156   6.225   1.643   7.017  0.0171  0.3639 -0.4098
   78SLPC   H3X 7157   6.336   1.638   7.027 -0.1934 -0.7553  2.2536
   78SLPC   H3Y 7158   6.185   1.541   7.000  0.7852  0.1496 -0.9772
   78SLPC   C34 7159   6.145   1.702   7.143  0.1423 -0.5736  0.7850
   78SLPC   H4X 7160   6.040   1.686   7.111 -0.6052  2.3200  1.4598
   78SLPC   H4Y 7161   6.178   1.808   7.148  0.5342 -0.6933  0.7539
   78SLPC   C35 7162   6.181   1.631   7.276 -1.1904  0.1688 -0.7291
   78SLPC   H5X 7163   6.279   1.677   7.302 -2.2585  1.2180  1.7122
   78SLPC   H5Y 7164   6.185   1.521   7.264 -1.3160  0.0205  0.5271
   78SLPC   C36 7165   6.094   1.666   7.385 -0.3613  0.0182  0.4773
   78SLPC   H6X 7166   5.997   1.612   7.387 -0.6058  0.3289 -1.3436
   78SLPC   H6Y 7167   6.071   1.773   7.365 -0.6714 -0.3358 -1.2380
   78SLPC   C37 7168   6.161   1.678   7.529  0.3285 -0.0615  0.1667
   78SLPC   H7X 7169   6.258   1.731   7.532  0.8150 -0.9723  2.3819
   78SLPC   H7Y 7170   6.202   1.578   7.552  2.4638  0.9271  0.9500
   78SLPC   C38 7171   6.068   1.734   7.634 -0.3870 -0.1674 -0.6976
   78SLPC   H8X 7172   5.976   1.673   7.628 -0.0449 -0.5481 -2.5933
   78SLPC   H8Y 7173   6.025   1.830   7.598 -2.1201 -0.4507  0.5175
   78SLPC   C39 7174   6.130   1.744   7.768 -0.1598  0.2814  0.5413
   78SLPC   H9X 7175   6.052   1.772   7.841 -0.5212  1.3971 -0.2630
   78SLPC   H9Y 7176   6.210   1.820   7.758  1.6367 -1.3630  1.5636
   78SLPC  C310 7177   6.179   1.615   7.828  0.3819  0.2828  0.1726
   78SLPC  H10X 7178   6.263   1.566   7.775 -1.8229 -1.0116 -2.4057
   78SLPC  H10Y 7179   6.091   1.547   7.821 -0.5943  1.5976 -1.0418
   78SLPC  C311 7180   6.227   1.635   7.974 -0.0948 -0.5661 -0.4792
   78SLPC  H11X 7181   6.237   1.542   8.034 -0.7754 -0.9119 -0.8920
   78SLPC  H11Y 7182   6.162   1.707   8.028  0.8513  0.3282 -0.4906
   78SLPC  C312 7183   6.373   1.685   7.976 -0.3331  0.4172  0.3230
   78SLPC  H12X 7184   6.385   1.769   7.904 -1.2059 -0.7617 -1.2707
   78SLPC  H12Y 7185   6.441   1.607   7.937 -0.5488  0.9287 -1.1410
   78SLPC  C313 7186   6.404   1.729   8.121 -0.8370 -0.8482  0.1629
   78SLPC  H13X 7187   6.396   1.637   8.182 -1.2360 -0.6463  0.4121
   78SLPC  H13Y 7188   6.327   1.796   8.163  0.5802  1.9724 -1.3742
   78SLPC  C314 7189   6.544   1.798   8.130 -0.5229 -0.2113 -0.3067
   78SLPC  H14X 7190   6.557   1.888   8.066 -3.2947  0.4765 -0.0204
   78SLPC  H14Y 7191   6.618   1.723   8.095 -0.5362  0.5819 -2.1365
   78SLPC  C315 7192   6.576   1.835   8.274  0.3401 -0.1836  0.3934
   78SLPC  H15X 7193   6.681   1.815   8.303 -0.0580 -0.2730  1.8404
   78SLPC  H15Y 7194   6.514   1.766   8.333 -1.2169  2.4638  2.0327
   78SLPC  C316 7195   6.529   1.975   8.322 -0.5541  0.1124  0.3290
   78SLPC  H16X 7196   6.425   1.988   8.287  0.0168  0.9673 -1.1416
   78SLPC  H16Y 7197   6.589   2.060   8.284 -1.8543  0.8312 -0.1714
   78SLPC  C317 7198   6.525   1.978   8.478  0.0391 -0.0635  0.2431
   78SLPC  H17X 7199   6.626   1.957   8.517 -0.4878  0.7195  2.1238
   78SLPC  H17Y 7200   6.450   1.907   8.519 -0.6961  0.1240 -0.7244
   78SLPC  C318 7201   6.479   2.117   8.529  0.2868  0.9182  0.0030
   78SLPC  H18X 7202   6.454   2.129   8.637  2.1672  1.4919  0.4038
   78SLPC  H18Y 7203   6.387   2.150   8.475  1.4417  3.1855 -0.7178
   78SLPC  H18Z 7204   6.567   2.181   8.508  1.2859 -0.2760  0.4495
   79SLPC     N 7205   3.472   5.421   6.275  0.4249 -0.1804 -0.2241
   79SLPC   C13 7206   3.358   5.475   6.356  0.0822 -0.0786  0.2717
   79SLPC  H13A 7207   3.388   5.552   6.426 -0.8192 -0.2775  0.8914
   79SLPC  H13B 7208   3.282   5.509   6.288 -0.2774  0.4097  0.9093
   79SLPC  H13C 7209   3.311   5.398   6.415  0.0410  0.3174  0.7652
   79SLPC   C14 7210   3.488   5.523   6.170 -0.4118  0.3043  0.0828
   79SLPC  H14A 7211   3.499   5.618   6.219 -0.9696  0.4601 -0.0864
   79SLPC  H14B 7212   3.576   5.506   6.110 -0.6439  1.2757 -0.5455
   79SLPC  H14C 7213   3.397   5.535   6.112  1.2404 -0.0487 -2.7734
   79SLPC   C15 7214   3.427   5.299   6.211 -1.2337  0.5800 -0.1895
   79SLPC  H15A 7215   3.405   5.228   6.289  3.9829  0.4638  1.5817
   79SLPC  H15B 7216   3.336   5.307   6.153 -1.8840 -0.6488  0.6127
   79SLPC  H15C 7217   3.507   5.253   6.154  0.0599  0.6801  1.4541
   79SLPC   C12 7218   3.588   5.411   6.371  0.7240  0.4102 -0.2372
   79SLPC  H12A 7219   3.606   5.515   6.396  0.1801  0.4566 -0.0325
   79SLPC  H12B 7220   3.672   5.378   6.311  0.4926 -1.4965  0.4156
   79SLPC   C11 7221   3.574   5.315   6.497  0.3235 -0.0345 -0.3132
   79SLPC  H11A 7222   3.502   5.365   6.565 -0.0819  0.2993 -0.9778
   79SLPC  H11B 7223   3.667   5.299   6.555  0.0455 -0.0944  0.1125
   79SLPC     P 7224   3.602   5.073   6.418  0.4575 -0.1937  0.0744
   79SLPC   O13 7225   3.518   4.965   6.371  0.4869  0.3594  0.3471
   79SLPC   O14 7226   3.715   5.121   6.337 -0.1910  0.0125  0.5740
   79SLPC   O12 7227   3.513   5.189   6.459 -0.5103 -0.1332 -0.1132
   79SLPC   O11 7228   3.666   5.024   6.559  0.4375  0.0330  0.3290
   79SLPC    C1 7229   3.588   5.040   6.677  0.1133 -1.0153  0.0742
   79SLPC    HA 7230   3.586   5.149   6.696  2.7813 -1.1487  1.6016
   79SLPC    HB 7231   3.490   4.990   6.658 -1.4659  2.3788 -1.6181
   79SLPC    C2 7232   3.667   4.988   6.800 -0.4646  0.2977  0.1634
   79SLPC    HS 7233   3.659   4.877   6.805  0.4622 -0.0102 -3.0481
   79SLPC   O21 7234   3.620   5.046   6.923  0.9528 -0.3956 -1.0335
   79SLPC   C21 7235   3.504   4.999   6.970  0.2732  0.2551 -0.3420
   79SLPC   O22 7236   3.462   4.890   6.941 -0.2921  0.5182  0.3175
   79SLPC   C22 7237   3.436   5.086   7.069 -0.4646  0.4114 -0.8854
   79SLPC   H2R 7238   3.445   5.188   7.026 -0.8919 -0.1018 -2.2498
   79SLPC   H2S 7239   3.328   5.060   7.067 -1.2797  3.4301 -1.7535
   79SLPC    C3 7240   3.818   5.022   6.790 -0.7403  0.1879 -0.7932
   79SLPC    HX 7241   3.837   5.129   6.768 -0.4591  0.3457  0.1725
   79SLPC    HY 7242   3.853   4.963   6.702  0.2019 -0.4594 -0.0141
   79SLPC   O31 7243   3.892   4.982   6.914 -0.2169  0.1176  0.1843
   79SLPC   C31 7244   3.940   5.079   6.986 -0.1779 -0.5526 -0.2568
   79SLPC   O32 7245   3.968   5.196   6.947  0.3797  0.1522  0.2113
   79SLPC   C32 7246   3.951   5.030   7.135 -0.2660 -0.3530  0.3969
   79SLPC   H2X 7247   4.045   4.971   7.139 -1.1010 -1.6895  1.1630
   79SLPC   H2Y 7248   3.867   4.970   7.175 -3.2104  2.7899 -0.5816
   79SLPC   C23 7249   3.494   5.070   7.217  0.5706 -0.2929  1.1069
   79SLPC   H3R 7250   3.438   5.147   7.274 -1.1075  0.4425 -1.3805
   79SLPC   H3S 7251   3.604   5.081   7.210  0.6873 -2.0019 -4.3642
   79SLPC   C24 7252   3.450   4.937   7.276  0.5614 -0.1230  0.1468
   79SLPC   H4R 7253   3.467   4.857   7.202  2.1319  1.3691 -1.1889
   79SLPC   H4S 7254   3.340   4.947   7.286  0.1819 -1.5432 -2.1293
   79SLPC   C25 7255   3.522   4.896   7.404  0.1307  0.1910 -0.1720
   79SLPC   H5R 7256   3.627   4.872   7.380  0.5165 -0.9449  2.2980
   79SLPC   H5S 7257   3.474   4.803   7.443  1.0638 -0.4427 -0.5241
   79SLPC   C26 7258   3.525   5.002   7.521 -0.4249  0.2447 -0.6303
   79SLPC   H6R 7259   3.428   5.047   7.552 -1.5187 -2.4752  0.2491
   79SLPC   H6S 7260   3.595   5.084   7.495  3.6315 -1.1049  4.3339
   79SLPC   C27 7261   3.594   4.936   7.642 -0.7627 -0.3427  0.2712
   79SLPC   H7R 7262   3.697   4.910   7.610 -1.4042 -0.5518 -1.8274
   79SLPC   H7S 7263   3.540   4.842   7.666 -1.3760 -0.4882 -1.4799
   79SLPC   C28 7264   3.599   5.023   7.765 -0.4025 -0.0842 -0.3816
   79SLPC   H8R 7265   3.669   5.107   7.747  1.9232 -2.2105 -1.8796
   79SLPC   H8S 7266   3.653   4.961   7.839  0.7486  0.0797 -1.0738
   79SLPC   C29 7267   3.466   5.071   7.838  0.1239  0.0339 -0.3305
   79SLPC   H9R 7268   3.393   5.135   7.785 -0.4670 -0.7236 -0.4539
   79SLPC  C210 7269   3.436   5.038   7.966 -0.2753 -0.1565 -1.0590
   79SLPC  H10R 7270   3.340   5.067   8.012 -0.5280 -1.5909 -0.6272
   79SLPC  C211 7271   3.517   4.956   8.062 -0.5911  0.8019  0.2963
   79SLPC  H11R 7272   3.463   4.950   8.160 -2.7145 -1.7101 -0.8972
   79SLPC  H11S 7273   3.617   5.000   8.081  0.1593 -0.3302 -0.9000
   79SLPC  C212 7274   3.532   4.807   8.012 -0.2671 -0.0235 -0.2808
   79SLPC  H12R 7275   3.435   4.771   7.975  0.5263 -0.7140 -1.7998
   79SLPC  C213 7276   3.642   4.735   8.008  0.0064 -0.1803 -0.6333
   79SLPC  H13R 7277   3.632   4.636   7.962 -1.7732  0.4979 -1.7767
   79SLPC  C214 7278   3.786   4.790   8.033 -0.2254 -0.3512  0.2856
   79SLPC  H14R 7279   3.810   4.746   8.132 -0.1902  0.4783  0.6512
   79SLPC  H14S 7280   3.787   4.901   8.041 -1.7577 -0.3180  0.2632
   79SLPC  C215 7281   3.901   4.745   7.938 -0.6433 -0.0242  0.2646
   79SLPC  H15R 7282   3.894   4.634   7.940  0.0342 -0.0639  1.0555
   79SLPC  H15S 7283   3.992   4.766   7.998  0.8297 -1.8852 -1.1784
   79SLPC  C216 7284   3.904   4.809   7.799  0.1990 -0.7602  0.1226
   79SLPC  H16R 7285   3.883   4.918   7.803 -0.2428 -0.7947 -0.9088
   79SLPC  H16S 7286   3.819   4.760   7.747  0.2107 -0.7579  0.1009
   79SLPC  C217 7287   4.031   4.798   7.716 -0.3344 -0.6020 -0.2248
   79SLPC  H17R 7288   4.067   4.694   7.731  0.9222 -0.0463  0.7781
   79SLPC  H17S 7289   4.123   4.852   7.749 -1.7933  0.9464  1.5580
   79SLPC  C218 7290   4.001   4.835   7.576  0.4442 -0.4127  0.3656
   79SLPC  H18R 7291   3.960   4.937   7.562  1.3958 -0.0095  0.4651
   79SLPC  H18S 7292   3.938   4.750   7.541  3.1865 -2.1526 -0.6917
   79SLPC  H18T 7293   4.094   4.832   7.516  0.4954 -2.6355  0.4473
   79SLPC   C33 7294   3.983   5.152   7.226  0.2684  0.9339  0.3144
   79SLPC   H3X 7295   3.918   5.239   7.204  1.0660  1.0611 -1.7507
   79SLPC   H3Y 7296   4.082   5.192   7.195  1.1991 -2.2847 -1.2553
   79SLPC   C34 7297   3.980   5.111   7.371 -0.3794 -0.3694  0.1922
   79SLPC   H4X 7298   4.068   5.046   7.391 -1.6359 -2.3449 -0.4966
   79SLPC   H4Y 7299   3.884   5.066   7.405 -0.7621 -0.4687 -0.9720
   79SLPC   C35 7300   4.017   5.236   7.452  0.2941  0.4078 -0.1444
   79SLPC   H5X 7301   3.948   5.321   7.433 -0.9690 -0.9126 -1.7387
   79SLPC   H5Y 7302   4.111   5.278   7.411 -0.2403  0.3612 -1.4757
   79SLPC   C36 7303   4.049   5.205   7.596 -0.1765 -0.4370  0.2026
   79SLPC   H6X 7304   4.127   5.280   7.623 -0.9097  0.5254 -0.2986
   79SLPC   H6Y 7305   4.104   5.110   7.610  0.3179 -0.2375 -0.3372
   79SLPC   C37 7306   3.924   5.209   7.690  0.2706  0.3095  0.2313
   79SLPC   H7X 7307   3.914   5.101   7.716 -0.6270  0.2628 -0.2485
   79SLPC   H7Y 7308   3.824   5.236   7.649  0.2526 -0.0143  0.0548
   79SLPC   C38 7309   3.956   5.276   7.822  0.5317  0.3279 -0.0995
   79SLPC   H8X 7310   3.965   5.385   7.804 -0.6544  0.6154  0.9063
   79SLPC   H8Y 7311   4.056   5.237   7.852  1.0790  0.6746 -1.3812
   79SLPC   C39 7312   3.847   5.253   7.923  0.1114 -0.1682  0.1216
   79SLPC   H9X 7313   3.839   5.146   7.953 -0.6457  0.2083  1.3421
   79SLPC   H9Y 7314   3.754   5.292   7.875  0.2895  1.3888  0.9950
   79SLPC  C310 7315   3.873   5.337   8.052 -0.6993 -0.8035 -0.2827
   79SLPC  H10X 7316   3.874   5.441   8.012 -0.9148 -0.5643  0.3147
   79SLPC  H10Y 7317   3.976   5.314   8.087 -0.2981 -1.6678 -1.9289
   79SLPC  C311 7318   3.758   5.354   8.153 -0.2646  0.0414  0.3840
   79SLPC  H11X 7319   3.677   5.411   8.103  0.9957  0.7569 -0.9155
   79SLPC  H11Y 7320   3.804   5.419   8.230 -0.6698 -1.4464  1.9459
   79SLPC  C312 7321   3.698   5.239   8.222 -0.1425  0.8777 -0.4397
   79SLPC  H12X 7322   3.631   5.189   8.148 -1.6382  0.8188  0.9114
   79SLPC  H12Y 7323   3.637   5.275   8.308  0.5522 -0.4185  0.6251
   79SLPC  C313 7324   3.795   5.138   8.277  0.0822  0.3884  0.0582
   79SLPC  H13X 7325   3.846   5.094   8.189 -0.4631  1.2698 -0.7180
   79SLPC  H13Y 7326   3.737   5.056   8.325  2.1936 -0.0783  1.9942
   79SLPC  C314 7327   3.890   5.203   8.388 -0.8648 -0.0986 -0.1965
   79SLPC  H14X 7328   3.847   5.291   8.440 -0.1554  1.0906 -1.5738
   79SLPC  H14Y 7329   3.975   5.243   8.330  1.4295  0.2510  3.1328
   79SLPC  C315 7330   3.939   5.100   8.490 -0.6511  0.1586  0.2586
   79SLPC  H15X 7331   4.033   5.145   8.527 -1.9131  1.8296  1.5679
   79SLPC  H15Y 7332   3.965   5.002   8.445 -1.6650 -0.7365  1.5581
   79SLPC  C316 7333   3.860   5.086   8.615 -0.0451 -1.0237  0.1843
   79SLPC  H16X 7334   3.774   5.028   8.576 -0.6159  0.3574 -0.6841
   79SLPC  H16Y 7335   3.825   5.186   8.649  1.4417 -0.6065  0.5506
   79SLPC  C317 7336   3.942   5.019   8.721  0.4818 -0.5882 -0.0046
   79SLPC  H17X 7337   4.040   5.070   8.731 -0.5709  1.6915 -0.6172
   79SLPC  H17Y 7338   3.979   4.917   8.699  0.4901 -0.3466 -1.1543
   79SLPC  C318 7339   3.883   5.013   8.862  0.0538 -0.6592 -0.0031
   79SLPC  H18X 7340   3.858   5.108   8.914 -2.6329 -0.5259 -1.3766
   79SLPC  H18Y 7341   3.947   4.961   8.936  0.2515 -0.2630  0.1039
   79SLPC  H18Z 7342   3.780   4.970   8.857  0.5425 -1.8872  0.2221
   80SLPC     N 7343   5.620   1.748   6.057 -0.0699  0.2929 -0.1016
   80SLPC   C13 7344   5.679   1.630   5.988  0.1542  0.2067  0.5847
   80SLPC  H13A 7345   5.738   1.663   5.903  0.1801  2.4081  1.4134
   80SLPC  H13B 7346   5.745   1.574   6.053 -0.6154  0.4647  1.5958
   80SLPC  H13C 7347   5.608   1.554   5.958 -1.8848  1.2954  2.4091
   80SLPC   C14 7348   5.524   1.698   6.159  0.2211  0.3035 -0.0022
   80SLPC  H14A 7349   5.496   1.774   6.230  0.9685  1.8729 -1.2958
   80SLPC  H14B 7350   5.434   1.657   6.118  0.8805 -0.9148 -0.2654
   80SLPC  H14C 7351   5.568   1.617   6.215 -3.9348 -2.8031 -0.7740
   80SLPC   C15 7352   5.545   1.829   5.959  0.6007 -0.3294 -0.5205
   80SLPC  H15A 7353   5.601   1.841   5.867 -0.6029 -0.1976 -1.2550
   80SLPC  H15B 7354   5.457   1.773   5.931 -0.6885  1.4369 -0.1317
   80SLPC  H15C 7355   5.523   1.924   6.005  2.9333 -1.4352  3.3167
   80SLPC   C12 7356   5.731   1.828   6.122  0.0420 -0.1302  0.0061
   80SLPC  H12A 7357   5.789   1.874   6.042  2.0267 -0.5936  1.0977
   80SLPC  H12B 7358   5.802   1.761   6.169  1.4291 -0.7353 -2.7452
   80SLPC   C11 7359   5.697   1.949   6.217 -0.6891  0.2308  0.3435
   80SLPC  H11A 7360   5.792   1.997   6.246 -0.3915  1.1093 -1.8502
   80SLPC  H11B 7361   5.638   1.910   6.303 -1.0332  2.1094  1.0028
   80SLPC     P 7362   5.461   2.091   6.182 -0.5183  0.7957 -0.3560
   80SLPC   O13 7363   5.467   2.233   6.203 -0.0509  0.2542 -0.1404
   80SLPC   O14 7364   5.379   2.042   6.069 -0.0849  0.0499  0.0555
   80SLPC   O12 7365   5.611   2.041   6.151 -0.3650  0.1746  0.4056
   80SLPC   O11 7366   5.418   2.014   6.313 -0.8191  0.0345 -0.2947
   80SLPC    C1 7367   5.417   2.087   6.439  0.5361  0.0875  0.2975
   80SLPC    HA 7368   5.378   2.191   6.426 -0.4680 -0.3581 -0.3832
   80SLPC    HB 7369   5.360   2.034   6.518 -1.1817  2.3249  0.6973
   80SLPC    C2 7370   5.557   2.090   6.493  0.1522 -1.2335 -0.1084
   80SLPC    HS 7371   5.636   2.107   6.417 -1.6697 -1.4552 -2.1426
   80SLPC   O21 7372   5.576   1.966   6.563 -0.0333  0.0088  0.0836
   80SLPC   C21 7373   5.703   1.940   6.598  1.0242  0.1161  0.0919
   80SLPC   O22 7374   5.794   2.003   6.556 -0.4216 -0.4818  0.3293
   80SLPC   C22 7375   5.695   1.828   6.692  0.2933 -0.1810  0.0076
   80SLPC   H2R 7376   5.672   1.867   6.794 -0.6996 -2.2885  0.6443
   80SLPC   H2S 7377   5.605   1.766   6.672 -0.8149  1.2340  0.4526
   80SLPC    C3 7378   5.562   2.212   6.591 -0.1752 -0.2067 -0.0655
   80SLPC    HX 7379   5.543   2.298   6.524 -1.6630 -1.9153 -1.9702
   80SLPC    HY 7380   5.661   2.219   6.642 -0.5664  1.0925  0.5409
   80SLPC   O31 7381   5.452   2.210   6.688  0.4750  0.0273 -0.6182
   80SLPC   C31 7382   5.487   2.166   6.810  0.9628  0.2958 -0.8948
   80SLPC   O32 7383   5.590   2.107   6.844  0.1325 -0.2251 -0.4953
   80SLPC   C32 7384   5.383   2.215   6.904 -0.0668  0.0221 -0.3450
   80SLPC   H2X 7385   5.298   2.146   6.884  1.6634 -1.8949 -1.4684
   80SLPC   H2Y 7386   5.372   2.319   6.868 -1.9485 -0.3460 -0.9427
   80SLPC   C23 7387   5.829   1.747   6.695 -0.1134 -1.0265  0.0823
   80SLPC   H3R 7388   5.909   1.804   6.747  0.2648 -2.0158  0.5956
   80SLPC   H3S 7389   5.861   1.725   6.590  0.5992 -2.7524  0.6321
   80SLPC   C24 7390   5.815   1.617   6.775 -0.1820  0.5629 -0.5268
   80SLPC   H4R 7391   5.906   1.556   6.754  0.5247  0.4510  2.4116
   80SLPC   H4S 7392   5.722   1.571   6.737 -0.5143  1.4230 -0.7904
   80SLPC   C25 7393   5.803   1.629   6.928 -0.4384 -0.3751 -0.7936
   80SLPC   H5R 7394   5.717   1.696   6.951  0.6391  0.6525  0.4587
   80SLPC   H5S 7395   5.888   1.684   6.973 -1.1683  1.0329 -1.0767
   80SLPC   C26 7396   5.783   1.492   6.998  0.2530 -1.3080  0.2487
   80SLPC   H6R 7397   5.854   1.421   6.949  0.7681 -0.0598 -0.8758
   80SLPC   H6S 7398   5.678   1.460   6.981  0.1584 -0.9406  0.1332
   80SLPC   C27 7399   5.819   1.511   7.151  0.0215  0.3312  0.6152
   80SLPC   H7R 7400   5.775   1.608   7.183 -1.8551  0.1965 -1.3409
   80SLPC   H7S 7401   5.928   1.529   7.162  0.2338 -1.7665  2.9246
   80SLPC   C28 7402   5.774   1.405   7.252 -0.6515  0.8586  0.0597
   80SLPC   H8R 7403   5.806   1.444   7.351  1.2613 -0.8474  0.1711
   80SLPC   H8S 7404   5.835   1.313   7.238  0.6880  2.0570 -2.4884
   80SLPC   C29 7405   5.625   1.379   7.251 -0.4776 -0.3213  0.3896
   80SLPC   H9R 7406   5.590   1.351   7.151  0.7760  2.8916 -1.0963
   80SLPC  C210 7407   5.530   1.389   7.351  0.3769 -0.7951  0.2823
   80SLPC  H10R 7408   5.424   1.387   7.320  0.1634  0.7459  0.8191
   80SLPC  C211 7409   5.555   1.423   7.499  0.1597 -0.1133 -0.1444
   80SLPC  H11R 7410   5.481   1.495   7.541  0.0001 -0.5924  0.4026
   80SLPC  H11S 7411   5.652   1.477   7.512 -0.1431 -0.0725  2.6047
   80SLPC  C212 7412   5.559   1.302   7.593  0.5556  0.0791  0.1375
   80SLPC  H12R 7413   5.545   1.207   7.540 -1.9354  0.9462 -0.8794
   80SLPC  C213 7414   5.563   1.301   7.728 -0.3903 -1.3803  0.0954
   80SLPC  H13R 7415   5.570   1.207   7.783  1.9718 -1.5022 -0.2893
   80SLPC  C214 7416   5.566   1.433   7.808 -0.5750  0.0660  0.2500
   80SLPC  H14R 7417   5.593   1.528   7.757  1.2964  1.0888  2.9144
   80SLPC  H14S 7418   5.663   1.426   7.862  0.2888 -0.9375 -1.3493
   80SLPC  C215 7419   5.446   1.453   7.905  0.2245  0.1435  0.1638
   80SLPC  H15R 7420   5.350   1.441   7.851  1.3341 -0.4409 -1.7901
   80SLPC  H15S 7421   5.457   1.557   7.941 -0.0895  1.2636 -2.7335
   80SLPC  C216 7422   5.448   1.355   8.026  0.9252  0.2363 -0.2287
   80SLPC  H16R 7423   5.442   1.418   8.117 -0.5590 -0.6162  0.3147
   80SLPC  H16S 7424   5.547   1.306   8.009  1.6874  2.4201 -2.5547
   80SLPC  C217 7425   5.331   1.259   8.025  0.1903  0.0370 -0.0223
   80SLPC  H17R 7426   5.340   1.190   7.938 -1.0806  0.2861 -0.3799
   80SLPC  H17S 7427   5.230   1.305   8.019  0.1682  0.2324  1.5134
   80SLPC  C218 7428   5.319   1.165   8.150 -0.4876  0.3200 -0.6531
   80SLPC  H18R 7429   5.223   1.110   8.152 -0.6646  0.5205 -2.4105
   80SLPC  H18S 7430   5.321   1.239   8.233  1.1346  2.2919 -2.3183
   80SLPC  H18T 7431   5.399   1.088   8.154  0.6750  1.5263  0.7355
   80SLPC   C33 7432   5.417   2.197   7.058  0.2576 -0.1231 -0.3203
   80SLPC   H3X 7433   5.498   2.264   7.094 -0.5204  0.5308  0.2408
   80SLPC   H3Y 7434   5.447   2.092   7.081  1.3934  0.0285 -1.0454
   80SLPC   C34 7435   5.296   2.235   7.145 -0.3422 -0.0768 -0.0705
   80SLPC   H4X 7436   5.220   2.168   7.100 -0.5107  1.1656 -1.7680
   80SLPC   H4Y 7437   5.272   2.341   7.122 -0.8915  0.0281  0.9565
   80SLPC   C35 7438   5.320   2.201   7.296  0.2509 -0.6496 -0.0012
   80SLPC   H5X 7439   5.418   2.233   7.337 -0.1440 -1.6152  1.8000
   80SLPC   H5Y 7440   5.327   2.090   7.305  0.9659 -0.5946  0.1698
   80SLPC   C36 7441   5.209   2.251   7.386 -0.2007  0.8795  0.3915
   80SLPC   H6X 7442   5.119   2.190   7.363  1.1109 -1.8098  2.0385
   80SLPC   H6Y 7443   5.193   2.360   7.368  2.0510  0.7851 -3.1554
   80SLPC   C37 7444   5.238   2.223   7.531  0.1629 -0.6846 -0.9723
   80SLPC   H7X 7445   5.328   2.282   7.560 -0.5586  0.3362 -0.7526
   80SLPC   H7Y 7446   5.246   2.115   7.555 -0.9956 -0.6118 -0.1871
   80SLPC   C38 7447   5.126   2.281   7.622  0.0800 -0.5198 -0.6641
   80SLPC   H8X 7448   5.026   2.259   7.578 -1.3650  4.1840 -0.2953
   80SLPC   H8Y 7449   5.128   2.392   7.630 -1.6858 -0.4892 -0.2260
   80SLPC   C39 7450   5.131   2.221   7.764  0.0475  0.5429  0.4728
   80SLPC   H9X 7451   5.234   2.244   7.800 -0.2927  2.1783  0.5121
   80SLPC   H9Y 7452   5.122   2.111   7.759 -5.8727  0.6361  1.3683
   80SLPC  C310 7453   5.037   2.302   7.855  0.3071 -0.6254  0.2077
   80SLPC  H10X 7454   4.943   2.245   7.868  0.7949 -1.7359 -0.9126
   80SLPC  H10Y 7455   5.021   2.400   7.805 -0.9702  0.1319  2.0041
   80SLPC  C311 7456   5.111   2.313   7.992  0.5696 -0.7618  0.1939
   80SLPC  H11X 7457   5.210   2.363   7.983  0.3969 -0.5139 -0.2979
   80SLPC  H11Y 7458   5.136   2.211   8.029  2.6484 -0.2139  0.4469
   80SLPC  C312 7459   5.018   2.384   8.095  0.0508 -1.3617 -0.0773
   80SLPC  H12X 7460   4.920   2.334   8.107  0.3253 -1.1700  4.9435
   80SLPC  H12Y 7461   5.012   2.490   8.061  4.2956 -0.8169  0.2414
   80SLPC  C313 7462   5.085   2.384   8.228 -0.4445  0.7060  0.6041
   80SLPC  H13X 7463   5.184   2.435   8.227 -0.7043  1.2161  0.1241
   80SLPC  H13Y 7464   5.097   2.283   8.273 -0.0137 -0.1299 -1.2691
   80SLPC  C314 7465   5.005   2.461   8.323 -0.5275 -0.4129 -0.3977
   80SLPC  H14X 7466   4.900   2.427   8.333 -0.6411  0.2352  0.7563
   80SLPC  H14Y 7467   4.980   2.560   8.281  0.7017 -0.0068 -0.2052
   80SLPC  C315 7468   5.088   2.475   8.454 -0.1486 -0.6556  0.0853
   80SLPC  H15X 7469   5.188   2.503   8.414 -0.4547 -1.4846 -1.3273
   80SLPC  H15Y 7470   5.099   2.372   8.494  1.1576 -1.2418 -1.6431
   80SLPC  C316 7471   5.044   2.567   8.568 -0.2422 -0.1783 -0.5858
   80SLPC  H16X 7472   4.938   2.552   8.598  0.0320  1.6790  1.6145
   80SLPC  H16Y 7473   5.043   2.670   8.526 -1.1055  0.9962  2.1031
   80SLPC  C317 7474   5.156   2.570   8.678  0.2132 -1.3330 -0.3165
   80SLPC  H17X 7475   5.221   2.479   8.677  1.3744 -0.5541  0.7687
   80SLPC  H17Y 7476   5.102   2.570   8.774  0.0406  1.0557 -0.3597
   80SLPC  C318 7477   5.243   2.694   8.675  0.5025  1.1194  0.6510
   80SLPC  H18X 7478   5.297   2.711   8.579 -0.2645  0.4979  0.0957
   80SLPC  H18Y 7479   5.323   2.672   8.748 -0.0686 -0.2801  0.8959
   80SLPC  H18Z 7480   5.192   2.788   8.705  2.6909  2.1712  1.2957
   81SAPS     N 7481   6.261   4.894  11.027  0.3551  0.1379  0.5320
   81SAPS   HN1 7482   6.313   4.810  10.993  0.5576  0.1662  0.7603
   81SAPS   HN2 7483   6.293   4.978  10.975 -2.0521  1.6807  1.3758
   81SAPS   HN3 7484   6.266   4.905  11.131 -1.4872 -0.0714  0.6714
   81SAPS   C12 7485   6.114   4.870  11.008 -0.3570  0.6114  0.2081
   81SAPS  H12A 7486   6.109   4.856  10.901  0.2614 -0.3717  0.2955
   81SAPS   C13 7487   6.060   4.743  11.074  0.4897 -0.6940  0.7543
   81SAPS  O13A 7488   6.131   4.687  11.163 -0.6550 -0.7979 -0.3533
   81SAPS  O13B 7489   5.944   4.700  11.042 -0.5120 -0.0668 -0.2479
   81SAPS   C11 7490   6.037   4.993  11.046  0.1698 -0.4148 -0.6413
   81SAPS  H11A 7491   6.028   4.995  11.157 -1.5141 -2.3085 -0.6854
   81SAPS  H11B 7492   5.933   4.979  11.009  0.0865  1.9893 -1.4843
   81SAPS     P 7493   6.065   5.158  10.844  0.1852 -0.3519 -0.2498
   81SAPS   O13 7494   5.920   5.151  10.819  0.0814 -0.0022 -0.6480
   81SAPS   O14 7495   6.136   5.292  10.818  0.3537 -0.4275 -0.3517
   81SAPS   O12 7496   6.093   5.115  10.993 -0.3011 -0.9772  0.3465
   81SAPS   O11 7497   6.133   5.046  10.757 -0.1168  1.2329  0.1385
   81SAPS    C1 7498   6.273   5.056  10.719 -0.2853 -0.5700  0.0122
   81SAPS    HA 7499   6.324   5.123  10.792  0.1406  1.5197 -2.0952
   81SAPS    HB 7500   6.316   4.953  10.719 -0.2701 -0.5679 -0.6863
   81SAPS    C2 7501   6.300   5.121  10.576 -0.7154 -0.3548 -1.1691
   81SAPS    HS 7502   6.250   5.220  10.582  0.5442  0.2687 -0.4794
   81SAPS   O21 7503   6.268   5.034  10.466 -0.1431  0.3458  0.0361
   81SAPS   C21 7504   6.164   5.071  10.398  0.1088 -0.6525 -0.1133
   81SAPS   O22 7505   6.092   5.172  10.411 -0.2768 -0.4166 -0.1151
   81SAPS   C22 7506   6.147   4.968  10.287 -0.2133 -0.0071  0.1994
   81SAPS   H2R 7507   6.251   4.957  10.247 -0.9874 -0.1220 -1.9317
   81SAPS   H2S 7508   6.121   4.869  10.328  0.4003 -0.5177 -0.6056
   81SAPS    C3 7509   6.452   5.156  10.565  0.4762  0.0431  0.2943
   81SAPS    HX 7510   6.509   5.061  10.553  0.2428  0.0281 -0.8359
   81SAPS    HY 7511   6.501   5.181  10.661 -0.4673 -1.8739  1.3229
   81SAPS   O31 7512   6.475   5.244  10.452  0.0272  0.2479 -0.0142
   81SAPS   C31 7513   6.471   5.374  10.484  0.1916  0.2404  0.3419
   81SAPS   O32 7514   6.464   5.420  10.596 -0.9640 -0.0974 -0.2028
   81SAPS   C32 7515   6.490   5.456  10.350 -0.0354 -0.3678  0.2549
   81SAPS   H2X 7516   6.588   5.435  10.300 -0.2332  1.5902 -1.0604
   81SAPS   H2Y 7517   6.489   5.566  10.365  1.1177 -0.0583 -1.6048
   81SAPS   C23 7518   6.032   4.998  10.187  0.8008 -0.3888 -0.4257
   81SAPS   H3R 7519   6.048   5.100  10.144  0.7981 -0.5667 -0.8564
   81SAPS   H3S 7520   5.940   5.001  10.248  0.4505  0.6891 -0.9732
   81SAPS   C24 7521   6.025   4.895  10.071  0.0930 -0.4793 -0.4996
   81SAPS   H4R 7522   6.012   4.795  10.117  2.8573 -0.5238  0.3512
   81SAPS   H4S 7523   6.128   4.893  10.030  0.5302 -0.7436  0.5856
   81SAPS   C25 7524   5.906   4.938   9.987  0.2487  0.6383 -0.4760
   81SAPS   H5R 7525   5.818   4.942  10.054  0.8575 -3.9678  0.9712
   81SAPS   C26 7526   5.891   4.948   9.853 -0.1801 -0.1693  0.8110
   81SAPS   H6R 7527   5.790   4.970   9.815  0.7437 -0.2037 -1.8577
   81SAPS   C27 7528   6.003   4.924   9.754 -0.1655 -0.2755 -0.2209
   81SAPS   H7R 7529   6.096   4.924   9.814 -0.8760  1.5878  0.9704
   81SAPS   H7S 7530   6.001   5.018   9.695  1.6332  1.2618  1.9874
   81SAPS   C28 7531   5.989   4.801   9.667  1.0091  0.3064 -0.1223
   81SAPS   H8R 7532   5.907   4.738   9.702  1.7133 -0.8266 -0.4568
   81SAPS   C29 7533   6.048   4.769   9.548  0.0255  0.6228 -0.2692
   81SAPS   H9R 7534   6.021   4.674   9.500  1.4181  0.5660 -0.9984
   81SAPS  C210 7535   6.144   4.850   9.471  0.3050  0.3444  0.2175
   81SAPS  H10R 7536   6.249   4.813   9.467  2.0424  4.6650 -0.8327
   81SAPS  H10S 7537   6.148   4.949   9.521  1.4152  0.3675  0.1084
   81SAPS  C211 7538   6.104   4.865   9.327 -0.4520  0.0607  0.1734
   81SAPS  H11R 7539   6.023   4.938   9.319 -0.4098 -0.0957 -2.6770
   81SAPS  C212 7540   6.151   4.806   9.215  1.2221  0.4426 -0.5030
   81SAPS  H12R 7541   6.103   4.837   9.122  0.3302  1.3195  0.2270
   81SAPS  C213 7542   6.263   4.709   9.201  0.3308 -0.7525  0.1849
   81SAPS  H13R 7543   6.307   4.685   9.301  2.7693 -1.7726 -1.0305
   81SAPS  H13S 7544   6.352   4.755   9.152 -0.9329  1.4760 -0.1307
   81SAPS  C214 7545   6.213   4.575   9.142 -0.2857 -0.2341 -0.3014
   81SAPS  H14R 7546   6.132   4.532   9.203 -1.5070  3.3521  0.8697
   81SAPS  C215 7547   6.258   4.506   9.040 -0.3872 -0.5679  0.1870
   81SAPS  H15R 7548   6.224   4.406   9.010  2.1927 -0.6620 -2.8697
   81SAPS  C216 7549   6.378   4.542   8.953 -0.4055  0.1494  0.2079
   81SAPS  H16R 7550   6.440   4.453   8.928 -0.3402 -0.3723  2.0320
   81SAPS  H16S 7551   6.448   4.604   9.013 -0.3201 -0.3778  0.6576
   81SAPS  C217 7552   6.332   4.594   8.823 -0.3550  0.0435 -0.2897
   81SAPS  H17R 7553   6.259   4.522   8.780 -1.9435  1.3880  0.0701
   81SAPS  H17S 7554   6.415   4.603   8.749 -0.9488 -0.8263 -1.0902
   81SAPS  C218 7555   6.267   4.733   8.830  1.1695  0.6883  0.3635
   81SAPS  H18R 7556   6.339   4.808   8.869  0.9890  0.2157  1.6715
   81SAPS  H18S 7557   6.174   4.731   8.892  1.1163  0.4222  0.2747
   81SAPS  C219 7558   6.221   4.768   8.690 -0.4726  0.3330  0.5946
   81SAPS  H19R 7559   6.161   4.680   8.658 -2.0786  0.8079  2.1225
   81SAPS  H19S 7560   6.308   4.783   8.622 -2.3950 -0.0573 -2.1286
   81SAPS  C220 7561   6.144   4.893   8.680 -0.6151 -0.1579 -0.6088
   81SAPS  H20R 7562   6.062   4.891   8.755 -0.9218 -0.0351 -0.9377
   81SAPS  H20S 7563   6.102   4.914   8.579 -2.2210  1.0824  0.2641
   81SAPS  H20T 7564   6.201   4.983   8.710 -2.4783  0.5958  0.8974
   81SAPS   C33 7565   6.387   5.413  10.239  0.0224  0.2148  0.2444
   81SAPS   H3X 7566   6.284   5.440  10.271 -0.5807 -2.0457  0.3696
   81SAPS   H3Y 7567   6.396   5.304  10.221 -0.1480  0.0078  1.3127
   81SAPS   C34 7568   6.420   5.475  10.106  0.3614 -0.0880  0.2107
   81SAPS   H4X 7569   6.418   5.586  10.113 -1.5019  0.0316 -1.2404
   81SAPS   H4Y 7570   6.332   5.449  10.043 -0.5250 -0.5083  1.5758
   81SAPS   C35 7571   6.548   5.419  10.055 -0.0164 -0.1158  0.0441
   81SAPS   H5X 7572   6.557   5.310  10.076  0.8675  0.2306  1.6004
   81SAPS   H5Y 7573   6.639   5.470  10.092  0.1755 -0.4151 -0.0154
   81SAPS   C36 7574   6.556   5.439   9.903  0.1407 -0.5228 -0.4264
   81SAPS   H6X 7575   6.524   5.543   9.885 -1.1874 -0.7301  0.5347
   81SAPS   H6Y 7576   6.486   5.367   9.856  0.8416 -0.8486 -0.9966
   81SAPS   C37 7577   6.691   5.406   9.837 -0.5414  0.7955  0.1243
   81SAPS   H7X 7578   6.694   5.295   9.841 -1.0319  0.8110  1.1333
   81SAPS   H7Y 7579   6.783   5.446   9.883  1.1718 -1.3212 -1.2464
   81SAPS   C38 7580   6.676   5.444   9.688  0.0497  0.7716  0.8739
   81SAPS   H8X 7581   6.691   5.553   9.672  2.5305  0.2909 -0.7257
   81SAPS   H8Y 7582   6.577   5.416   9.646 -0.0473  1.1828  0.8200
   81SAPS   C39 7583   6.789   5.380   9.603  0.0644  0.2231  0.2547
   81SAPS   H9X 7584   6.787   5.273   9.634  2.2277 -0.8328 -2.7216
   81SAPS   H9Y 7585   6.887   5.426   9.626 -0.2798  2.3015 -2.0233
   81SAPS  C310 7586   6.773   5.419   9.452 -0.0469  0.0335 -0.3816
   81SAPS  H10X 7587   6.761   5.530   9.455 -2.9011 -0.0938 -2.8086
   81SAPS  H10Y 7588   6.681   5.377   9.407  0.8643 -0.4365 -1.9147
   81SAPS  C311 7589   6.892   5.364   9.366 -1.2643  0.0130 -0.5888
   81SAPS  H11X 7590   6.915   5.271   9.421  0.3268 -0.0751 -1.3642
   81SAPS  H11Y 7591   6.990   5.416   9.367 -1.0319 -0.3807 -1.5860
   81SAPS  C312 7592   6.850   5.330   9.223  0.0130 -0.0262 -0.3696
   81SAPS  H12X 7593   6.739   5.333   9.212  0.2161 -0.7000 -3.5347
   81SAPS  H12Y 7594   6.891   5.229   9.203  0.5036  0.2151 -0.5924
   81SAPS  C313 7595   6.903   5.448   9.143 -0.4212  0.0014  0.6221
   81SAPS  H13X 7596   7.013   5.456   9.153 -0.2274 -0.6510 -0.8100
   81SAPS  H13Y 7597   6.862   5.542   9.188 -0.9264 -0.3936  1.0002
   81SAPS  C314 7598   6.845   5.439   9.001 -0.7212  0.2196  0.0953
   81SAPS  H14X 7599   6.734   5.446   8.999 -0.8203 -1.2349 -1.1854
   81SAPS  H14Y 7600   6.863   5.339   8.957 -2.2634 -0.5538  1.1277
   81SAPS  C315 7601   6.895   5.562   8.921  0.0687 -0.6285  0.1467
   81SAPS  H15X 7602   7.000   5.581   8.950 -0.3362 -0.3074  1.4628
   81SAPS  H15Y 7603   6.843   5.653   8.957  0.6657  0.4538 -1.5786
   81SAPS  C316 7604   6.877   5.552   8.770  0.5692  0.4066  0.1470
   81SAPS  H16X 7605   6.918   5.458   8.726  1.6691  1.4964 -1.2451
   81SAPS  H16Y 7606   6.914   5.643   8.719  1.2530  0.9101  1.5041
   81SAPS  C317 7607   6.723   5.550   8.731 -0.1688  0.2825 -1.2558
   81SAPS  H17X 7608   6.662   5.632   8.774  1.3269  0.5753  0.4328
   81SAPS  H17Y 7609   6.677   5.463   8.782  2.0390 -0.0958  0.2178
   81SAPS  C318 7610   6.683   5.541   8.581 -0.2912 -0.4586 -0.5582
   81SAPS  H18X 7611   6.721   5.454   8.523 -0.7162 -1.1442  0.1864
   81SAPS  H18Y 7612   6.706   5.639   8.535 -1.3436  0.6498  1.1866
   81SAPS  H18Z 7613   6.573   5.524   8.577 -0.4877  0.8447 -1.3970
   82SAPS     N 7614   5.869   4.537  10.850  0.0723 -0.2512  0.4267
   82SAPS   HN1 7615   5.929   4.517  10.768  1.8466  2.4289  0.9346
   82SAPS   HN2 7616   5.917   4.615  10.901 -2.4309  1.2909  0.6186
   82SAPS   HN3 7617   5.866   4.457  10.916  0.0197 -0.9049 -0.3656
   82SAPS   C12 7618   5.732   4.584  10.814  0.7586  0.4270 -0.6737
   82SAPS  H12A 7619   5.664   4.570  10.897  1.0968 -3.7693 -0.8894
   82SAPS   C13 7620   5.726   4.735  10.790 -0.2065 -0.9101  0.0936
   82SAPS  O13A 7621   5.833   4.801  10.809  0.6804 -0.3253 -0.1440
   82SAPS  O13B 7622   5.629   4.795  10.738 -1.0121 -0.1807 -0.7410
   82SAPS   C11 7623   5.691   4.509  10.687 -0.0580  0.3653  0.2907
   82SAPS  H11A 7624   5.773   4.519  10.613 -0.4505  3.1541  0.1306
   82SAPS  H11B 7625   5.594   4.551  10.651 -1.4590 -0.9398  2.3065
   82SAPS     P 7626   5.536   4.303  10.777  0.4022  0.5904  0.1145
   82SAPS   O13 7627   5.552   4.158  10.811 -0.3203 -0.2519 -0.1327
   82SAPS   O14 7628   5.491   4.391  10.889  0.0691 -0.4710 -0.6074
   82SAPS   O12 7629   5.666   4.364  10.712 -0.0457 -0.4044 -0.2588
   82SAPS   O11 7630   5.422   4.307  10.673 -0.1409 -0.0446 -0.2573
   82SAPS    C1 7631   5.309   4.229  10.659  0.0905  0.8202  0.5552
   82SAPS    HA 7632   5.278   4.172  10.749 -1.5268 -2.0878 -1.6488
   82SAPS    HB 7633   5.225   4.292  10.621 -0.4584 -1.0030 -1.4611
   82SAPS    C2 7634   5.324   4.122  10.543  1.0636 -0.1897 -0.3522
   82SAPS    HS 7635   5.412   4.055  10.558  1.4574  0.5106  0.5611
   82SAPS   O21 7636   5.323   4.196  10.422 -0.0047  0.1707 -0.1634
   82SAPS   C21 7637   5.444   4.222  10.377 -0.7182 -0.8660  0.3517
   82SAPS   O22 7638   5.554   4.173  10.409 -0.0514 -0.3457  0.3367
   82SAPS   C22 7639   5.429   4.326  10.270  0.4231 -0.3355  0.1497
   82SAPS   H2R 7640   5.362   4.278  10.195 -0.8605  0.2448  0.8905
   82SAPS   H2S 7641   5.371   4.411  10.311 -0.0205  0.5970 -2.2669
   82SAPS    C3 7642   5.201   4.031  10.545 -0.3864 -0.5888  0.0613
   82SAPS    HX 7643   5.118   4.097  10.514  2.6512  4.9277  2.2153
   82SAPS    HY 7644   5.181   4.001  10.650 -0.7310 -0.0630  0.1461
   82SAPS   O31 7645   5.222   3.915  10.456 -0.4441 -0.0583  0.3518
   82SAPS   C31 7646   5.111   3.873  10.391 -0.8527 -0.4539 -0.0094
   82SAPS   O32 7647   5.005   3.928  10.388  0.6838  0.6044 -0.3427
   82SAPS   C32 7648   5.153   3.749  10.323  0.1861  0.0131 -0.3854
   82SAPS   H2X 7649   5.062   3.686  10.322 -0.4529  0.8400  1.2612
   82SAPS   H2Y 7650   5.233   3.700  10.384  1.4667  2.1349 -0.2774
   82SAPS   C23 7651   5.568   4.384  10.215 -0.4897  0.0205  0.0642
   82SAPS   H3R 7652   5.632   4.302  10.176 -0.8669 -1.8545  3.0126
   82SAPS   H3S 7653   5.612   4.437  10.302  1.8828 -1.3798 -0.2015
   82SAPS   C24 7654   5.554   4.496  10.106  0.0866  0.3451  0.8696
   82SAPS   H4R 7655   5.491   4.585  10.129  1.1932  1.0918  1.0854
   82SAPS   H4S 7656   5.507   4.432  10.028  1.2531  2.7014 -1.9629
   82SAPS   C25 7657   5.684   4.568  10.063  0.3666  0.2281 -0.9057
   82SAPS   H5R 7658   5.743   4.614  10.144  0.1820 -0.7487 -0.1987
   82SAPS   C26 7659   5.730   4.581   9.940 -0.1600  0.4915 -0.5422
   82SAPS   H6R 7660   5.812   4.648   9.914  0.7133 -1.2640 -2.5890
   82SAPS   C27 7661   5.662   4.514   9.822  0.1488  0.2835  0.2965
   82SAPS   H7R 7662   5.608   4.599   9.774 -1.0145 -0.9531 -0.6714
   82SAPS   H7S 7663   5.581   4.445   9.855 -1.2500  1.2414 -1.0104
   82SAPS   C28 7664   5.768   4.440   9.743 -0.0071 -0.5755  0.0021
   82SAPS   H8R 7665   5.835   4.371   9.797 -1.4283 -1.7875  0.2812
   82SAPS   C29 7666   5.767   4.436   9.611 -0.2911 -0.3213 -0.2078
   82SAPS   H9R 7667   5.846   4.385   9.554 -0.7367 -0.0926 -1.0454
   82SAPS  C210 7668   5.666   4.496   9.510 -0.0123  0.4867 -0.2509
   82SAPS  H10R 7669   5.595   4.561   9.565 -0.4229  1.8243 -2.2577
   82SAPS  H10S 7670   5.613   4.411   9.462  2.3646 -0.7220 -0.8978
   82SAPS  C211 7671   5.734   4.580   9.403  0.0985 -0.1307  0.6120
   82SAPS  H11R 7672   5.732   4.690   9.410 -0.6208 -0.0798 -0.2047
   82SAPS  C212 7673   5.788   4.533   9.285  0.3095 -0.6862 -0.6711
   82SAPS  H12R 7674   5.833   4.614   9.225 -0.8959 -0.8189 -1.7795
   82SAPS  C213 7675   5.804   4.395   9.234  0.1891 -0.7723 -0.5503
   82SAPS  H13R 7676   5.708   4.340   9.248 -0.2769  0.1969  0.2425
   82SAPS  H13S 7677   5.881   4.337   9.289 -1.7923 -1.2821  1.8957
   82SAPS  C214 7678   5.845   4.393   9.089  0.0912 -0.3965  0.4268
   82SAPS  H14R 7679   5.952   4.408   9.067  0.0188 -0.1725  0.2259
   82SAPS  C215 7680   5.764   4.376   8.983 -0.3085  0.4718  0.3237
   82SAPS  H15R 7681   5.799   4.372   8.878 -0.2799  1.8259  0.2528
   82SAPS  C216 7682   5.612   4.361   8.990 -0.1323  0.3281 -0.3108
   82SAPS  H16R 7683   5.584   4.379   9.095  1.0288 -1.4842  0.3654
   82SAPS  H16S 7684   5.579   4.258   8.964 -2.1654  0.8390  0.0664
   82SAPS  C217 7685   5.539   4.445   8.883 -0.0316 -0.1367  0.1030
   82SAPS  H17R 7686   5.431   4.435   8.905 -0.0348  1.0683  0.7340
   82SAPS  H17S 7687   5.551   4.410   8.778 -3.2927 -1.9761  0.2410
   82SAPS  C218 7688   5.575   4.595   8.886  0.0442 -0.1851  0.6802
   82SAPS  H18R 7689   5.536   4.654   8.801  0.7609 -0.0430  0.4475
   82SAPS  H18S 7690   5.685   4.601   8.884  0.0809  0.2039 -3.1629
   82SAPS  C219 7691   5.510   4.670   9.009 -0.7861 -0.2498  0.4384
   82SAPS  H19R 7692   5.541   4.627   9.107  2.5244  0.8423  0.0182
   82SAPS  H19S 7693   5.401   4.659   8.997 -0.8257  1.7561 -1.8136
   82SAPS  C220 7694   5.530   4.819   9.021 -0.1429  0.0244  1.2281
   82SAPS  H20R 7695   5.500   4.859   9.120  2.8236  2.9855  1.1234
   82SAPS  H20S 7696   5.475   4.867   8.939  1.1077 -1.6460 -0.6931
   82SAPS  H20T 7697   5.636   4.850   9.005  0.1303 -1.8459 -1.2438
   82SAPS   C33 7698   5.200   3.764  10.176  0.0599  0.0172  0.4558
   82SAPS   H3X 7699   5.107   3.766  10.115 -0.2253  0.5125  0.9038
   82SAPS   H3Y 7700   5.259   3.672  10.154 -0.7953 -1.1626  2.7460
   82SAPS   C34 7701   5.275   3.890  10.151  0.1978  0.0402 -0.0128
   82SAPS   H4X 7702   5.361   3.910  10.220  1.3508  0.0175 -1.4013
   82SAPS   H4Y 7703   5.206   3.977  10.160  0.3871  0.0544  1.8229
   82SAPS   C35 7704   5.324   3.894  10.003  0.7720  0.4350  0.2697
   82SAPS   H5X 7705   5.236   3.872   9.938 -0.3964  0.0118  1.9459
   82SAPS   H5Y 7706   5.402   3.816   9.991 -0.1684 -0.6567  1.0484
   82SAPS   C36 7707   5.369   4.033   9.963 -0.0230 -0.3097  0.4107
   82SAPS   H6X 7708   5.464   4.052  10.019  1.1974 -0.6602 -1.4419
   82SAPS   H6Y 7709   5.284   4.104   9.973 -2.8237 -3.1898 -1.2968
   82SAPS   C37 7710   5.395   4.035   9.813  0.1571 -0.2354  0.2262
   82SAPS   H7X 7711   5.317   3.988   9.749  1.0199 -0.6743 -0.5328
   82SAPS   H7Y 7712   5.484   3.969   9.800  0.6347  0.6805 -1.4716
   82SAPS   C38 7713   5.427   4.169   9.747 -0.0835 -0.4403 -0.1826
   82SAPS   H8X 7714   5.516   4.209   9.801 -1.4303 -0.2993  2.1009
   82SAPS   H8Y 7715   5.336   4.233   9.750 -1.0096 -1.6484 -1.4571
   82SAPS   C39 7716   5.465   4.140   9.601 -0.3297  0.3978  0.5620
   82SAPS   H9X 7717   5.541   4.059   9.603  1.1064  1.7026  0.1214
   82SAPS   H9Y 7718   5.498   4.234   9.553  1.9201 -1.0101 -0.8295
   82SAPS  C310 7719   5.336   4.115   9.520 -0.1453 -0.2593  0.2614
   82SAPS  H10X 7720   5.261   4.193   9.544 -2.1367 -1.8482 -0.4815
   82SAPS  H10Y 7721   5.301   4.019   9.563 -0.1970 -1.3266 -2.0262
   82SAPS  C311 7722   5.367   4.104   9.367  0.4591 -0.4344 -0.0153
   82SAPS  H11X 7723   5.443   4.024   9.358  3.3239  2.0582  0.2835
   82SAPS  H11Y 7724   5.407   4.204   9.338 -0.2701  0.2083  1.1197
   82SAPS  C312 7725   5.244   4.054   9.295 -0.1789 -0.4864 -0.4616
   82SAPS  H12X 7726   5.155   4.118   9.314  1.3733  1.8156 -0.7058
   82SAPS  H12Y 7727   5.225   3.946   9.317  2.3886 -0.7609  0.7166
   82SAPS  C313 7728   5.261   4.076   9.146 -0.3737 -0.0166  0.2930
   82SAPS  H13X 7729   5.355   4.026   9.114 -0.5708  1.2806 -2.5540
   82SAPS  H13Y 7730   5.288   4.181   9.119  3.5652 -0.7760  0.6463
   82SAPS  C314 7731   5.143   4.011   9.070 -0.4314  0.4698  0.4612
   82SAPS  H14X 7732   5.050   4.067   9.095  0.8315  2.7529  0.3050
   82SAPS  H14Y 7733   5.143   3.903   9.096 -0.2813  0.5592  0.8374
   82SAPS  C315 7734   5.160   4.017   8.922  0.4331 -0.3092  0.2101
   82SAPS  H15X 7735   5.249   3.954   8.900  0.1832  0.0457 -1.9438
   82SAPS  H15Y 7736   5.182   4.121   8.890 -0.0113 -0.1245  0.4981
   82SAPS  C316 7737   5.035   3.966   8.847 -0.3474 -0.0588 -0.7120
   82SAPS  H16X 7738   5.004   3.865   8.882  0.0842  0.0581  0.0228
   82SAPS  H16Y 7739   5.071   3.955   8.742  2.8264 -0.7868  0.3439
   82SAPS  C317 7740   4.915   4.060   8.858  0.0075  0.2503  0.0646
   82SAPS  H17X 7741   4.938   4.167   8.836 -1.6585  1.0497  2.0039
   82SAPS  H17Y 7742   4.875   4.057   8.961 -0.8140 -0.4372 -0.2667
   82SAPS  C318 7743   4.804   4.014   8.764  0.0789  0.1425 -0.1523
   82SAPS  H18X 7744   4.801   3.903   8.761 -0.8411  0.1739 -0.9398
   82SAPS  H18Y 7745   4.818   4.045   8.659 -0.2988 -0.9534 -0.5372
   82SAPS  H18Z 7746   4.703   4.036   8.807 -0.7133 -2.3414 -0.6215
   83SAPS     N 7747   0.226   6.280  11.084 -0.2155 -0.0736 -0.1403
   83SAPS   HN1 7748   0.244   6.181  11.060  2.5664  0.2244  0.4053
   83SAPS   HN2 7749   0.197   6.333  10.999 -2.0587  1.5390  1.4050
   83SAPS   HN3 7750   0.310   6.331  11.118 -1.0567  0.9379  0.5056
   83SAPS   C12 7751   0.119   6.295  11.180 -0.4008 -0.7554 -0.0241
   83SAPS  H12A 7752   0.143   6.247  11.274  0.5663 -1.3471 -0.5503
   83SAPS   C13 7753   0.078   6.448  11.207 -0.3540  0.3557  0.4969
   83SAPS  O13A 7754   0.130   6.534  11.132  0.0022 -0.1479 -0.0874
   83SAPS  O13B 7755   0.045   6.467  11.327  0.1650  0.1882  0.6815
   83SAPS   C11 7756   0.002   6.216  11.123  0.3354 -0.6071 -0.0116
   83SAPS  H11A 7757  -0.074   6.216  11.203  0.2125  0.4352 -0.1206
   83SAPS  H11B 7758   0.022   6.110  11.095 -0.7031 -0.3936 -1.7027
   83SAPS     P 7759  -0.203   6.301  10.980  0.2582  0.1650  0.1324
   83SAPS   O13 7760  -0.289   6.203  11.042  0.3140 -0.1714  0.6769
   83SAPS   O14 7761  -0.229   6.442  11.023 -0.9039  0.7502 -0.2277
   83SAPS   O12 7762  -0.049   6.275  11.002 -0.1305  0.3065 -0.0591
   83SAPS   O11 7763  -0.214   6.301  10.826 -0.0768  0.3255  0.0908
   83SAPS    C1 7764  -0.143   6.209  10.747 -0.2913 -0.0305 -0.0064
   83SAPS    HA 7765  -0.043   6.182  10.785  0.3951  0.3209 -1.4701
   83SAPS    HB 7766  -0.211   6.121  10.747 -1.9972  1.1177  3.5512
   83SAPS    C2 7767  -0.119   6.253  10.605  0.8873 -1.1359  0.1256
   83SAPS    HS 7768  -0.044   6.335  10.607  0.0324 -0.2600 -1.5294
   83SAPS   O21 7769  -0.246   6.299  10.544  0.2663 -0.6636 -0.1828
   83SAPS   C21 7770  -0.232   6.411  10.475 -0.1521  0.5288 -0.5283
   83SAPS   O22 7771  -0.135   6.463  10.432  0.0712 -0.1408 -0.0057
   83SAPS   C22 7772  -0.375   6.474  10.463 -0.3859  0.3078 -0.0662
   83SAPS   H2R 7773  -0.454   6.414  10.513 -3.2423  2.3035 -1.8943
   83SAPS   H2S 7774  -0.377   6.573  10.514 -0.9548 -0.0829  0.6971
   83SAPS    C3 7775  -0.068   6.136  10.522 -0.4101 -0.1582 -0.3183
   83SAPS    HX 7776  -0.127   6.043  10.536 -0.8108 -0.3162 -2.6744
   83SAPS    HY 7777   0.033   6.115  10.562  0.3710 -0.0503 -2.1369
   83SAPS   O31 7778  -0.052   6.165  10.375 -0.4008 -0.4134  0.4163
   83SAPS   C31 7779   0.061   6.229  10.341  0.0972  0.3274 -0.8407
   83SAPS   O32 7780   0.144   6.279  10.418  0.1785  0.2792  0.5399
   83SAPS   C32 7781   0.069   6.241  10.189  0.1892  0.4911 -0.5456
   83SAPS   H2X 7782   0.003   6.329  10.170 -1.9496 -0.9208  0.0154
   83SAPS   H2Y 7783   0.034   6.146  10.144 -2.3479  1.2381 -0.3367
   83SAPS   C23 7784  -0.409   6.495  10.319 -0.0571 -0.1384  0.3877
   83SAPS   H3R 7785  -0.337   6.558  10.262  0.1820 -1.2586 -0.5723
   83SAPS   H3S 7786  -0.508   6.546  10.311  0.4582  0.9080  0.4810
   83SAPS   C24 7787  -0.427   6.359  10.244  1.0869 -0.2757 -0.0110
   83SAPS   H4R 7788  -0.495   6.296  10.304  2.9990  0.2952  2.9863
   83SAPS   H4S 7789  -0.325   6.316  10.255  1.0667  0.0843  1.9812
   83SAPS   C25 7790  -0.483   6.385  10.104 -0.1951 -0.4072  0.3461
   83SAPS   H5R 7791  -0.591   6.403  10.099 -0.6826 -3.2279 -1.7194
   83SAPS   C26 7792  -0.407   6.393   9.991  0.0165 -1.0633  0.5863
   83SAPS   H6R 7793  -0.460   6.411   9.896 -2.2305  4.0862  2.4340
   83SAPS   C27 7794  -0.257   6.379   9.979 -0.6777 -0.5513 -0.0237
   83SAPS   H7R 7795  -0.220   6.403  10.081 -1.5473 -0.2286  0.2204
   83SAPS   H7S 7796  -0.210   6.448   9.906 -0.5190  0.2749  0.8380
   83SAPS   C28 7797  -0.212   6.239   9.954 -0.6545  1.1987  0.2890
   83SAPS   H8R 7798  -0.212   6.177  10.045 -3.8916  1.3942  0.5255
   83SAPS   C29 7799  -0.204   6.190   9.825  0.2575 -0.0708  0.1821
   83SAPS   H9R 7800  -0.160   6.091   9.806  0.9960  0.3537 -0.3779
   83SAPS  C210 7801  -0.226   6.260   9.694 -0.7461  0.1179  0.5513
   83SAPS  H10R 7802  -0.310   6.331   9.711  0.3386  1.2104  1.5182
   83SAPS  H10S 7803  -0.257   6.179   9.625 -1.0226  0.1410  0.6479
   83SAPS  C211 7804  -0.107   6.337   9.640 -0.1827 -0.2496  0.0425
   83SAPS  H11R 7805  -0.056   6.399   9.716  0.2959 -0.8067  0.1839
   83SAPS  C212 7806  -0.067   6.342   9.511 -0.4929 -0.4560  0.5480
   83SAPS  H12R 7807   0.030   6.388   9.490 -1.0426 -0.5231 -2.5629
   83SAPS  C213 7808  -0.132   6.275   9.394 -1.0189 -0.7010 -0.2176
   83SAPS  H13R 7809  -0.242   6.265   9.405 -1.0293 -0.3383  0.0316
   83SAPS  H13S 7810  -0.099   6.169   9.387 -3.1499 -1.5688  1.7203
   83SAPS  C214 7811  -0.094   6.340   9.266  0.2415 -0.3130  0.7354
   83SAPS  H14R 7812   0.005   6.387   9.262 -0.0700  0.3896  1.0237
   83SAPS  C215 7813  -0.170   6.358   9.153 -0.2994  0.3310 -0.1924
   83SAPS  H15R 7814  -0.121   6.414   9.072  0.2307 -1.4171 -1.1253
   83SAPS  C216 7815  -0.314   6.315   9.130  0.0096  0.6706 -0.5231
   83SAPS  H16R 7816  -0.376   6.405   9.108 -1.7521 -0.0951  1.0168
   83SAPS  H16S 7817  -0.359   6.271   9.221  2.8991  1.0567  1.1941
   83SAPS  C217 7818  -0.318   6.214   9.012  0.1921  0.2373  0.2360
   83SAPS  H17R 7819  -0.256   6.251   8.928 -0.9876  1.4720 -0.1196
   83SAPS  H17S 7820  -0.421   6.208   8.971 -0.2861  2.8274  0.9048
   83SAPS  C218 7821  -0.249   6.080   9.038 -0.0682  0.2428 -0.2550
   83SAPS  H18R 7822  -0.251   6.057   9.147  2.5391 -2.2748 -0.6236
   83SAPS  H18S 7823  -0.141   6.076   9.013  0.3580  1.0562  1.3091
   83SAPS  C219 7824  -0.312   5.960   8.972  0.0883 -0.2460 -0.4161
   83SAPS  H19R 7825  -0.412   5.942   9.015 -0.2314 -0.8377 -1.3642
   83SAPS  H19S 7826  -0.257   5.866   8.995 -1.3191 -0.8994  0.3646
   83SAPS  C220 7827  -0.318   5.971   8.824 -1.1647  0.6146  0.4640
   83SAPS  H20R 7828  -0.389   6.047   8.786 -1.1039  0.2909 -0.3182
   83SAPS  H20S 7829  -0.341   5.871   8.781  0.3838 -0.1831  1.3911
   83SAPS  H20T 7830  -0.219   5.992   8.777 -1.8104  1.2284 -0.6478
   83SAPS   C33 7831   0.204   6.266  10.121 -0.5070 -0.7628 -0.3642
   83SAPS   H3X 7832   0.279   6.195  10.163 -1.1176 -0.9879  0.3653
   83SAPS   H3Y 7833   0.222   6.376  10.130  1.1734 -0.7919 -2.5481
   83SAPS   C34 7834   0.194   6.241   9.970 -0.3637  0.0100  0.6565
   83SAPS   H4X 7835   0.111   6.300   9.925  0.2057 -0.5466 -1.1983
   83SAPS   H4Y 7836   0.174   6.133   9.951 -1.2538 -0.0870  1.9664
   83SAPS   C35 7837   0.320   6.275   9.890  0.3197 -0.6200 -0.6835
   83SAPS   H5X 7838   0.397   6.208   9.934  0.3764 -0.3492 -0.3636
   83SAPS   H5Y 7839   0.364   6.371   9.925  0.9682 -1.2578  0.3001
   83SAPS   C36 7840   0.305   6.257   9.732  0.1332 -0.4979  0.1315
   83SAPS   H6X 7841   0.253   6.350   9.700 -0.2614 -0.3487  1.1558
   83SAPS   H6Y 7842   0.240   6.169   9.714  0.8763 -1.0007 -0.1273
   83SAPS   C37 7843   0.438   6.236   9.653  1.2507 -0.2374 -0.2922
   83SAPS   H7X 7844   0.487   6.150   9.703 -0.3730 -2.1515 -1.8114
   83SAPS   H7Y 7845   0.504   6.325   9.662  0.9177 -0.0382  0.1786
   83SAPS   C38 7846   0.416   6.208   9.508  0.3522 -0.1663  0.7847
   83SAPS   H8X 7847   0.329   6.138   9.503 -0.2976  0.5326  1.9260
   83SAPS   H8Y 7848   0.508   6.166   9.462 -0.0609 -0.3941  0.1498
   83SAPS   C39 7849   0.370   6.329   9.415 -0.3858 -0.1318  0.1401
   83SAPS   H9X 7850   0.289   6.380   9.472 -1.3687 -1.7421  0.2441
   83SAPS   H9Y 7851   0.319   6.283   9.327  0.2568 -0.1871 -0.2106
   83SAPS  C310 7852   0.470   6.436   9.374 -0.7207  0.4654  0.1236
   83SAPS  H10X 7853   0.547   6.391   9.308  1.6017  0.7873  2.4331
   83SAPS  H10Y 7854   0.512   6.492   9.460  0.1138  0.6515 -0.3961
   83SAPS  C311 7855   0.392   6.536   9.286 -0.2472 -0.5150 -0.7473
   83SAPS  H11X 7856   0.448   6.628   9.258  1.6942 -1.2663  0.4750
   83SAPS  H11Y 7857   0.308   6.587   9.338 -0.3967 -0.7418 -0.7668
   83SAPS  C312 7858   0.358   6.475   9.146  0.0650  0.1074  0.4139
   83SAPS  H12X 7859   0.340   6.366   9.148 -0.2502  0.1623  0.6727
   83SAPS  H12Y 7860   0.451   6.507   9.094 -0.0220 -0.4334 -0.0808
   83SAPS  C313 7861   0.239   6.536   9.073  0.6990  0.0094  0.1011
   83SAPS  H13X 7862   0.250   6.646   9.063  0.0847  0.2929  2.1840
   83SAPS  H13Y 7863   0.150   6.522   9.137 -0.4366  1.5811 -1.0482
   83SAPS  C314 7864   0.204   6.475   8.938 -0.8793 -0.2502  0.5015
   83SAPS  H14X 7865   0.184   6.367   8.955  1.9971 -0.9027  0.2503
   83SAPS  H14Y 7866   0.293   6.488   8.873 -1.7040  0.0028 -0.6037
   83SAPS  C315 7867   0.089   6.549   8.858  0.4237  0.0002 -0.1436
   83SAPS  H15X 7868   0.131   6.650   8.842  4.1093 -1.5950 -1.4698
   83SAPS  H15Y 7869   0.001   6.570   8.923  1.1407  4.0059 -0.2762
   83SAPS  C316 7870   0.043   6.476   8.735  0.0984  0.1421  0.5486
   83SAPS  H16X 7871   0.128   6.461   8.665 -0.9784  1.9989 -1.2180
   83SAPS  H16Y 7872  -0.031   6.544   8.689 -0.8911 -0.8828  0.5929
   83SAPS  C317 7873  -0.037   6.344   8.763 -0.3447 -0.1308  0.6669
   83SAPS  H17X 7874  -0.091   6.351   8.860  1.8679  1.4118  1.8817
   83SAPS  H17Y 7875   0.038   6.263   8.778 -0.2334 -0.2030 -0.2482
   83SAPS  C318 7876  -0.130   6.294   8.651 -0.1014 -0.4426  0.0255
   83SAPS  H18X 7877  -0.074   6.254   8.563 -1.1485 -0.6104 -0.5844
   83SAPS  H18Y 7878  -0.192   6.378   8.612 -1.6281 -1.1152  0.9493
   83SAPS  H18Z 7879  -0.191   6.203   8.668 -0.1255 -0.8878 -2.0934
   84SAPS     N 7880   0.877   5.114  11.237  0.4133 -0.3536  0.1290
   84SAPS   HN1 7881   0.838   5.022  11.210 -1.7270  0.6011 -0.2514
   84SAPS   HN2 7882   0.893   5.099  11.339  4.2931  0.4090 -0.2122
   84SAPS   HN3 7883   0.808   5.188  11.213  1.7728  0.5515 -1.1387
   84SAPS   C12 7884   1.008   5.156  11.175 -0.1088 -0.2507  0.4046
   84SAPS  H12A 7885   0.984   5.193  11.077  0.0586 -0.2400  0.3655
   84SAPS   C13 7886   1.091   5.279  11.238  0.4774  0.2768 -0.1745
   84SAPS  O13A 7887   1.051   5.335  11.341 -0.5587  0.3010  0.0067
   84SAPS  O13B 7888   1.212   5.279  11.214  0.3211 -0.5027  0.2642
   84SAPS   C11 7889   1.094   5.031  11.175 -0.0635 -0.7030 -0.1080
   84SAPS  H11A 7890   1.128   5.004  11.277 -0.2454 -1.4173 -0.2298
   84SAPS  H11B 7891   1.191   5.050  11.124  0.6027  0.3379  1.4665
   84SAPS     P 7892   1.078   4.795  11.059  0.0322  0.2238  0.3508
   84SAPS   O13 7893   1.179   4.733  11.145  0.6646 -0.1031 -0.1810
   84SAPS   O14 7894   0.969   4.713  11.010  0.1729 -0.4296 -0.8160
   84SAPS   O12 7895   1.017   4.917  11.132  0.1041  0.2063  0.1782
   84SAPS   O11 7896   1.154   4.857  10.931 -0.3393  0.0177  0.4610
   84SAPS    C1 7897   1.087   4.922  10.822  0.1627 -0.0800  0.1265
   84SAPS    HA 7898   0.988   4.950  10.864  1.8837  1.8024  3.2969
   84SAPS    HB 7899   1.133   5.022  10.811  0.0854 -0.0363  0.1941
   84SAPS    C2 7900   1.094   4.849  10.676 -1.1948 -1.1467 -0.4503
   84SAPS    HS 7901   1.060   4.745  10.692 -0.4293 -1.0571  2.5537
   84SAPS   O21 7902   1.231   4.870  10.643 -0.6246 -0.7356 -0.1908
   84SAPS   C21 7903   1.287   4.780  10.557  0.7262  0.2849 -0.5771
   84SAPS   O22 7904   1.228   4.683  10.513  0.2970 -0.0327 -0.0019
   84SAPS   C22 7905   1.422   4.831  10.525 -0.3031  0.0709 -0.2128
   84SAPS   H2R 7906   1.401   4.930  10.478 -1.1480 -1.2127 -2.7513
   84SAPS   H2S 7907   1.486   4.862  10.610  1.5747  2.9792 -2.4842
   84SAPS    C3 7908   0.998   4.915  10.568  0.5809 -0.0525  0.4099
   84SAPS    HX 7909   0.998   5.023  10.594  1.8100  0.5798 -1.8953
   84SAPS    HY 7910   0.901   4.865  10.584  1.0745 -1.2788 -0.2700
   84SAPS   O31 7911   1.049   4.907  10.433  0.3546  0.2891 -0.2922
   84SAPS   C31 7912   1.010   4.800  10.364 -0.0138 -1.5399  0.3967
   84SAPS   O32 7913   0.922   4.726  10.394 -0.0874  0.4418 -0.6230
   84SAPS   C32 7914   1.089   4.809  10.236 -0.0189 -0.0151 -0.0241
   84SAPS   H2X 7915   1.194   4.810  10.271 -0.2527  1.4288  0.7141
   84SAPS   H2Y 7916   1.053   4.900  10.183 -2.3538 -2.0547 -2.2069
   84SAPS   C23 7917   1.513   4.740  10.434 -0.0523 -0.5581 -0.4414
   84SAPS   H3R 7918   1.458   4.671  10.367  1.7118 -3.0977  0.5545
   84SAPS   H3S 7919   1.566   4.665  10.496 -1.7611 -2.8901 -1.6407
   84SAPS   C24 7920   1.613   4.821  10.347  0.5116  0.2207 -0.2088
   84SAPS   H4R 7921   1.678   4.750  10.291  2.1345  0.3070  1.4787
   84SAPS   H4S 7922   1.676   4.884  10.413 -0.1444  1.5541 -0.8061
   84SAPS   C25 7923   1.536   4.920  10.264 -0.8455  0.3502  0.0081
   84SAPS   H5R 7924   1.495   5.007  10.318 -0.4890  2.0534 -2.2833
   84SAPS   C26 7925   1.510   4.910  10.130  0.6264  1.0194  0.2956
   84SAPS   H6R 7926   1.443   4.979  10.075 -1.4016 -0.6279  0.6059
   84SAPS   C27 7927   1.561   4.787  10.039  0.8190 -0.0971  0.7821
   84SAPS   H7R 7928   1.479   4.750   9.974  0.5493  0.7357  0.6297
   84SAPS   H7S 7929   1.583   4.693  10.094 -0.3583  0.4731  2.2985
   84SAPS   C28 7930   1.682   4.822   9.963  0.2837 -0.6946 -0.2767
   84SAPS   H8R 7931   1.758   4.870  10.026 -1.2205  0.3884  0.7697
   84SAPS   C29 7932   1.713   4.766   9.845 -0.1572 -0.2043  0.7977
   84SAPS   H9R 7933   1.797   4.807   9.786  1.0829 -2.5922  0.7931
   84SAPS  C210 7934   1.623   4.680   9.766  0.2158 -0.0945 -0.1202
   84SAPS  H10R 7935   1.551   4.751   9.720  2.0305  1.7716 -0.2055
   84SAPS  H10S 7936   1.571   4.602   9.827  1.4087 -0.3391  0.6067
   84SAPS  C211 7937   1.688   4.596   9.655  0.0023 -0.1879  0.0109
   84SAPS  H11R 7938   1.700   4.491   9.687  0.2191  0.4221  2.0824
   84SAPS  C212 7939   1.708   4.626   9.522 -0.2320 -0.0207  0.6912
   84SAPS  H12R 7940   1.741   4.543   9.458  0.0775  0.0699  0.7320
   84SAPS  C213 7941   1.675   4.758   9.460  0.7440  0.6250  0.1254
   84SAPS  H13R 7942   1.766   4.818   9.442  0.8951  0.0705 -1.0662
   84SAPS  H13S 7943   1.611   4.815   9.531 -1.3743 -2.6132  1.0903
   84SAPS  C214 7944   1.587   4.731   9.341 -0.6209  0.5795  0.0214
   84SAPS  H14R 7945   1.485   4.690   9.346 -0.7652  1.0907  1.8875
   84SAPS  C215 7946   1.637   4.746   9.213 -0.1890 -0.7727 -0.6622
   84SAPS  H15R 7947   1.571   4.743   9.125  0.1624 -1.3751 -0.9133
   84SAPS  C216 7948   1.778   4.786   9.177 -0.4634 -0.5170 -0.1238
   84SAPS  H16R 7949   1.840   4.778   9.269 -2.3644  0.0459  1.2746
   84SAPS  H16S 7950   1.792   4.892   9.148 -0.9658  0.1298  1.8209
   84SAPS  C217 7951   1.845   4.688   9.074  0.1135  0.3514 -0.1244
   84SAPS  H17R 7952   1.864   4.586   9.112  0.6696  0.1977 -0.7848
   84SAPS  H17S 7953   1.936   4.732   9.028 -0.4587  0.6783 -0.9807
   84SAPS  C218 7954   1.755   4.662   8.949  0.0567  0.6485  0.2695
   84SAPS  H18R 7955   1.674   4.737   8.938 -1.0137 -0.4386  0.4490
   84SAPS  H18S 7956   1.705   4.565   8.968  0.1126  0.5751  0.0394
   84SAPS  C219 7957   1.840   4.661   8.821  0.6071  0.7269 -1.3779
   84SAPS  H19R 7958   1.923   4.591   8.841  1.6034  1.7126 -1.9371
   84SAPS  H19S 7959   1.901   4.754   8.819 -0.7108  1.6631 -3.9208
   84SAPS  C220 7960   1.773   4.620   8.695  0.4144 -0.5642  1.2772
   84SAPS  H20R 7961   1.677   4.673   8.678  0.1398 -1.3635  0.1728
   84SAPS  H20S 7962   1.743   4.514   8.702 -1.7818 -0.0770  0.1388
   84SAPS  H20T 7963   1.844   4.622   8.609  2.6949 -1.9074  3.0292
   84SAPS   C33 7964   1.057   4.697  10.137  0.0374  0.7237 -0.0690
   84SAPS   H3X 7965   0.953   4.698  10.096  0.9701 -0.1574 -2.6693
   84SAPS   H3Y 7966   1.079   4.596  10.177 -0.7585  0.8423  0.7080
   84SAPS   C34 7967   1.157   4.708  10.024 -0.2706 -0.1895  0.2954
   84SAPS   H4X 7968   1.261   4.693  10.062 -0.5502 -1.3853  0.6089
   84SAPS   H4Y 7969   1.176   4.811   9.986  0.4847  0.1034  1.4288
   84SAPS   C35 7970   1.129   4.626   9.901 -0.1929  0.0584  0.0075
   84SAPS   H5X 7971   1.021   4.643   9.880  0.1979  4.2861  0.6153
   84SAPS   H5Y 7972   1.136   4.516   9.912 -0.1387 -0.0431 -0.9269
   84SAPS   C36 7973   1.224   4.658   9.785  0.7963  0.1072 -0.7149
   84SAPS   H6X 7974   1.326   4.625   9.811 -0.1929 -3.4228 -0.8207
   84SAPS   H6Y 7975   1.225   4.769   9.779 -0.0843  0.1880  0.2788
   84SAPS   C37 7976   1.185   4.573   9.667 -0.7048  0.0829 -0.8018
   84SAPS   H7X 7977   1.086   4.603   9.627 -0.1113  1.4135 -1.3401
   84SAPS   H7Y 7978   1.165   4.468   9.696  0.0969 -0.0623 -0.7531
   84SAPS   C38 7979   1.298   4.563   9.564  0.2408  0.2641  0.4838
   84SAPS   H8X 7980   1.374   4.490   9.601  1.6161  0.7662 -1.1871
   84SAPS   H8Y 7981   1.348   4.660   9.543  0.3102 -0.2816 -2.3445
   84SAPS   C39 7982   1.236   4.525   9.427  0.2075 -0.4082 -0.4897
   84SAPS   H9X 7983   1.187   4.426   9.428 -0.7810  0.0414 -1.7009
   84SAPS   H9Y 7984   1.320   4.525   9.354  0.5452  2.4591 -0.2288
   84SAPS  C310 7985   1.135   4.624   9.362  0.4564  0.3452 -0.4180
   84SAPS  H10X 7986   1.187   4.721   9.377  0.1171  0.8245 -2.0647
   84SAPS  H10Y 7987   1.033   4.625   9.407  0.4129 -0.2023 -0.4904
   84SAPS  C311 7988   1.112   4.593   9.208  0.3852 -0.2540  0.0017
   84SAPS  H11X 7989   1.007   4.624   9.185  0.3880  0.2504  0.6361
   84SAPS  H11Y 7990   1.099   4.484   9.191 -2.1153 -0.5056  2.7161
   84SAPS  C312 7991   1.223   4.655   9.113  1.0316  0.1660 -0.0347
   84SAPS  H12X 7992   1.311   4.587   9.116  1.3860  0.6314  0.1353
   84SAPS  H12Y 7993   1.265   4.754   9.139 -0.8291  0.7881  0.6940
   84SAPS  C313 7994   1.174   4.664   8.968 -0.4507 -0.5502 -0.5218
   84SAPS  H13X 7995   1.115   4.757   8.961  2.1905  1.4603  1.5307
   84SAPS  H13Y 7996   1.106   4.581   8.937 -0.9585 -0.0223 -0.8391
   84SAPS  C314 7997   1.291   4.676   8.866  0.9039 -0.6434 -1.2269
   84SAPS  H14X 7998   1.348   4.581   8.877 -0.1215 -1.1194  0.4641
   84SAPS  H14Y 7999   1.353   4.760   8.903 -0.1565 -0.1155 -0.5704
   84SAPS  C315 8000   1.246   4.709   8.722 -0.9622  0.1459  0.0921
   84SAPS  H15X 8001   1.191   4.805   8.714 -1.8627 -0.1197  2.3265
   84SAPS  H15Y 8002   1.165   4.638   8.695  1.6676 -2.5652 -1.3676
   84SAPS  C316 8003   1.363   4.697   8.616 -0.2949 -0.3463  0.4750
   84SAPS  H16X 8004   1.432   4.614   8.644 -1.7025 -1.5286  0.5233
   84SAPS  H16Y 8005   1.439   4.777   8.630 -0.9574  0.2603  0.6241
   84SAPS  C317 8006   1.325   4.711   8.468 -0.1327 -0.2544 -0.0936
   84SAPS  H17X 8007   1.266   4.620   8.446  1.5620 -1.2433 -0.7153
   84SAPS  H17Y 8008   1.419   4.694   8.412  0.1774  0.4809  0.1851
   84SAPS  C318 8009   1.271   4.841   8.413  0.1654  0.1744  0.3087
   84SAPS  H18X 8010   1.348   4.919   8.429  0.1999 -0.0848  1.5405
   84SAPS  H18Y 8011   1.177   4.887   8.452  1.0036  2.6081 -0.4240
   84SAPS  H18Z 8012   1.276   4.829   8.303  2.2810 -0.9602  0.4761
   85SAPS     N 8013   4.443   1.709  11.044  0.7910 -0.4201 -0.1520
   85SAPS   HN1 8014   4.365   1.705  10.976 -0.2748  0.3462  0.9765
   85SAPS   HN2 8015   4.501   1.623  11.030  0.2853 -1.0840  1.5653
   85SAPS   HN3 8016   4.399   1.694  11.137 -2.5022  1.1609 -1.3208
   85SAPS   C12 8017   4.525   1.830  11.039  0.2477  0.4707  0.4967
   85SAPS  H12A 8018   4.467   1.909  11.084 -2.4568 -1.2532  0.2453
   85SAPS   C13 8019   4.660   1.816  11.119  1.2302  0.1323  0.4992
   85SAPS  O13A 8020   4.694   1.709  11.178 -0.2966 -0.3369 -0.0543
   85SAPS  O13B 8021   4.714   1.926  11.136 -0.5797  0.2357  0.7243
   85SAPS   C11 8022   4.550   1.872  10.894  0.7526  0.3022 -0.3612
   85SAPS  H11A 8023   4.607   1.793  10.841  1.1455  1.0215 -1.0505
   85SAPS  H11B 8024   4.609   1.966  10.887 -0.4646  1.1326  0.1541
   85SAPS     P 8025   4.373   1.997  10.739  0.0023  0.2415  0.0318
   85SAPS   O13 8026   4.232   1.974  10.722  0.5434  0.3572 -0.4565
   85SAPS   O14 8027   4.408   2.122  10.805 -0.0266  0.0573  0.0666
   85SAPS   O12 8028   4.422   1.873  10.826 -0.1325 -0.4664  0.4396
   85SAPS   O11 8029   4.454   1.994  10.597 -0.2149 -0.2005  0.3781
   85SAPS    C1 8030   4.586   2.054  10.592 -0.6241  0.1068 -0.1937
   85SAPS    HA 8031   4.570   2.159  10.561 -1.6513 -0.4334 -1.6610
   85SAPS    HB 8032   4.650   2.036  10.681  0.0839 -2.4282 -1.1107
   85SAPS    C2 8033   4.665   1.976  10.481  0.1895  0.1452 -0.0252
   85SAPS    HS 8034   4.760   2.029  10.459  2.6787 -4.2522 -1.0969
   85SAPS   O21 8035   4.584   1.957  10.361  0.3768 -0.0745 -0.9708
   85SAPS   C21 8036   4.599   2.044  10.269 -0.0533  0.2483  0.1009
   85SAPS   O22 8037   4.670   2.143  10.273 -0.3898 -0.8222 -0.0043
   85SAPS   C22 8038   4.515   2.001  10.153 -0.6875  0.1853 -0.5370
   85SAPS   H2R 8039   4.530   1.892  10.138 -1.6902 -0.2605  1.3908
   85SAPS   H2S 8040   4.415   2.030  10.191  0.7790  3.7371  1.0125
   85SAPS    C3 8041   4.713   1.840  10.528  0.0632 -0.0331  0.4228
   85SAPS    HX 8042   4.621   1.787  10.561  0.5430 -1.6684 -0.6842
   85SAPS    HY 8043   4.773   1.846  10.622  0.7240 -3.1207  0.3089
   85SAPS   O31 8044   4.785   1.774  10.415 -0.0107 -0.8959  0.4216
   85SAPS   C31 8045   4.927   1.794  10.403  0.4186  0.4971 -0.9652
   85SAPS   O32 8046   4.985   1.871  10.475 -0.2622 -1.2136  0.4077
   85SAPS   C32 8047   4.988   1.699  10.299  0.3229 -0.0037  0.0836
   85SAPS   H2X 8048   4.915   1.629  10.253  0.0116  0.3519  0.0290
   85SAPS   H2Y 8049   5.074   1.648  10.349  0.4843  0.8575  0.7073
   85SAPS   C23 8050   4.547   2.080  10.022  0.5363 -0.0523 -0.6142
   85SAPS   H3R 8051   4.650   2.061   9.987  1.4250 -1.3260  2.4043
   85SAPS   H3S 8052   4.555   2.188  10.048 -2.7582 -0.0170  0.7751
   85SAPS   C24 8053   4.428   2.083   9.918  0.4830  0.1445 -0.2097
   85SAPS   H4R 8054   4.460   2.140   9.829  0.1341  0.4807 -0.1184
   85SAPS   H4S 8055   4.354   2.143   9.976 -0.5488 -0.1673 -1.1700
   85SAPS   C25 8056   4.369   1.945   9.886 -0.0889 -0.3362 -0.4543
   85SAPS   H5R 8057   4.403   1.861   9.948 -2.2776 -1.1917 -0.3314
   85SAPS   C26 8058   4.289   1.921   9.784  0.3793 -0.1614  0.4579
   85SAPS   H6R 8059   4.245   1.821   9.770  2.9807 -1.0618 -2.3320
   85SAPS   C27 8060   4.226   2.030   9.696 -1.5324  0.3766  0.6902
   85SAPS   H7R 8061   4.269   2.014   9.595  0.4930 -0.2052  1.5940
   85SAPS   H7S 8062   4.237   2.137   9.724 -3.5937  0.8632 -0.1640
   85SAPS   C28 8063   4.079   2.005   9.690  0.4889 -0.2825 -0.6797
   85SAPS   H8R 8064   4.024   1.995   9.785 -2.4322  3.2517 -1.7927
   85SAPS   C29 8065   3.996   2.020   9.583  0.5730 -0.1787 -0.4273
   85SAPS   H9R 8066   3.888   2.007   9.598  0.6693  2.0366  3.4376
   85SAPS  C210 8067   4.039   2.044   9.446 -0.2184  0.2592 -0.1970
   85SAPS  H10R 8068   4.080   2.147   9.449 -2.1365  1.0419  1.1837
   85SAPS  H10S 8069   3.952   2.047   9.377 -0.5718 -0.5872  0.1988
   85SAPS  C211 8070   4.145   1.953   9.384  1.0326  0.7895  0.0419
   85SAPS  H11R 8071   4.148   1.852   9.427  1.6859 -0.9881 -3.8199
   85SAPS  C212 8072   4.222   1.981   9.282 -0.3353  0.3894 -0.0686
   85SAPS  H12R 8073   4.267   1.899   9.225 -0.4319 -0.3738  0.9132
   85SAPS  C213 8074   4.211   2.114   9.210 -0.3445 -0.3758 -0.5380
   85SAPS  H13R 8075   4.312   2.145   9.173 -0.7368 -0.0320 -1.3516
   85SAPS  H13S 8076   4.183   2.194   9.281  0.1174  0.3300 -1.1279
   85SAPS  C214 8077   4.108   2.120   9.101 -0.6716  0.0183 -0.5525
   85SAPS  H14R 8078   4.013   2.071   9.126  0.1743 -0.9457  0.8793
   85SAPS  C215 8079   4.132   2.142   8.976  0.0057 -0.0409  0.6244
   85SAPS  H15R 8080   4.043   2.137   8.911  1.5608 -0.8622 -1.5911
   85SAPS  C216 8081   4.267   2.160   8.909 -0.1907 -0.3141  0.0398
   85SAPS  H16R 8082   4.350   2.176   8.982 -3.0262 -2.7385  4.2870
   85SAPS  H16S 8083   4.270   2.247   8.840  2.6929 -0.4824 -0.1662
   85SAPS  C217 8084   4.281   2.035   8.816 -0.1874 -1.0930  0.5949
   85SAPS  H17R 8085   4.204   2.033   8.736  1.4066  1.2662 -1.1476
   85SAPS  H17S 8086   4.280   1.940   8.872  2.5293 -1.6228 -0.0897
   85SAPS  C218 8087   4.418   2.035   8.752  0.1949 -0.5558  0.6383
   85SAPS  H18R 8088   4.501   2.030   8.826 -0.0328  1.0865  1.0460
   85SAPS  H18S 8089   4.427   2.130   8.695 -2.5662 -0.7600 -0.2458
   85SAPS  C219 8090   4.436   1.919   8.652 -0.1931  0.5720  0.4766
   85SAPS  H19R 8091   4.370   1.932   8.564  0.9419  0.4389 -0.4333
   85SAPS  H19S 8092   4.404   1.821   8.694  2.2358  0.1632  1.5743
   85SAPS  C220 8093   4.584   1.911   8.607  0.0477  0.0643  0.2081
   85SAPS  H20R 8094   4.660   1.880   8.681  2.7874 -0.1591 -2.4952
   85SAPS  H20S 8095   4.609   2.017   8.583  0.5585 -0.0256  0.3330
   85SAPS  H20T 8096   4.596   1.840   8.523 -0.7519 -1.2652  1.1789
   85SAPS   C33 8097   5.065   1.781  10.192  0.3565 -0.6239 -0.1939
   85SAPS   H3X 8098   5.109   1.724  10.107  2.9061  2.6280 -1.3055
   85SAPS   H3Y 8099   5.148   1.836  10.242  0.9770 -2.1303  0.4716
   85SAPS   C34 8100   4.969   1.871  10.109  0.2788 -0.9224  0.2273
   85SAPS   H4X 8101   4.910   1.937  10.177 -0.2245 -0.5539 -0.5404
   85SAPS   H4Y 8102   4.901   1.798  10.059  1.1868 -2.7934  1.6131
   85SAPS   C35 8103   5.046   1.970  10.021 -0.0946 -0.2896  0.8276
   85SAPS   H5X 8104   5.121   1.914   9.960 -2.5604  1.1067 -4.0385
   85SAPS   H5Y 8105   5.095   2.035  10.096 -0.2170  0.1191  0.5569
   85SAPS   C36 8106   4.966   2.071   9.937  0.0065  0.0884 -0.1303
   85SAPS   H6X 8107   5.029   2.155   9.902 -2.6124  3.0162  1.6001
   85SAPS   H6Y 8108   4.896   2.131  10.000  1.9384  1.5295  0.7199
   85SAPS   C37 8109   4.895   2.008   9.809  0.3287 -0.2878  0.1139
   85SAPS   H7X 8110   4.835   1.917   9.830  2.8627 -2.0823  0.1020
   85SAPS   H7Y 8111   4.975   1.977   9.739 -1.9549 -3.1151 -1.4567
   85SAPS   C38 8112   4.802   2.104   9.735  0.1288  0.9643 -0.1156
   85SAPS   H8X 8113   4.873   2.179   9.694 -0.7090  1.2053 -1.1656
   85SAPS   H8Y 8114   4.738   2.156   9.809  0.4218  1.1573  0.0058
   85SAPS   C39 8115   4.716   2.044   9.620  0.1597  0.3524 -0.0335
   85SAPS   H9X 8116   4.645   2.128   9.602  0.4749  1.5634  3.6018
   85SAPS   H9Y 8117   4.661   1.952   9.651  1.4087 -0.4326 -0.0601
   85SAPS  C310 8118   4.795   2.001   9.499  0.1385  0.4715 -0.0049
   85SAPS  H10X 8119   4.866   1.918   9.522 -0.3128 -0.1518 -0.7876
   85SAPS  H10Y 8120   4.848   2.093   9.470 -0.3685  2.0366  3.5047
   85SAPS  C311 8121   4.711   1.959   9.378  0.0938 -1.1030  0.7465
   85SAPS  H11X 8122   4.638   2.042   9.370  1.9126  0.5744  0.8049
   85SAPS  H11Y 8123   4.658   1.862   9.387  1.2168 -1.7344  0.7037
   85SAPS  C312 8124   4.804   1.946   9.252 -0.0787  0.0238  0.0482
   85SAPS  H12X 8125   4.899   1.899   9.282 -0.0371  1.0163  1.5705
   85SAPS  H12Y 8126   4.820   2.048   9.210  2.1841  0.0313  0.8061
   85SAPS  C313 8127   4.742   1.862   9.138  0.3732  0.6971 -0.5926
   85SAPS  H13X 8128   4.649   1.907   9.098 -0.0544 -1.1708 -1.8005
   85SAPS  H13Y 8129   4.723   1.765   9.188  0.0205  1.1444  0.1648
   85SAPS  C314 8130   4.844   1.837   9.027 -0.1467  0.0136  0.1915
   85SAPS  H14X 8131   4.809   1.762   8.953  2.7983  0.3586 -1.7160
   85SAPS  H14Y 8132   4.943   1.805   9.066  0.7906 -0.2720 -2.2436
   85SAPS  C315 8133   4.864   1.957   8.935  0.0396  0.4987 -0.1368
   85SAPS  H15X 8134   4.893   2.050   8.989 -0.3929 -0.1821  1.3353
   85SAPS  H15Y 8135   4.771   1.981   8.880 -0.8900 -0.7737  0.8279
   85SAPS  C316 8136   4.976   1.922   8.839  0.0973  0.7177 -0.1553
   85SAPS  H16X 8137   4.962   1.817   8.803 -1.0283  1.1706 -1.0993
   85SAPS  H16Y 8138   5.078   1.920   8.884  0.3930 -0.6013 -0.8200
   85SAPS  C317 8139   4.973   2.009   8.714  0.9682  0.2897 -0.7939
   85SAPS  H17X 8140   5.001   2.114   8.735  3.0442 -0.6309  1.5494
   85SAPS  H17Y 8141   4.875   1.990   8.665  0.3883  0.9234  0.0883
   85SAPS  C318 8142   5.083   1.981   8.607 -0.6610  0.5647 -0.5483
   85SAPS  H18X 8143   5.181   1.970   8.658 -1.5077  0.9667  1.2301
   85SAPS  H18Y 8144   5.093   2.048   8.519 -2.8144  1.4102 -0.2033
   85SAPS  H18Z 8145   5.061   1.882   8.562 -0.0628  1.1302 -2.1701
   86SAPS     N 8146   1.359   6.582  10.908 -0.2050  0.4842 -0.0204
   86SAPS   HN1 8147   1.366   6.478  10.918 -0.8357  0.0435 -3.0896
   86SAPS   HN2 8148   1.424   6.611  10.832 -0.2818 -0.0459 -0.2933
   86SAPS   HN3 8149   1.396   6.619  10.997 -0.5567  0.7437  0.0230
   86SAPS   C12 8150   1.222   6.628  10.883  0.0349 -0.3823  0.2091
   86SAPS  H12A 8151   1.207   6.611  10.777  1.0792  2.9215 -0.6020
   86SAPS   C13 8152   1.109   6.547  10.958  0.0475  0.5800  0.1297
   86SAPS  O13A 8153   1.128   6.447  11.030  0.2616 -0.8037 -0.2092
   86SAPS  O13B 8154   0.989   6.598  10.956 -0.9132 -0.0058 -0.7053
   86SAPS   C11 8155   1.222   6.781  10.911  0.5566 -0.1327  0.2907
   86SAPS  H11A 8156   1.265   6.795  11.012 -2.9360 -0.2780  1.9370
   86SAPS  H11B 8157   1.117   6.817  10.910  0.8913  0.8874 -0.0316
   86SAPS     P 8158   1.309   7.006  10.820  0.1960 -0.4088  0.2054
   86SAPS   O13 8159   1.249   7.047  10.951  0.8619 -0.6239 -0.5620
   86SAPS   O14 8160   1.449   7.039  10.799  0.2375  0.1131 -0.0192
   86SAPS   O12 8161   1.292   6.845  10.805  0.3967 -0.4119  0.4045
   86SAPS   O11 8162   1.218   7.067  10.703  0.2702  0.5618  0.4874
   86SAPS    C1 8163   1.081   7.024  10.698 -0.3610  0.0964  0.2379
   86SAPS    HA 8164   1.052   6.947  10.772  1.1389 -0.7046  0.0292
   86SAPS    HB 8165   1.024   7.118  10.713  2.4107  2.0909 -0.7097
   86SAPS    C2 8166   1.046   6.975  10.556 -0.0287 -0.7450  0.0200
   86SAPS    HS 8167   1.119   6.893  10.536  0.3052  0.0487 -2.3744
   86SAPS   O21 8168   1.071   7.085  10.458 -0.5472  0.1685  0.3309
   86SAPS   C21 8169   1.161   7.061  10.372 -0.5579  0.1978 -0.0533
   86SAPS   O22 8170   1.223   6.959  10.351  0.1919 -0.3116  0.2224
   86SAPS   C22 8171   1.174   7.177  10.276  0.5023 -0.2294  0.3712
   86SAPS   H2R 8172   1.136   7.268  10.328  0.0708 -1.3197  2.0803
   86SAPS   H2S 8173   1.280   7.198  10.252  0.8302 -0.1249  1.7775
   86SAPS    C3 8174   0.895   6.935  10.540 -0.2829 -0.4910  0.0830
   86SAPS    HX 8175   0.834   7.027  10.553  1.3215  0.6232  0.0685
   86SAPS    HY 8176   0.883   6.866  10.627 -0.2311 -1.5870 -0.7531
   86SAPS   O31 8177   0.876   6.861  10.415 -0.0470 -0.0883  0.5937
   86SAPS   C31 8178   0.788   6.912  10.326  0.3914  0.2626  0.5244
   86SAPS   O32 8179   0.715   7.006  10.345  0.7249  0.0368 -0.4115
   86SAPS   C32 8180   0.804   6.829  10.194  0.4390 -0.4775 -0.9652
   86SAPS   H2X 8181   0.779   6.724  10.220  2.9003 -0.7093  0.7935
   86SAPS   H2Y 8182   0.911   6.820  10.169  0.3666  1.2613 -2.0437
   86SAPS   C23 8183   1.089   7.158  10.150  0.2383  0.0375  0.7281
   86SAPS   H3R 8184   0.983   7.148  10.180  0.6452  0.1836  2.2913
   86SAPS   H3S 8185   1.127   7.065  10.102  0.1178  0.9341 -1.2046
   86SAPS   C24 8186   1.102   7.271  10.052 -0.3667 -0.3127  0.0987
   86SAPS   H4R 8187   1.071   7.364  10.104 -0.1986  0.5096 -1.2241
   86SAPS   H4S 8188   1.039   7.252   9.962  1.5834  0.2047 -1.4369
   86SAPS   C25 8189   1.242   7.290  10.002  0.7140  0.2237 -0.6594
   86SAPS   H5R 8190   1.319   7.313  10.076 -1.6343  2.0848  1.3795
   86SAPS   C26 8191   1.287   7.282   9.877  0.8004  0.3705  0.2298
   86SAPS   H6R 8192   1.394   7.303   9.867  0.9521 -0.3574  0.2188
   86SAPS   C27 8193   1.205   7.253   9.750 -0.1976  0.2542  0.2854
   86SAPS   H7R 8194   1.125   7.177   9.768  0.5044 -0.8590 -1.0823
   86SAPS   H7S 8195   1.278   7.208   9.680  0.5088  2.6465 -0.5883
   86SAPS   C28 8196   1.133   7.376   9.691  0.1027  0.5689 -0.4390
   86SAPS   H8R 8197   1.075   7.436   9.762  0.0973 -0.3859  0.3927
   86SAPS   C29 8198   1.140   7.419   9.561 -0.6161 -0.1246  0.9465
   86SAPS   H9R 8199   1.094   7.514   9.528  2.8641  0.4192 -3.2961
   86SAPS  C210 8200   1.233   7.354   9.457 -0.2419  0.1554 -1.2335
   86SAPS  H10R 8201   1.317   7.300   9.505 -0.0174  2.2713  0.9694
   86SAPS  H10S 8202   1.287   7.433   9.401 -0.8542  1.0716 -0.5650
   86SAPS  C211 8203   1.139   7.265   9.372  0.0399  0.2269  0.1123
   86SAPS  H11R 8204   1.038   7.243   9.411  0.0640  0.9459  0.5914
   86SAPS  C212 8205   1.178   7.199   9.264  0.3210 -0.2132  0.2038
   86SAPS  H12R 8206   1.099   7.144   9.210 -1.4933  2.4822 -0.1359
   86SAPS  C213 8207   1.317   7.200   9.193  0.6601 -0.6215  0.0110
   86SAPS  H13R 8208   1.395   7.254   9.251  0.1005 -0.8488  0.9970
   86SAPS  H13S 8209   1.306   7.273   9.110 -0.8703 -0.6576  0.1626
   86SAPS  C214 8210   1.350   7.063   9.144 -0.1799 -0.2403 -0.0188
   86SAPS  H14R 8211   1.400   7.005   9.223  0.3929  1.1284  0.6636
   86SAPS  C215 8212   1.322   7.013   9.022  0.3599 -0.7111 -0.3669
   86SAPS  H15R 8213   1.367   6.915   9.001  2.5382  0.0774  0.3566
   86SAPS  C216 8214   1.249   7.082   8.907 -0.1142  1.4662 -0.0862
   86SAPS  H16R 8215   1.199   7.177   8.936 -0.8377  0.5948  1.7000
   86SAPS  H16S 8216   1.169   7.023   8.858  0.4561 -0.6160  1.3450
   86SAPS  C217 8217   1.349   7.109   8.792  0.3892  0.1574 -0.2714
   86SAPS  H17R 8218   1.428   7.034   8.777 -1.9145 -2.4763 -0.0821
   86SAPS  H17S 8219   1.407   7.202   8.809 -2.1153  2.0128 -1.1328
   86SAPS  C218 8220   1.277   7.117   8.658 -0.2566  0.0617 -0.2276
   86SAPS  H18R 8221   1.209   7.204   8.670 -3.4697 -2.1168 -1.3216
   86SAPS  H18S 8222   1.214   7.026   8.644  1.1580 -0.7445 -1.7259
   86SAPS  C219 8223   1.366   7.115   8.535  0.1829 -0.3838  0.1829
   86SAPS  H19R 8224   1.433   7.203   8.529 -1.2367  0.6409 -1.3855
   86SAPS  H19S 8225   1.304   7.117   8.443  0.4663  0.4153  0.0054
   86SAPS  C220 8226   1.455   6.992   8.529 -0.1669  0.2628 -0.2488
   86SAPS  H20R 8227   1.511   6.969   8.622 -1.5043 -1.6790  0.1314
   86SAPS  H20S 8228   1.534   6.998   8.451  0.4388  0.5871  0.3781
   86SAPS  H20T 8229   1.389   6.905   8.508  2.3915 -1.1089 -3.5019
   86SAPS   C33 8230   0.724   6.879  10.078 -0.9533  0.5638 -0.2308
   86SAPS   H3X 8231   0.751   6.986  10.068 -1.7321  0.8887  0.9926
   86SAPS   H3Y 8232   0.615   6.880  10.098 -1.2455 -1.5819 -1.3768
   86SAPS   C34 8233   0.755   6.804   9.943  0.0634  0.7064  0.5539
   86SAPS   H4X 8234   0.735   6.695   9.953  2.4881 -0.0900 -1.8744
   86SAPS   H4Y 8235   0.865   6.815   9.925 -0.2631  1.8078 -0.9893
   86SAPS   C35 8236   0.673   6.841   9.818  0.6297  0.0334 -0.4945
   86SAPS   H5X 8237   0.657   6.951   9.823 -0.3707 -0.1403  0.9932
   86SAPS   H5Y 8238   0.576   6.790   9.836  0.5388  0.5166  0.4517
   86SAPS   C36 8239   0.724   6.803   9.681 -0.7564  0.1943 -0.2340
   86SAPS   H6X 8240   0.735   6.694   9.663  1.6046  0.7138 -2.5336
   86SAPS   H6Y 8241   0.821   6.854   9.662 -0.2475 -0.0118  1.6909
   86SAPS   C37 8242   0.627   6.857   9.571 -0.1791  0.5709  0.1829
   86SAPS   H7X 8243   0.627   6.968   9.582 -1.1537  0.5303  0.7510
   86SAPS   H7Y 8244   0.524   6.821   9.594 -0.6074  2.9121  2.4683
   86SAPS   C38 8245   0.672   6.824   9.434 -0.2737 -0.2444 -0.0730
   86SAPS   H8X 8246   0.695   6.717   9.415  2.7156  0.1214  1.0983
   86SAPS   H8Y 8247   0.769   6.875   9.418 -0.2308 -0.3728 -0.2195
   86SAPS   C39 8248   0.577   6.876   9.333 -0.4023  0.0152 -0.9632
   86SAPS   H9X 8249   0.558   6.982   9.359  1.1371  0.1695 -0.3638
   86SAPS   H9Y 8250   0.483   6.817   9.341  0.1265 -0.5679  2.1696
   86SAPS  C310 8251   0.624   6.858   9.187 -0.2484  0.0423 -0.7599
   86SAPS  H10X 8252   0.692   6.770   9.191  0.4202  0.5811  1.5308
   86SAPS  H10Y 8253   0.682   6.945   9.149  0.6986 -1.9057 -4.1850
   86SAPS  C311 8254   0.518   6.837   9.084  0.0316 -0.2019  0.3745
   86SAPS  H11X 8255   0.455   6.929   9.079 -0.2479 -0.4311 -0.4224
   86SAPS  H11Y 8256   0.445   6.763   9.123 -0.7534  0.5831  0.4577
   86SAPS  C312 8257   0.565   6.799   8.937  0.8306  0.3464  0.5721
   86SAPS  H12X 8258   0.597   6.694   8.923  1.2752  0.6974 -1.3608
   86SAPS  H12Y 8259   0.653   6.861   8.909  1.6656 -1.0558 -0.0199
   86SAPS  C313 8260   0.454   6.810   8.837 -0.1444 -0.5001  0.7825
   86SAPS  H13X 8261   0.413   6.913   8.833  1.3923  0.1300  0.3606
   86SAPS  H13Y 8262   0.377   6.733   8.860  1.7188 -2.4467  0.7748
   86SAPS  C314 8263   0.503   6.782   8.693  0.0160 -0.4115  0.0253
   86SAPS  H14X 8264   0.521   6.673   8.698  1.6237 -0.3203 -2.1773
   86SAPS  H14Y 8265   0.599   6.823   8.654 -0.4304 -1.9761 -3.0280
   86SAPS  C315 8266   0.399   6.821   8.588  0.4468  0.0399  0.2355
   86SAPS  H15X 8267   0.457   6.829   8.493 -0.4308  1.5638 -0.1970
   86SAPS  H15Y 8268   0.356   6.923   8.599  1.0823  0.5404 -1.5457
   86SAPS  C316 8269   0.283   6.713   8.568  0.0272  0.0673 -0.0339
   86SAPS  H16X 8270   0.197   6.746   8.631  0.7985  0.2533  0.9532
   86SAPS  H16Y 8271   0.323   6.614   8.600  0.5046  0.4538  0.5845
   86SAPS  C317 8272   0.240   6.717   8.423 -0.7485 -0.0086  0.2890
   86SAPS  H17X 8273   0.325   6.688   8.358 -0.0785 -1.9522  1.9181
   86SAPS  H17Y 8274   0.215   6.824   8.403 -0.0185 -0.2103 -1.9862
   86SAPS  C318 8275   0.123   6.623   8.383 -0.3193 -0.0378 -0.3419
   86SAPS  H18X 8276   0.032   6.637   8.445 -0.5986 -0.6065 -0.6200
   86SAPS  H18Y 8277   0.151   6.516   8.383 -1.2097 -0.4014 -4.1250
   86SAPS  H18Z 8278   0.090   6.632   8.278 -1.8601  0.0204  0.1188
   87SAPS     N 8279   1.587   2.371  10.796 -1.5172  0.4552 -0.2410
   87SAPS   HN1 8280   1.518   2.296  10.815 -0.6349 -0.4136 -0.3529
   87SAPS   HN2 8281   1.564   2.456  10.852  1.2081  1.3502 -0.3188
   87SAPS   HN3 8282   1.589   2.404  10.697 -0.3798 -1.7254 -1.0151
   87SAPS   C12 8283   1.726   2.313  10.835 -0.2286 -0.0786  0.0878
   87SAPS  H12A 8284   1.787   2.375  10.772 -1.5309 -0.5933 -1.7696
   87SAPS   C13 8285   1.768   2.326  10.982 -0.6069  0.1570  0.0451
   87SAPS  O13A 8286   1.691   2.366  11.068  0.1732  0.0298 -0.7325
   87SAPS  O13B 8287   1.890   2.300  11.010  0.1292 -0.8752 -0.1476
   87SAPS   C11 8288   1.747   2.171  10.779 -0.6118 -0.1048  0.1751
   87SAPS  H11A 8289   1.851   2.143  10.809 -1.5197 -0.6175  3.2529
   87SAPS  H11B 8290   1.753   2.176  10.669 -1.1407 -1.6611  0.0691
   87SAPS     P 8291   1.616   1.940  10.758  0.1599  0.4289  0.5887
   87SAPS   O13 8292   1.735   1.854  10.781  0.2451 -0.0708  0.2859
   87SAPS   O14 8293   1.498   1.887  10.826  0.3010  0.0081 -0.2926
   87SAPS   O12 8294   1.650   2.077  10.821  0.1759  0.8018  0.7277
   87SAPS   O11 8295   1.605   1.979  10.608 -0.1029 -1.0616  0.3488
   87SAPS    C1 8296   1.490   2.058  10.565 -0.3813  0.4136  0.0705
   87SAPS    HA 8297   1.458   2.133  10.640 -0.1355  0.5574  0.0347
   87SAPS    HB 8298   1.517   2.112  10.471  1.4071 -0.8170 -0.1780
   87SAPS    C2 8299   1.372   1.967  10.522  0.4648  0.3754 -0.2767
   87SAPS    HS 8300   1.342   1.909  10.612 -1.6102  0.6926 -0.7203
   87SAPS   O21 8301   1.415   1.879  10.416 -0.4682 -0.1346 -0.2195
   87SAPS   C21 8302   1.464   1.762  10.452  0.2318 -0.3039  0.2555
   87SAPS   O22 8303   1.448   1.714  10.564 -0.1895 -0.5085  0.1921
   87SAPS   C22 8304   1.541   1.705  10.342  0.2652 -0.1845  0.1347
   87SAPS   H2R 8305   1.536   1.766  10.249  0.2576  1.0578  0.9431
   87SAPS   H2S 8306   1.646   1.693  10.377  0.0713  1.0591  1.2134
   87SAPS    C3 8307   1.244   2.049  10.480 -0.0128 -0.0056  0.1678
   87SAPS    HX 8308   1.281   2.129  10.412 -0.5138  2.2873  2.4384
   87SAPS    HY 8309   1.212   2.102  10.572  3.8156 -0.4719  1.9916
   87SAPS   O31 8310   1.136   1.963  10.432  0.1059 -0.1032 -0.1848
   87SAPS   C31 8311   1.084   1.990  10.307 -0.1242  0.2921 -0.8239
   87SAPS   O32 8312   1.108   2.088  10.242 -0.1749  0.5276 -0.0202
   87SAPS   C32 8313   1.004   1.865  10.265 -0.0684  0.4797  0.5252
   87SAPS   H2X 8314   0.932   1.856  10.349  0.2961 -1.3946  0.6804
   87SAPS   H2Y 8315   1.068   1.775  10.259  0.8734  1.2065 -1.1910
   87SAPS   C23 8316   1.485   1.559  10.308  0.9269  0.2249  0.2604
   87SAPS   H3R 8317   1.444   1.501  10.393 -0.2076 -0.9430 -1.0352
   87SAPS   H3S 8318   1.573   1.502  10.272  0.0169 -1.2953  0.3593
   87SAPS   C24 8319   1.362   1.560  10.207 -1.4619 -0.0071 -0.0757
   87SAPS   H4R 8320   1.396   1.612  10.115 -1.2539  1.0481  0.5729
   87SAPS   H4S 8321   1.278   1.615  10.256  0.7584  0.8900  3.0702
   87SAPS   C25 8322   1.326   1.416  10.165  0.1341 -0.4065 -1.0094
   87SAPS   H5R 8323   1.372   1.334  10.222  0.3574  0.5451  0.2415
   87SAPS   C26 8324   1.249   1.379  10.059  1.2882  0.2699  0.2419
   87SAPS   H6R 8325   1.234   1.273  10.037 -0.1771  0.5974 -0.4216
   87SAPS   C27 8326   1.183   1.478   9.962  0.2398 -0.2680  0.8599
   87SAPS   H7R 8327   1.256   1.483   9.878  2.2869 -0.3242  2.5530
   87SAPS   H7S 8328   1.185   1.583   9.998  4.1253 -0.5515  1.8537
   87SAPS   C28 8329   1.047   1.431   9.927 -0.2281  0.3907 -0.5727
   87SAPS   H8R 8330   0.986   1.417  10.017  1.3188  1.2537  0.6489
   87SAPS   C29 8331   1.003   1.397   9.807  0.1035 -0.2927  0.3705
   87SAPS   H9R 8332   0.904   1.350   9.809  0.3942 -0.9396 -0.1105
   87SAPS  C210 8333   1.074   1.396   9.672  0.2338 -0.2777  0.2117
   87SAPS  H10R 8334   1.178   1.433   9.677  1.1942 -2.5096 -1.6282
   87SAPS  H10S 8335   1.025   1.471   9.606 -0.0242 -3.0882 -3.1404
   87SAPS  C211 8336   1.069   1.259   9.614 -0.0920  0.2782  0.0729
   87SAPS  H11R 8337   1.063   1.173   9.683 -0.9061  2.2574  2.5975
   87SAPS  C212 8338   1.079   1.222   9.484  0.1913 -0.1029  0.4761
   87SAPS  H12R 8339   1.076   1.115   9.462  0.6065  0.0448 -0.3479
   87SAPS  C213 8340   1.087   1.312   9.361  0.3443 -0.7223 -0.2361
   87SAPS  H13R 8341   1.160   1.263   9.294  0.7675  1.0580 -1.1578
   87SAPS  H13S 8342   1.146   1.403   9.387 -1.3494 -0.0238  1.4321
   87SAPS  C214 8343   0.956   1.349   9.309 -0.1410  0.0969  0.1647
   87SAPS  H14R 8344   0.871   1.317   9.371  0.6435 -1.7517  0.3425
   87SAPS  C215 8345   0.942   1.428   9.202 -0.0636  0.3780  0.1647
   87SAPS  H15R 8346   0.838   1.450   9.175 -0.2329 -0.5446  0.0083
   87SAPS  C216 8347   1.049   1.483   9.106  0.1023  0.1158  0.6517
   87SAPS  H16R 8348   1.147   1.491   9.157  1.2428 -0.8076 -1.2710
   87SAPS  H16S 8349   1.022   1.587   9.077 -2.3479 -0.3028  1.1548
   87SAPS  C217 8350   1.069   1.403   8.980  0.2924  0.2964  0.4586
   87SAPS  H17R 8351   1.067   1.294   9.001  2.7394  0.3319  1.1779
   87SAPS  H17S 8352   1.164   1.436   8.934 -0.2988 -0.7006 -1.5582
   87SAPS  C218 8353   0.957   1.441   8.875  0.0542 -0.5538 -0.5395
   87SAPS  H18R 8354   0.989   1.534   8.825 -4.0715  1.5376  0.2401
   87SAPS  H18S 8355   0.868   1.453   8.941  0.4985 -0.9939  0.1454
   87SAPS  C219 8356   0.936   1.332   8.773  0.4192 -0.5577 -0.2027
   87SAPS  H19R 8357   0.898   1.244   8.829 -2.7946  0.6846 -0.2103
   87SAPS  H19S 8358   1.034   1.315   8.723  0.8200  3.8273 -1.2710
   87SAPS  C220 8359   0.836   1.374   8.667  0.7049  0.1758  0.0258
   87SAPS  H20R 8360   0.812   1.304   8.584  0.3609 -0.3464  0.5553
   87SAPS  H20S 8361   0.860   1.469   8.615  1.3136 -0.0430 -0.1006
   87SAPS  H20T 8362   0.736   1.373   8.716 -0.0364 -3.2673 -1.2565
   87SAPS   C33 8363   0.919   1.884  10.135  0.1303  0.9795 -0.3189
   87SAPS   H3X 8364   0.977   1.922  10.048 -0.7203 -0.1757 -1.4290
   87SAPS   H3Y 8365   0.839   1.957  10.159 -3.5634 -2.1647 -2.1895
   87SAPS   C34 8366   0.839   1.754  10.106 -0.6677 -0.1114  0.3960
   87SAPS   H4X 8367   0.765   1.740  10.188 -0.2753 -2.2930  0.4540
   87SAPS   H4Y 8368   0.906   1.665  10.116 -1.7058 -0.9165  0.3114
   87SAPS   C35 8369   0.760   1.763   9.979 -0.0971  0.5291 -0.0018
   87SAPS   H5X 8370   0.724   1.866   9.959 -0.7302  0.1024 -1.1698
   87SAPS   H5Y 8371   0.668   1.700   9.976  1.0597 -1.1989 -1.3786
   87SAPS   C36 8372   0.834   1.714   9.849 -0.1209  0.0690 -0.6606
   87SAPS   H6X 8373   0.862   1.607   9.858 -0.5500 -0.0172 -0.3177
   87SAPS   H6Y 8374   0.925   1.775   9.830  0.8978 -0.7641  1.2739
   87SAPS   C37 8375   0.737   1.725   9.724 -0.3281 -0.5215 -0.4773
   87SAPS   H7X 8376   0.687   1.825   9.720 -0.9954 -0.7754  0.8812
   87SAPS   H7Y 8377   0.657   1.647   9.728  0.8506 -1.7033  0.9329
   87SAPS   C38 8378   0.811   1.710   9.584  0.1559 -0.4054  0.1575
   87SAPS   H8X 8379   0.849   1.606   9.573 -1.3302 -0.9890  0.3623
   87SAPS   H8Y 8380   0.898   1.779   9.585  0.8072 -1.2030  0.1571
   87SAPS   C39 8381   0.714   1.739   9.470  0.1062 -0.0666 -0.0425
   87SAPS   H9X 8382   0.668   1.838   9.485 -0.2543  0.3230 -3.1774
   87SAPS   H9Y 8383   0.629   1.668   9.464  0.6716 -0.7260 -0.3755
   87SAPS  C310 8384   0.796   1.737   9.345 -0.8897  0.0926  0.7586
   87SAPS  H10X 8385   0.857   1.645   9.335 -0.5022  0.4691 -0.6570
   87SAPS  H10Y 8386   0.871   1.819   9.344  2.1417 -2.5183  0.2355
   87SAPS  C311 8387   0.711   1.743   9.216 -0.0660 -0.0774 -0.4599
   87SAPS  H11X 8388   0.640   1.828   9.221 -0.9762 -0.7659 -1.3867
   87SAPS  H11Y 8389   0.645   1.654   9.206 -1.7511  0.8323  1.8079
   87SAPS  C312 8390   0.795   1.775   9.086 -0.2016  1.2522 -1.1415
   87SAPS  H12X 8391   0.868   1.694   9.068  0.4044  1.0293  1.8340
   87SAPS  H12Y 8392   0.856   1.867   9.103 -1.3153  2.0015 -1.0278
   87SAPS  C313 8393   0.708   1.779   8.973  0.8422 -0.1733 -0.1309
   87SAPS  H13X 8394   0.630   1.857   8.987  0.6163 -0.6150  1.2265
   87SAPS  H13Y 8395   0.655   1.682   8.967  0.0981  0.0277  2.1459
   87SAPS  C314 8396   0.785   1.800   8.844 -0.4142  0.7278 -0.5270
   87SAPS  H14X 8397   0.828   1.702   8.814 -1.8857 -0.2018  0.2973
   87SAPS  H14Y 8398   0.869   1.870   8.867  1.1454 -0.8983 -1.0507
   87SAPS  C315 8399   0.702   1.858   8.733 -0.4651 -0.0225 -0.2803
   87SAPS  H15X 8400   0.664   1.961   8.754 -1.0881  0.0502 -1.6994
   87SAPS  H15Y 8401   0.609   1.800   8.714  0.3361 -0.4467 -3.4970
   87SAPS  C316 8402   0.774   1.876   8.603 -0.2164 -0.2249  0.2226
   87SAPS  H16X 8403   0.790   1.779   8.552 -2.3115  0.0348 -1.0207
   87SAPS  H16Y 8404   0.874   1.924   8.616  0.5412 -1.6519 -0.1657
   87SAPS  C317 8405   0.691   1.960   8.498 -0.4467 -0.2276  0.2390
   87SAPS  H17X 8406   0.670   2.056   8.550 -1.3831  1.6985 -3.3967
   87SAPS  H17Y 8407   0.590   1.916   8.485  0.1019 -1.1441 -1.2150
   87SAPS  C318 8408   0.768   1.971   8.369  0.0992 -0.7693  0.2886
   87SAPS  H18X 8409   0.861   2.028   8.390 -0.2477  0.0577 -0.3710
   87SAPS  H18Y 8410   0.703   2.028   8.299  1.1664  0.0832 -0.0443
   87SAPS  H18Z 8411   0.788   1.876   8.315  0.1104 -0.6709  0.1178
   88SAPS     N 8412   5.078   5.916  10.850  0.2816 -0.0719 -0.1365
   88SAPS   HN1 8413   5.041   6.013  10.846 -1.2500 -0.6572 -1.7434
   88SAPS   HN2 8414   5.175   5.915  10.886 -0.3841  0.2262  1.7640
   88SAPS   HN3 8415   5.063   5.883  10.752 -0.2269 -0.2760  0.0043
   88SAPS   C12 8416   4.989   5.830  10.944 -0.2025  0.0399 -0.3879
   88SAPS  H12A 8417   4.989   5.731  10.903 -2.3128 -0.1151 -0.1219
   88SAPS   C13 8418   5.030   5.817  11.094 -0.0420 -0.4085 -0.4413
   88SAPS  O13A 8419   5.143   5.866  11.128  0.4669  0.1921  0.3790
   88SAPS  O13B 8420   4.978   5.727  11.162 -0.2206  0.2295 -0.0012
   88SAPS   C11 8421   4.841   5.881  10.922  0.1518 -0.6160  0.2625
   88SAPS  H11A 8422   4.851   5.989  10.950 -0.5183 -0.4130 -0.2804
   88SAPS  H11B 8423   4.776   5.836  11.000  1.1581 -1.6965  0.5152
   88SAPS     P 8424   4.706   5.738  10.755 -0.1104 -0.2485 -0.1711
   88SAPS   O13 8425   4.787   5.634  10.694  0.2829  0.2371 -0.1312
   88SAPS   O14 8426   4.612   5.706  10.865 -0.7264  0.3941 -0.2865
   88SAPS   O12 8427   4.800   5.863  10.787  0.1849 -0.3592 -1.0597
   88SAPS   O11 8428   4.629   5.810  10.641  0.1903 -0.1990  0.2277
   88SAPS    C1 8429   4.670   5.921  10.563 -0.0568  0.6207  0.3189
   88SAPS    HA 8430   4.634   6.019  10.601 -0.0418  0.8730 -0.2964
   88SAPS    HB 8431   4.780   5.935  10.563 -0.3842  3.8402  0.5263
   88SAPS    C2 8432   4.626   5.897  10.415 -0.6099  0.1860 -0.2719
   88SAPS    HS 8433   4.516   5.885  10.422 -0.3606 -2.0299  0.7032
   88SAPS   O21 8434   4.698   5.784  10.364  0.2036  0.5533 -0.2338
   88SAPS   C21 8435   4.609   5.701  10.311 -0.5762  1.0718 -0.0683
   88SAPS   O22 8436   4.489   5.702  10.315 -0.3078  0.1777 -0.3248
   88SAPS   C22 8437   4.693   5.592  10.235 -0.0321 -0.2364  0.0518
   88SAPS   H2R 8438   4.765   5.660  10.185  0.1599  0.0900  0.7584
   88SAPS   H2S 8439   4.752   5.542  10.315  0.0750  0.6940  0.5725
   88SAPS    C3 8440   4.659   6.018  10.328 -0.7959 -0.3626  0.3335
   88SAPS    HX 8441   4.769   6.031  10.337 -0.5280 -1.8430 -0.4718
   88SAPS    HY 8442   4.608   6.108  10.368 -0.3277  0.0473  0.0163
   88SAPS   O31 8443   4.624   5.996  10.187 -0.4339  0.6281  0.0976
   88SAPS   C31 8444   4.499   6.010  10.151 -0.5394 -0.2611  0.0651
   88SAPS   O32 8445   4.405   6.039  10.223 -0.2981 -0.2942 -0.3725
   88SAPS   C32 8446   4.498   5.951  10.006  0.8088 -0.2991 -0.3967
   88SAPS   H2X 8447   4.393   5.970   9.977  0.6070  0.1556  0.6047
   88SAPS   H2Y 8448   4.517   5.842  10.005  0.3505 -0.5037 -4.7406
   88SAPS   C23 8449   4.610   5.489  10.148  0.2931  0.0472 -0.1033
   88SAPS   H3R 8450   4.522   5.468  10.213 -2.2345  3.0916 -2.2076
   88SAPS   H3S 8451   4.662   5.396  10.121  0.5219  0.7697 -2.2880
   88SAPS   C24 8452   4.553   5.553  10.021 -0.4718  0.1034 -0.1984
   88SAPS   H4R 8453   4.638   5.603   9.970  0.8918  0.9151  2.7150
   88SAPS   H4S 8454   4.474   5.625  10.050  0.4024  0.4015  1.5305
   88SAPS   C25 8455   4.493   5.445   9.937  0.0143  0.0321 -0.0039
   88SAPS   H5R 8456   4.424   5.373   9.985 -0.3940 -0.7119 -1.6349
   88SAPS   C26 8457   4.536   5.414   9.811 -1.3671  0.0851  0.1055
   88SAPS   H6R 8458   4.482   5.335   9.757 -0.0433 -1.9431  1.5702
   88SAPS   C27 8459   4.636   5.494   9.725 -0.0170  0.4882 -0.2184
   88SAPS   H7R 8460   4.739   5.454   9.737 -0.5527 -0.6483  0.9196
   88SAPS   H7S 8461   4.647   5.600   9.758  0.8242 -0.2729  2.1787
   88SAPS   C28 8462   4.584   5.502   9.582  0.0059  0.4042 -1.3000
   88SAPS   H8R 8463   4.487   5.553   9.579 -0.4541 -0.1239  1.7227
   88SAPS   C29 8464   4.652   5.469   9.467  0.3131 -0.0208 -0.2707
   88SAPS   H9R 8465   4.608   5.495   9.370  1.6965 -0.7584 -1.1129
   88SAPS  C210 8466   4.784   5.399   9.442  0.5924  0.2726 -0.5676
   88SAPS  H10R 8467   4.778   5.294   9.478  0.6893  0.8409  1.1778
   88SAPS  H10S 8468   4.863   5.439   9.509 -0.3829  0.8339  0.2861
   88SAPS  C211 8469   4.821   5.405   9.294  0.7113 -0.0833 -0.3665
   88SAPS  H11R 8470   4.761   5.339   9.229 -1.4492  2.2235 -0.8975
   88SAPS  C212 8471   4.909   5.483   9.239 -0.0995  0.3079  0.1998
   88SAPS  H12R 8472   4.928   5.464   9.132  0.9695 -0.8426  0.5777
   88SAPS  C213 8473   5.006   5.592   9.303  0.1730 -0.3335  0.4834
   88SAPS  H13R 8474   5.099   5.539   9.334 -0.5332 -0.7602  1.9254
   88SAPS  H13S 8475   4.956   5.642   9.388 -0.8496 -0.9178  0.2487
   88SAPS  C214 8476   5.040   5.706   9.209  0.4034  0.1525 -0.3230
   88SAPS  H14R 8477   4.979   5.796   9.229  2.3569  1.3177  0.7256
   88SAPS  C215 8478   5.125   5.703   9.109 -0.1583 -0.5679  0.2199
   88SAPS  H15R 8479   5.157   5.793   9.054 -1.6745 -1.1549 -1.7794
   88SAPS  C216 8480   5.209   5.577   9.070  0.1008 -0.8787  0.9442
   88SAPS  H16R 8481   5.137   5.510   9.017 -1.4838  0.4326  1.3445
   88SAPS  H16S 8482   5.246   5.521   9.158  0.1905 -2.1851  0.0997
   88SAPS  C217 8483   5.327   5.608   8.971 -0.2504  0.0128 -0.2689
   88SAPS  H17R 8484   5.404   5.671   9.020  0.7491 -0.3720 -1.2851
   88SAPS  H17S 8485   5.294   5.667   8.882 -0.0823  0.6314  0.0741
   88SAPS  C218 8486   5.410   5.489   8.940  0.2825  0.2224  0.5143
   88SAPS  H18R 8487   5.352   5.394   8.935 -0.6365  0.8167 -0.3211
   88SAPS  H18S 8488   5.482   5.476   9.024  0.0271 -0.1284  0.6841
   88SAPS  C219 8489   5.512   5.506   8.829  0.1937  0.0140  0.2450
   88SAPS  H19R 8490   5.457   5.529   8.735  1.0433 -1.1620 -0.5653
   88SAPS  H19S 8491   5.558   5.406   8.815 -1.5759 -0.6848 -0.9923
   88SAPS  C220 8492   5.610   5.627   8.854 -0.6929 -0.1232 -0.1678
   88SAPS  H20R 8493   5.643   5.636   8.960 -1.0496  0.4853 -0.1013
   88SAPS  H20S 8494   5.559   5.724   8.834  0.1071  0.8192  1.9795
   88SAPS  H20T 8495   5.706   5.616   8.798 -1.7567 -0.2830 -2.0314
   88SAPS   C33 8496   4.601   6.024   9.914  0.2779 -0.2209  0.3115
   88SAPS   H3X 8497   4.698   6.000   9.964 -0.3143 -1.7402  0.7869
   88SAPS   H3Y 8498   4.590   6.133   9.900 -1.5930 -0.2566  1.2042
   88SAPS   C34 8499   4.611   5.953   9.778 -0.2506  0.2390  0.1216
   88SAPS   H4X 8500   4.607   5.843   9.792  0.6132  0.0440 -1.0322
   88SAPS   H4Y 8501   4.716   5.961   9.742  0.1769 -1.5871  0.8630
   88SAPS   C35 8502   4.500   5.985   9.681  0.1510 -0.0014  0.4980
   88SAPS   H5X 8503   4.514   6.094   9.664  0.3822 -0.1321 -0.1669
   88SAPS   H5Y 8504   4.399   5.971   9.727  0.2037  0.9209  0.9065
   88SAPS   C36 8505   4.504   5.914   9.552  0.0097  0.4526 -0.1260
   88SAPS   H6X 8506   4.469   5.809   9.550 -0.7468  0.6817 -2.2167
   88SAPS   H6Y 8507   4.606   5.920   9.509  1.2906 -1.7617  2.3792
   88SAPS   C37 8508   4.409   5.976   9.451  0.9637 -0.0009 -0.4386
   88SAPS   H7X 8509   4.440   6.074   9.408 -1.1646 -0.1608 -2.4985
   88SAPS   H7Y 8510   4.305   5.988   9.487  0.9345 -3.6285  1.1875
   88SAPS   C38 8511   4.403   5.875   9.332 -0.9605  0.5453 -0.3179
   88SAPS   H8X 8512   4.360   5.935   9.248  2.2912  3.3375 -0.2184
   88SAPS   H8Y 8513   4.354   5.778   9.355  2.5394 -1.1555  0.6480
   88SAPS   C39 8514   4.546   5.835   9.277  0.3902  0.6906  0.7928
   88SAPS   H9X 8515   4.614   5.785   9.350  0.7609  0.0510  0.0243
   88SAPS   H9Y 8516   4.598   5.924   9.235  0.3474 -0.6951 -2.5176
   88SAPS  C310 8517   4.536   5.756   9.143 -0.8790 -0.4022  0.1835
   88SAPS  H10X 8518   4.486   5.828   9.075  1.2008  0.4852 -0.4787
   88SAPS  H10Y 8519   4.484   5.659   9.157 -0.4922 -0.5348  0.7537
   88SAPS  C311 8520   4.676   5.742   9.089 -0.2696 -0.2271 -0.5081
   88SAPS  H11X 8521   4.720   5.671   9.162  1.2628  0.6739 -0.5060
   88SAPS  H11Y 8522   4.752   5.823   9.102  0.8056 -1.6716  3.7776
   88SAPS  C312 8523   4.686   5.700   8.936 -0.7449  0.0795 -0.2406
   88SAPS  H12X 8524   4.679   5.793   8.876 -2.0627  0.4317  0.4121
   88SAPS  H12Y 8525   4.596   5.644   8.901 -0.5815  0.7056 -1.7513
   88SAPS  C313 8526   4.813   5.632   8.893 -0.0347 -0.1710  0.1505
   88SAPS  H13X 8527   4.830   5.536   8.945 -1.4792  0.0942  1.1572
   88SAPS  H13Y 8528   4.895   5.703   8.921 -0.1240  0.6820 -1.6015
   88SAPS  C314 8529   4.825   5.597   8.740 -0.5351  0.2269 -0.0333
   88SAPS  H14X 8530   4.809   5.693   8.687 -1.9230 -2.5317 -5.2810
   88SAPS  H14Y 8531   4.739   5.533   8.713 -0.5288 -0.7727  2.0664
   88SAPS  C315 8532   4.965   5.544   8.694  0.0599  0.1551  0.0121
   88SAPS  H15X 8533   5.050   5.600   8.736  0.0599  0.3108 -0.1964
   88SAPS  H15Y 8534   4.979   5.562   8.585  3.6071  2.1345  0.6542
   88SAPS  C316 8535   4.986   5.390   8.708 -0.1843 -0.2164  0.0383
   88SAPS  H16X 8536   4.897   5.343   8.660 -0.9591  1.8156 -0.6128
   88SAPS  H16Y 8537   4.983   5.380   8.818 -3.5053 -0.6045  0.0181
   88SAPS  C317 8538   5.107   5.341   8.636 -0.3420  0.1655 -0.2411
   88SAPS  H17X 8539   5.122   5.238   8.676 -0.2938  0.4150  0.3949
   88SAPS  H17Y 8540   5.204   5.391   8.655 -0.4289 -0.3581  1.8406
   88SAPS  C318 8541   5.080   5.333   8.489  0.1354 -0.1072  0.3949
   88SAPS  H18X 8542   4.979   5.287   8.476  0.6973 -1.3002  0.1101
   88SAPS  H18Y 8543   5.158   5.269   8.443  1.3569  1.5127  0.1275
   88SAPS  H18Z 8544   5.102   5.429   8.438 -0.3247 -0.5119 -0.5931
   89SAPS     N 8545   1.456   4.345  11.327  0.3948 -0.3136  0.4608
   89SAPS   HN1 8546   1.435   4.371  11.229 -0.1891  2.6215  1.2542
   89SAPS   HN2 8547   1.405   4.258  11.352  0.3028 -0.5309 -0.4658
   89SAPS   HN3 8548   1.408   4.414  11.388  0.5646  0.7394 -0.5658
   89SAPS   C12 8549   1.608   4.332  11.337  0.2306  0.3858  0.4361
   89SAPS  H12A 8550   1.660   4.426  11.320  1.4782 -0.0730  1.5071
   89SAPS   C13 8551   1.650   4.283  11.480 -0.0473 -0.3283 -0.1137
   89SAPS  O13A 8552   1.562   4.262  11.563  0.6396 -0.1000  0.3164
   89SAPS  O13B 8553   1.772   4.256  11.501  0.2851  0.3888 -0.2059
   89SAPS   C11 8554   1.658   4.224  11.239 -0.5812 -0.1064  0.6502
   89SAPS  H11A 8555   1.598   4.133  11.261  1.0392 -2.1671 -2.7268
   89SAPS  H11B 8556   1.765   4.194  11.240 -0.3233  0.5475 -1.7855
   89SAPS     P 8557   1.700   4.342  11.005 -0.5998 -0.2633 -0.2018
   89SAPS   O13 8558   1.632   4.333  10.877  0.0690  0.2043  0.0757
   89SAPS   O14 8559   1.718   4.475  11.071 -0.1913 -0.6029  0.1256
   89SAPS   O12 8560   1.618   4.265  11.112  0.2131  0.1160  0.6306
   89SAPS   O11 8561   1.837   4.255  11.005  0.4187 -0.1631  0.0350
   89SAPS    C1 8562   1.970   4.311  11.014 -0.3494 -1.2233 -0.5540
   89SAPS    HA 8563   1.975   4.419  11.035 -3.3910 -0.6663 -2.0716
   89SAPS    HB 8564   2.032   4.263  11.093  0.8325 -0.1752 -0.8263
   89SAPS    C2 8565   2.054   4.269  10.886  0.0070 -0.8896 -0.0419
   89SAPS    HS 8566   2.152   4.322  10.890 -0.0068 -0.9002  0.5980
   89SAPS   O21 8567   1.981   4.297  10.760  0.2359  0.6548  0.1449
   89SAPS   C21 8568   1.973   4.426  10.736  0.3312  0.5299  0.5567
   89SAPS   O22 8569   2.022   4.520  10.800  0.5632 -0.1111 -0.2398
   89SAPS   C22 8570   1.874   4.453  10.616  0.3603  0.4306  0.1363
   89SAPS   H2R 8571   1.775   4.409  10.643 -1.0214  0.9691 -3.5096
   89SAPS   H2S 8572   1.848   4.561  10.625  1.4234  0.5992  1.3318
   89SAPS    C3 8573   2.076   4.122  10.885  0.3011  0.8793  0.1031
   89SAPS    HX 8574   1.981   4.070  10.910  0.8694  0.0180  0.4940
   89SAPS    HY 8575   2.149   4.093  10.963  1.5484 -0.0536 -1.3491
   89SAPS   O31 8576   2.125   4.064  10.758  0.1388 -0.4127  0.7100
   89SAPS   C31 8577   2.254   4.090  10.718 -0.3576 -0.0268  0.4107
   89SAPS   O32 8578   2.332   4.161  10.779  0.3252  0.0399 -0.1336
   89SAPS   C32 8579   2.282   4.013  10.587  0.5891 -0.2751 -0.3661
   89SAPS   H2X 8580   2.261   3.906  10.608 -0.9012 -0.5413 -2.9073
   89SAPS   H2Y 8581   2.387   4.027  10.554  0.8269 -0.3027  0.3620
   89SAPS   C23 8582   1.919   4.423  10.476 -0.6055 -0.2350  0.3963
   89SAPS   H3R 8583   1.968   4.323  10.472 -0.6167 -0.1967 -1.7835
   89SAPS   H3S 8584   1.991   4.505  10.454  0.4236 -0.5003  2.5050
   89SAPS   C24 8585   1.813   4.420  10.363  0.7401  0.1095  0.2670
   89SAPS   H4R 8586   1.881   4.436  10.276  1.2983 -1.8250  0.2991
   89SAPS   H4S 8587   1.745   4.505  10.381  1.2203  0.3328  1.0477
   89SAPS   C25 8588   1.733   4.290  10.365  0.2352  0.0297 -0.5164
   89SAPS   H5R 8589   1.670   4.276  10.454  0.6579 -1.1873 -0.3829
   89SAPS   C26 8590   1.728   4.187  10.274  0.3758 -0.2637 -0.0853
   89SAPS   H6R 8591   1.656   4.105  10.289  0.6607 -0.9200 -2.1351
   89SAPS   C27 8592   1.807   4.174  10.147 -0.3593 -0.0133 -0.5006
   89SAPS   H7R 8593   1.788   4.083  10.086  2.2028 -1.3047  0.4457
   89SAPS   H7S 8594   1.915   4.165  10.172 -0.7138  0.3529  1.3418
   89SAPS   C28 8595   1.793   4.272  10.033  0.5512  0.2048 -0.2407
   89SAPS   H8R 8596   1.688   4.306  10.026  1.3900  3.6046  1.5891
   89SAPS   C29 8597   1.883   4.328   9.951  0.5308  0.1657 -0.2175
   89SAPS   H9R 8598   1.847   4.406   9.883 -0.9133  1.3834  1.8137
   89SAPS  C210 8599   2.033   4.298   9.954 -0.5193  0.0995  0.5016
   89SAPS  H10R 8600   2.053   4.196   9.913 -0.4243 -0.5426  2.0513
   89SAPS  H10S 8601   2.075   4.310  10.056  3.1557  0.1072 -0.8760
   89SAPS  C211 8602   2.111   4.394   9.880  0.0395  0.1273 -0.4719
   89SAPS  H11R 8603   2.113   4.494   9.926  0.2625 -0.7299  1.4891
   89SAPS  C212 8604   2.177   4.375   9.765  0.3910 -0.3093  0.0777
   89SAPS  H12R 8605   2.231   4.461   9.722 -2.8729  0.8735 -2.0799
   89SAPS  C213 8606   2.193   4.243   9.686  0.0980 -0.2782  0.0085
   89SAPS  H13R 8607   2.156   4.156   9.744  1.2883 -2.0917 -1.8234
   89SAPS  H13S 8608   2.303   4.228   9.679  0.0012 -1.2119  0.3957
   89SAPS  C214 8609   2.124   4.260   9.556  0.2060  0.6425 -0.3289
   89SAPS  H14R 8610   2.015   4.268   9.568 -0.0758 -1.2832 -1.1950
   89SAPS  C215 8611   2.186   4.255   9.442 -0.1669 -0.5132 -0.4432
   89SAPS  H15R 8612   2.118   4.267   9.356 -1.7402 -0.3864  0.7751
   89SAPS  C216 8613   2.328   4.237   9.403 -0.0734 -0.2063  0.0936
   89SAPS  H16R 8614   2.400   4.227   9.487 -0.6664 -0.4092  0.5805
   89SAPS  H16S 8615   2.363   4.321   9.338  0.1884 -1.0629 -0.9046
   89SAPS  C217 8616   2.354   4.123   9.307  0.5665  0.9390 -0.1656
   89SAPS  H17R 8617   2.322   4.031   9.360  0.3896  1.8935  1.4344
   89SAPS  H17S 8618   2.464   4.114   9.295  0.5896 -0.3013  0.8441
   89SAPS  C218 8619   2.276   4.134   9.168  0.0093 -0.2096 -0.5138
   89SAPS  H18R 8620   2.270   4.243   9.151  0.9143 -0.3778 -2.0029
   89SAPS  H18S 8621   2.167   4.112   9.177 -0.4745  0.7208 -3.3111
   89SAPS  C219 8622   2.340   4.062   9.051 -0.4100  0.8156 -0.5096
   89SAPS  H19R 8623   2.338   3.952   9.066 -0.8349  0.7255 -1.2124
   89SAPS  H19S 8624   2.440   4.111   9.057 -0.4842  0.8663  0.7555
   89SAPS  C220 8625   2.281   4.102   8.922 -0.4582  0.2919  0.6525
   89SAPS  H20R 8626   2.170   4.104   8.934 -0.3732 -1.5227  2.0346
   89SAPS  H20S 8627   2.305   4.036   8.836 -1.0296  2.4711 -1.2912
   89SAPS  H20T 8628   2.304   4.208   8.899 -0.6889  0.3385  0.6280
   89SAPS   C33 8629   2.195   4.053  10.469 -0.1913 -0.2306  1.0701
   89SAPS   H3X 8630   2.087   4.040  10.494 -0.5774 -0.9951 -0.8475
   89SAPS   H3Y 8631   2.204   3.991  10.377  0.4849  1.2449  0.1100
   89SAPS   C34 8632   2.224   4.198  10.424  0.0996 -0.8307  0.1524
   89SAPS   H4X 8633   2.231   4.256  10.519 -0.8081  1.6731 -1.2267
   89SAPS   H4Y 8634   2.136   4.238  10.369  1.2302  1.0956 -0.3668
   89SAPS   C35 8635   2.344   4.226  10.324  0.3955 -0.4294 -0.1134
   89SAPS   H5X 8636   2.329   4.186  10.222  1.7754  0.0947 -0.5441
   89SAPS   H5Y 8637   2.443   4.191  10.362  0.5474 -0.0071 -0.1152
   89SAPS   C36 8638   2.360   4.377  10.307  0.3280  0.6086 -0.2051
   89SAPS   H6X 8639   2.357   4.414  10.412 -0.1610 -0.3610  0.1454
   89SAPS   H6Y 8640   2.265   4.422  10.270  1.4731  2.9378 -0.4774
   89SAPS   C37 8641   2.482   4.420  10.221  0.6692  0.0324  0.2134
   89SAPS   H7X 8642   2.573   4.367  10.258 -0.4436 -1.7703  0.4980
   89SAPS   H7Y 8643   2.495   4.530  10.226 -0.4745  0.1464  1.0238
   89SAPS   C38 8644   2.457   4.391  10.072  0.2939 -0.5944  0.6955
   89SAPS   H8X 8645   2.366   4.447  10.041  1.7422  1.5414  0.0471
   89SAPS   H8Y 8646   2.434   4.285  10.048 -1.1727 -0.0079 -0.7396
   89SAPS   C39 8647   2.576   4.434   9.986  0.5873  0.0554 -0.6627
   89SAPS   H9X 8648   2.670   4.393  10.029 -0.5435 -2.1448 -0.1547
   89SAPS   H9Y 8649   2.581   4.545   9.989  0.5652  0.2413 -3.9389
   89SAPS  C310 8650   2.558   4.390   9.838 -0.6598 -0.2191  0.9681
   89SAPS  H10X 8651   2.470   4.433   9.785  0.3004 -0.7190 -1.1749
   89SAPS  H10Y 8652   2.558   4.279   9.838  1.4365 -0.3178 -1.4292
   89SAPS  C311 8653   2.666   4.430   9.737  0.4554 -0.8988  0.6218
   89SAPS  H11X 8654   2.767   4.387   9.748  1.2842  1.2402  2.0606
   89SAPS  H11Y 8655   2.676   4.540   9.746 -0.0265 -0.8394  0.5024
   89SAPS  C312 8656   2.617   4.409   9.589  0.3822  0.3239 -0.9068
   89SAPS  H12X 8657   2.549   4.488   9.551 -0.7404 -0.8075 -1.3046
   89SAPS  H12Y 8658   2.569   4.309   9.589 -0.3375  0.6326  0.6628
   89SAPS  C313 8659   2.730   4.418   9.485  0.3314  0.4695  0.5107
   89SAPS  H13X 8660   2.809   4.346   9.516 -0.0816  0.6699  2.0806
   89SAPS  H13Y 8661   2.778   4.517   9.476 -0.4442  0.8575  0.6326
   89SAPS  C314 8662   2.678   4.367   9.348  0.0206  0.4758  0.1878
   89SAPS  H14X 8663   2.578   4.407   9.322  0.0013  0.7265  0.6341
   89SAPS  H14Y 8664   2.657   4.258   9.355  0.6854  0.2631 -0.8579
   89SAPS  C315 8665   2.774   4.394   9.238 -0.0251 -0.2016 -0.6328
   89SAPS  H15X 8666   2.869   4.341   9.259 -0.4247  0.0292  2.1637
   89SAPS  H15Y 8667   2.792   4.503   9.226  1.7147 -0.4525 -0.6196
   89SAPS  C316 8668   2.719   4.339   9.102  0.0982 -0.3699  0.0504
   89SAPS  H16X 8669   2.704   4.229   9.098 -0.6222 -0.2430 -1.3997
   89SAPS  H16Y 8670   2.800   4.366   9.031 -1.9531  3.2433 -1.1941
   89SAPS  C317 8671   2.591   4.420   9.057 -1.1540  0.1000 -0.2499
   89SAPS  H17X 8672   2.616   4.528   9.059 -2.2796  0.3696  1.1581
   89SAPS  H17Y 8673   2.506   4.413   9.129  0.5950  0.3677  1.9475
   89SAPS  C318 8674   2.553   4.395   8.912 -0.4118  0.2513 -0.0772
   89SAPS  H18X 8675   2.482   4.469   8.871  0.8224  1.2961 -0.3965
   89SAPS  H18Y 8676   2.509   4.293   8.900  1.1600 -0.4378 -0.2151
   89SAPS  H18Z 8677   2.638   4.400   8.841  0.4897  2.4578  1.0776
   90SAPS     N 8678   2.988   3.112  10.933  0.6256 -0.1683  0.5319
   90SAPS   HN1 8679   3.070   3.171  10.957  0.1817  1.8454 -2.3473
   90SAPS   HN2 8680   2.949   3.157  10.848  1.6103  0.3320  0.3252
   90SAPS   HN3 8681   2.923   3.120  11.014 -0.6745 -1.8839 -0.2726
   90SAPS   C12 8682   3.023   2.966  10.915  0.1138 -0.3969 -0.0831
   90SAPS  H12A 8683   3.066   2.933  11.008 -1.9758 -2.0530  0.3719
   90SAPS   C13 8684   2.898   2.874  10.897 -0.7416  0.0416 -0.0707
   90SAPS  O13A 8685   2.784   2.927  10.895  0.7709 -0.3839  0.4129
   90SAPS  O13B 8686   2.916   2.751  10.912  0.5874  0.1679  0.1972
   90SAPS   C11 8687   3.102   2.946  10.784 -0.5074  0.0418 -0.0275
   90SAPS  H11A 8688   3.039   2.966  10.694 -0.1190 -2.4164 -0.9124
   90SAPS  H11B 8689   3.117   2.836  10.782 -2.6157 -0.2910 -0.6301
   90SAPS     P 8690   3.339   2.965  10.684  0.4058  0.1710  0.4269
   90SAPS   O13 8691   3.428   3.076  10.650  0.4005  0.3982 -0.2632
   90SAPS   O14 8692   3.406   2.855  10.756 -0.6976  0.2288 -0.2112
   90SAPS   O12 8693   3.218   3.025  10.779 -0.3740  0.2486 -0.3330
   90SAPS   O11 8694   3.252   2.910  10.567  0.9914  0.2183  0.2889
   90SAPS    C1 8695   3.198   3.015  10.476  0.2160  0.1684 -0.6628
   90SAPS    HA 8696   3.108   2.977  10.424  1.1993 -1.4635 -1.2512
   90SAPS    HB 8697   3.171   3.111  10.527  5.5409  1.2062  0.8138
   90SAPS    C2 8698   3.302   3.040  10.359  0.6095 -0.2654  0.3628
   90SAPS    HS 8699   3.388   3.093  10.406  1.2689  1.2421 -2.3199
   90SAPS   O21 8700   3.238   3.126  10.256 -0.6994  0.3739  0.1963
   90SAPS   C21 8701   3.218   3.254  10.283 -0.3343  0.2991 -0.7358
   90SAPS   O22 8702   3.266   3.326  10.368 -0.1309  0.2417 -1.0901
   90SAPS   C22 8703   3.128   3.313  10.169  0.5249  0.2478 -0.6052
   90SAPS   H2R 8704   3.182   3.303  10.072 -0.7692 -0.8886 -1.2443
   90SAPS   H2S 8705   3.037   3.250  10.174  0.1094  0.8481 -0.5598
   90SAPS    C3 8706   3.348   2.915  10.289 -0.6966  0.4714  1.1367
   90SAPS    HX 8707   3.262   2.857  10.249 -0.3256  1.3074 -0.9765
   90SAPS    HY 8708   3.395   2.854  10.369  1.2062  0.1270 -0.1862
   90SAPS   O31 8709   3.439   2.949  10.180  0.1749  0.4543  0.6219
   90SAPS   C31 8710   3.541   2.869  10.172  0.2038  0.1148 -0.5699
   90SAPS   O32 8711   3.561   2.759  10.230  0.2888 -0.1174  0.1561
   90SAPS   C32 8712   3.644   2.933  10.079  0.1799  0.3783 -0.0184
   90SAPS   H2X 8713   3.695   3.023  10.121  3.3766 -0.6836 -1.3618
   90SAPS   H2Y 8714   3.582   2.961   9.990  0.8268 -0.4417 -0.7394
   90SAPS   C23 8715   3.087   3.460  10.189 -0.5480  0.2507  0.6741
   90SAPS   H3R 8716   3.177   3.521  10.169 -0.1667 -1.1693 -2.5949
   90SAPS   H3S 8717   3.039   3.474  10.289 -0.0814 -0.8185  1.0649
   90SAPS   C24 8718   2.979   3.510  10.085 -0.4746  1.0607  0.4549
   90SAPS   H4R 8719   3.021   3.520   9.982 -1.0252  1.1274  0.2352
   90SAPS   H4S 8720   2.961   3.617  10.111  0.6140  1.7778 -1.5070
   90SAPS   C25 8721   2.838   3.453  10.084 -0.7975  0.3804  0.0189
   90SAPS   H5R 8722   2.781   3.468  10.177 -2.5362 -1.4593 -0.6726
   90SAPS   C26 8723   2.767   3.405   9.976  0.4638 -0.1753 -0.0322
   90SAPS   H6R 8724   2.662   3.378   9.998  0.3023  0.3428 -0.1379
   90SAPS   C27 8725   2.798   3.390   9.825  0.1088 -0.3318  0.2942
   90SAPS   H7R 8726   2.855   3.482   9.798  0.1051 -1.0657 -2.6153
   90SAPS   H7S 8727   2.710   3.386   9.757  1.0206  0.6855 -1.0123
   90SAPS   C28 8728   2.897   3.281   9.793  0.5620 -0.2479 -0.0111
   90SAPS   H8R 8729   2.938   3.233   9.883 -1.1404 -1.2032  0.2956
   90SAPS   C29 8730   2.935   3.242   9.670 -0.4380 -0.1896  0.1627
   90SAPS   H9R 8731   3.005   3.158   9.660  1.2796  1.3667 -1.5576
   90SAPS  C210 8732   2.893   3.317   9.545  0.9290 -0.3663  0.0453
   90SAPS  H10R 8733   2.886   3.427   9.564  0.9651 -0.2569 -0.5668
   90SAPS  H10S 8734   2.789   3.284   9.525 -0.3993  2.0326  2.2715
   90SAPS  C211 8735   2.991   3.303   9.441 -1.0740  0.2644  0.0330
   90SAPS  H11R 8736   3.089   3.328   9.483 -1.5064 -0.8349  1.7628
   90SAPS  C212 8737   2.974   3.263   9.318  0.2264  0.0514 -0.0110
   90SAPS  H12R 8738   3.060   3.275   9.251 -0.6296  1.6901 -0.8614
   90SAPS  C213 8739   2.838   3.222   9.269 -0.2988 -0.2480 -0.2019
   90SAPS  H13R 8740   2.755   3.295   9.280  1.3845  1.4525  2.1530
   90SAPS  H13S 8741   2.807   3.135   9.331  1.5258  0.5036  1.8692
   90SAPS  C214 8742   2.855   3.167   9.128 -0.2244  0.3307  0.4173
   90SAPS  H14R 8743   2.947   3.177   9.069 -0.1303 -2.6217 -0.1046
   90SAPS  C215 8744   2.746   3.118   9.059 -0.0786 -0.1868 -0.0402
   90SAPS  H15R 8745   2.752   3.089   8.953  0.2192  0.7184 -0.2871
   90SAPS  C216 8746   2.603   3.118   9.112 -0.2640  0.1701 -0.0892
   90SAPS  H16R 8747   2.534   3.168   9.041  0.4514  0.7292 -0.4065
   90SAPS  H16S 8748   2.603   3.195   9.191  1.6596  0.8666 -0.7025
   90SAPS  C217 8749   2.561   2.983   9.167 -0.0124 -0.0114 -0.1691
   90SAPS  H17R 8750   2.472   3.006   9.229 -0.1364 -1.5979  0.2787
   90SAPS  H17S 8751   2.632   2.940   9.240 -1.3902 -1.2072  0.5107
   90SAPS  C218 8752   2.521   2.880   9.061 -0.2239  0.3250 -0.0264
   90SAPS  H18R 8753   2.607   2.879   8.991  0.6893 -0.0833  1.0746
   90SAPS  H18S 8754   2.422   2.905   9.017 -0.1120 -0.6512 -0.8711
   90SAPS  C219 8755   2.501   2.736   9.123  0.4293  0.6376  0.6519
   90SAPS  H19R 8756   2.414   2.738   9.193 -1.4113 -0.3602 -1.4674
   90SAPS  H19S 8757   2.592   2.727   9.185  1.8274  0.1432 -1.3802
   90SAPS  C220 8758   2.478   2.621   9.022  0.0287  0.2732  0.7894
   90SAPS  H20R 8759   2.561   2.622   8.949  1.4057  1.9846  2.2663
   90SAPS  H20S 8760   2.383   2.635   8.967  0.7144  0.1536 -0.4463
   90SAPS  H20T 8761   2.476   2.523   9.074 -1.0127  0.8516  1.9083
   90SAPS   C33 8762   3.752   2.832  10.041 -0.2245 -0.4384 -0.8096
   90SAPS   H3X 8763   3.711   2.731  10.019 -0.1364 -0.7503  0.4048
   90SAPS   H3Y 8764   3.816   2.816  10.131 -0.0699 -0.9183 -1.0039
   90SAPS   C34 8765   3.826   2.866   9.908  0.4973  0.5292  0.0231
   90SAPS   H4X 8766   3.907   2.792   9.889  1.4547  1.6396 -0.3821
   90SAPS   H4Y 8767   3.894   2.954   9.909  2.0762 -0.6313 -0.6199
   90SAPS   C35 8768   3.736   2.883   9.789  0.5682  0.3747 -1.4206
   90SAPS   H5X 8769   3.666   2.967   9.809  2.6771  1.6514  1.3757
   90SAPS   H5Y 8770   3.667   2.796   9.788  0.8790 -0.1638  2.8731
   90SAPS   C36 8771   3.800   2.913   9.657 -0.0571  0.2400  0.6213
   90SAPS   H6X 8772   3.870   2.831   9.632 -2.6446 -1.6113 -1.0800
   90SAPS   H6Y 8773   3.847   3.013   9.667  0.2221  0.2254 -0.4191
   90SAPS   C37 8774   3.697   2.904   9.541 -0.5652  0.5566 -0.3924
   90SAPS   H7X 8775   3.608   2.963   9.571 -1.5554 -0.9667 -0.2606
   90SAPS   H7Y 8776   3.677   2.795   9.544  2.2795 -0.0527  2.9034
   90SAPS   C38 8777   3.768   2.961   9.419  0.7053  0.3939  1.1493
   90SAPS   H8X 8778   3.879   2.953   9.424  0.5728 -0.8976  2.5570
   90SAPS   H8Y 8779   3.742   3.067   9.401  0.2928  0.2211  0.7162
   90SAPS   C39 8780   3.709   2.882   9.297 -0.3590  0.0026 -0.3420
   90SAPS   H9X 8781   3.606   2.922   9.288 -0.4122  0.1227  0.7326
   90SAPS   H9Y 8782   3.712   2.772   9.305  0.9632 -0.2679 -3.1594
   90SAPS  C310 8783   3.787   2.919   9.171  0.6649  0.1475 -0.3466
   90SAPS  H10X 8784   3.891   2.880   9.177  0.1893 -1.1991 -0.6314
   90SAPS  H10Y 8785   3.782   3.030   9.174 -0.5620  0.0805  1.7007
   90SAPS  C311 8786   3.727   2.861   9.044 -1.0519 -0.5392  0.9263
   90SAPS  H11X 8787   3.621   2.892   9.034 -1.0087 -0.1174  1.7139
   90SAPS  H11Y 8788   3.738   2.750   9.043  1.8152 -0.3269  1.0629
   90SAPS  C312 8789   3.801   2.904   8.923 -0.4384  0.5601  0.7561
   90SAPS  H12X 8790   3.905   2.864   8.928 -0.5776 -0.4377 -2.1176
   90SAPS  H12Y 8791   3.812   3.014   8.932  1.7697  0.4356  0.2756
   90SAPS  C313 8792   3.728   2.866   8.791 -0.1133 -1.1643 -0.1114
   90SAPS  H13X 8793   3.620   2.892   8.786 -0.8875 -3.8550  0.8642
   90SAPS  H13Y 8794   3.724   2.756   8.782  0.5419 -1.1619 -0.4778
   90SAPS  C314 8795   3.800   2.927   8.670  0.2844 -0.6023  0.4276
   90SAPS  H14X 8796   3.743   2.892   8.581  0.3807  1.4140 -0.5026
   90SAPS  H14Y 8797   3.906   2.893   8.669  0.8945  1.0748 -2.1321
   90SAPS  C315 8798   3.814   3.079   8.669 -0.0946  0.2207  0.4477
   90SAPS  H15X 8799   3.874   3.126   8.750 -0.0574  1.4320 -0.2725
   90SAPS  H15Y 8800   3.712   3.120   8.681  0.4551  1.4207  1.1996
   90SAPS  C316 8801   3.864   3.133   8.536  0.1181  0.6385 -0.6311
   90SAPS  H16X 8802   3.783   3.110   8.464  0.0677 -1.2700 -0.0223
   90SAPS  H16Y 8803   3.955   3.088   8.491 -1.3814 -1.2149 -1.9608
   90SAPS  C317 8804   3.904   3.277   8.530 -0.2053 -0.5344 -0.0504
   90SAPS  H17X 8805   3.828   3.330   8.592  0.2514 -0.6094  0.5747
   90SAPS  H17Y 8806   3.897   3.308   8.423 -1.5353  0.8049  0.3867
   90SAPS  C318 8807   4.041   3.318   8.582 -0.4663  0.0506 -0.1993
   90SAPS  H18X 8808   4.122   3.266   8.526 -1.8907 -2.7329  0.1335
   90SAPS  H18Y 8809   4.055   3.297   8.690  1.0296 -0.4612 -0.4716
   90SAPS  H18Z 8810   4.063   3.426   8.567 -1.8926  0.2568 -1.0438
   91SAPS     N 8811   2.249   6.620   6.197 -0.4363  0.2884  0.5405
   91SAPS   HN1 8812   2.292   6.552   6.263  0.6619 -0.5805 -0.9970
   91SAPS   HN2 8813   2.309   6.703   6.182  0.0159 -0.0626  0.3974
   91SAPS   HN3 8814   2.172   6.661   6.254 -0.8329 -0.0588  0.2604
   91SAPS   C12 8815   2.211   6.565   6.064 -0.1169  0.6606 -0.5966
   91SAPS  H12A 8816   2.302   6.544   6.011 -0.2216 -2.3597  0.2534
   91SAPS   C13 8817   2.121   6.442   6.075  0.0824  0.2966 -0.2780
   91SAPS  O13A 8818   2.088   6.390   6.185  0.1493  0.2175  0.0834
   91SAPS  O13B 8819   2.098   6.384   5.968 -0.3841  0.4787  0.7300
   91SAPS   C11 8820   2.139   6.675   5.990 -0.0360 -0.3041  0.4714
   91SAPS  H11A 8821   2.116   6.638   5.888 -1.5505  1.7825  0.0002
   91SAPS  H11B 8822   2.199   6.768   5.980  0.4846 -0.7369 -0.5035
   91SAPS     P 8823   1.867   6.704   6.001 -0.3733  0.4298 -0.4859
   91SAPS   O13 8824   1.843   6.815   5.907 -0.2798 -0.3583 -0.5756
   91SAPS   O14 8825   1.821   6.568   5.950  0.2208 -0.0851  0.1777
   91SAPS   O12 8826   2.017   6.710   6.048 -0.4091  0.8279 -0.1627
   91SAPS   O11 8827   1.779   6.731   6.126  0.7314  0.3046 -0.4104
   91SAPS    C1 8828   1.777   6.852   6.201 -0.5437 -0.3866 -0.5411
   91SAPS    HA 8829   1.877   6.902   6.199  0.6141 -2.2686  2.7421
   91SAPS    HB 8830   1.696   6.917   6.162  0.4237  1.3075  0.1385
   91SAPS    C2 8831   1.736   6.817   6.345  0.0078 -0.2246  0.0224
   91SAPS    HS 8832   1.805   6.736   6.379  0.9227  1.8405  3.5486
   91SAPS   O21 8833   1.600   6.780   6.351 -0.5475 -0.0475  0.0552
   91SAPS   C21 8834   1.583   6.662   6.417  0.0025  0.2930  0.4983
   91SAPS   O22 8835   1.674   6.588   6.451  0.3822  0.7323 -0.2835
   91SAPS   C22 8836   1.428   6.643   6.430  0.2120  0.1031 -0.2458
   91SAPS   H2R 8837   1.387   6.738   6.470 -0.8608 -0.4083 -0.0963
   91SAPS   H2S 8838   1.380   6.623   6.332 -0.0949  0.6739 -0.2169
   91SAPS    C3 8839   1.763   6.934   6.445 -0.3735 -0.3067 -0.0974
   91SAPS    HX 8840   1.688   7.007   6.407  1.0554  1.7343  0.8287
   91SAPS    HY 8841   1.865   6.979   6.441  0.5782 -2.1338  1.7161
   91SAPS   O31 8842   1.740   6.886   6.586  0.1481  0.2837  0.4207
   91SAPS   C31 8843   1.845   6.834   6.640 -0.1802  0.3796  0.1077
   91SAPS   O32 8844   1.949   6.804   6.581 -0.6656 -0.2031  0.1231
   91SAPS   C32 8845   1.817   6.815   6.791  0.2728  0.2009  0.2009
   91SAPS   H2X 8846   1.732   6.744   6.796  0.2288  0.2344 -0.0673
   91SAPS   H2Y 8847   1.778   6.913   6.827 -0.8360 -0.0499 -0.2861
   91SAPS   C23 8848   1.390   6.522   6.528  0.3762  0.0991  0.1003
   91SAPS   H3R 8849   1.450   6.515   6.621  2.2157  0.1469 -1.0517
   91SAPS   H3S 8850   1.422   6.428   6.478  0.7486 -0.3846  1.2105
   91SAPS   C24 8851   1.245   6.511   6.572  0.0002 -0.0412 -0.1664
   91SAPS   H4R 8852   1.193   6.537   6.477 -0.3541  1.3582  0.3848
   91SAPS   H4S 8853   1.223   6.594   6.642 -0.3534 -0.8854  0.7320
   91SAPS   C25 8854   1.209   6.374   6.627 -0.1745  0.1575 -0.0232
   91SAPS   H5R 8855   1.175   6.301   6.551 -0.5475  0.6572 -0.3416
   91SAPS   C26 8856   1.206   6.340   6.753  1.0199  0.0549  0.2327
   91SAPS   H6R 8857   1.177   6.241   6.790  2.6708 -0.0145  1.4788
   91SAPS   C27 8858   1.227   6.438   6.863  0.6931  0.4306  0.0677
   91SAPS   H7R 8859   1.288   6.521   6.821 -0.9523  1.2841 -0.7142
   91SAPS   H7S 8860   1.296   6.394   6.938  2.2542  0.9458 -1.0229
   91SAPS   C28 8861   1.100   6.503   6.910  0.0653 -0.1677  0.3159
   91SAPS   H8R 8862   1.048   6.548   6.824 -0.4228 -2.2580 -0.5490
   91SAPS   C29 8863   1.061   6.526   7.031  0.6711  0.1444  0.2104
   91SAPS   H9R 8864   0.983   6.602   7.039  0.8637  0.3667  0.0082
   91SAPS  C210 8865   1.139   6.500   7.162  0.5147  0.1109  0.1008
   91SAPS  H10R 8866   1.235   6.445   7.155  1.2457  1.3597  0.0393
   91SAPS  H10S 8867   1.078   6.432   7.226  0.5792 -0.0301  0.0134
   91SAPS  C211 8868   1.151   6.635   7.239 -0.5318 -0.7535  0.7031
   91SAPS  H11R 8869   1.143   6.720   7.171 -1.4566 -1.3990 -0.0180
   91SAPS  C212 8870   1.150   6.653   7.376  0.5425 -0.5906  0.0810
   91SAPS  H12R 8871   1.165   6.753   7.420  0.2206  1.3560 -3.7851
   91SAPS  C213 8872   1.143   6.544   7.480 -0.5023 -0.1483  0.0322
   91SAPS  H13R 8873   1.063   6.470   7.458 -0.3228 -1.0666  2.1486
   91SAPS  H13S 8874   1.118   6.587   7.580 -1.8633 -1.1794  0.1678
   91SAPS  C214 8875   1.272   6.465   7.475  0.4208  1.3315 -0.4165
   91SAPS  H14R 8876   1.318   6.441   7.378 -2.4237  0.7799 -1.7353
   91SAPS  C215 8877   1.325   6.422   7.588 -0.4334 -0.4118  0.1287
   91SAPS  H15R 8878   1.420   6.367   7.584 -0.1894  0.0656 -0.9051
   91SAPS  C216 8879   1.281   6.423   7.727  0.1775  0.2054 -0.4141
   91SAPS  H16R 8880   1.226   6.329   7.751 -0.1571  0.5169  0.0414
   91SAPS  H16S 8881   1.212   6.508   7.741  1.2757  1.1097 -0.3819
   91SAPS  C217 8882   1.389   6.453   7.833 -0.0148 -0.1766 -0.2280
   91SAPS  H17R 8883   1.454   6.541   7.814  2.6970 -2.5202 -2.7818
   91SAPS  H17S 8884   1.466   6.373   7.836  0.3794  0.1538 -1.1523
   91SAPS  C218 8885   1.325   6.453   7.976  0.4674  0.1828 -0.2469
   91SAPS  H18R 8886   1.252   6.370   7.977 -0.4435  0.9727 -0.1907
   91SAPS  H18S 8887   1.277   6.551   7.998 -0.7737 -0.4598 -0.0058
   91SAPS  C219 8888   1.426   6.416   8.089 -0.9629 -0.6278 -0.2604
   91SAPS  H19R 8889   1.481   6.324   8.058 -0.3691 -1.2987  2.4653
   91SAPS  H19S 8890   1.369   6.382   8.178 -1.1238  0.0077 -0.1161
   91SAPS  C220 8891   1.531   6.525   8.128 -0.3114 -0.3495 -0.2375
   91SAPS  H20R 8892   1.600   6.531   8.042  0.5139  0.9286  0.4823
   91SAPS  H20S 8893   1.584   6.498   8.222 -0.9221 -0.8495 -0.0235
   91SAPS  H20T 8894   1.480   6.620   8.152  3.1583  0.9517  2.8123
   91SAPS   C33 8895   1.941   6.780   6.877  0.0841 -0.4264 -0.4102
   91SAPS   H3X 8896   2.007   6.869   6.884 -0.7924  0.3895 -2.0277
   91SAPS   H3Y 8897   2.001   6.699   6.829 -0.2410 -1.3733  0.7302
   91SAPS   C34 8898   1.895   6.731   7.011  0.9646 -0.4655 -0.2861
   91SAPS   H4X 8899   1.976   6.675   7.062  1.7278  1.6870  1.0069
   91SAPS   H4Y 8900   1.807   6.664   7.000  1.6968 -1.6830  0.9507
   91SAPS   C35 8901   1.876   6.836   7.119  0.0110 -0.3238  1.0282
   91SAPS   H5X 8902   1.785   6.895   7.092 -0.9250 -0.9287  2.6871
   91SAPS   H5Y 8903   1.954   6.915   7.123 -0.0375  0.2455 -3.5840
   91SAPS   C36 8904   1.854   6.774   7.258 -0.9328  0.5167  0.3359
   91SAPS   H6X 8905   1.921   6.685   7.252 -1.0970  0.4957 -2.1353
   91SAPS   H6Y 8906   1.755   6.734   7.289 -0.7580 -0.4777 -0.3092
   91SAPS   C37 8907   1.898   6.865   7.376  0.0226  0.8397  0.1748
   91SAPS   H7X 8908   1.819   6.942   7.385 -0.9391 -0.2138  1.0188
   91SAPS   H7Y 8909   1.993   6.919   7.353 -1.1849  3.8439  1.7716
   91SAPS   C38 8910   1.899   6.781   7.505  0.0064 -0.1156  0.7607
   91SAPS   H8X 8911   1.970   6.697   7.496 -0.1073 -0.0964 -0.5265
   91SAPS   H8Y 8912   1.803   6.728   7.526 -1.3170  1.7819 -0.1792
   91SAPS   C39 8913   1.943   6.870   7.625 -0.1513  0.4232 -0.0253
   91SAPS   H9X 8914   1.856   6.929   7.661 -0.7017 -0.6407  0.4316
   91SAPS   H9Y 8915   2.007   6.949   7.579 -0.4979  0.7554  0.0626
   91SAPS  C310 8916   1.975   6.797   7.760 -0.3856  0.2838  0.5456
   91SAPS  H10X 8917   2.057   6.723   7.754 -1.7394 -1.6307  3.5068
   91SAPS  H10Y 8918   1.879   6.744   7.777 -0.9178  0.3602 -1.7771
   91SAPS  C311 8919   1.996   6.897   7.875 -0.2978 -0.5441 -0.2082
   91SAPS  H11X 8920   1.906   6.962   7.878  0.1335  0.1723 -1.5325
   91SAPS  H11Y 8921   2.077   6.963   7.835 -1.1876 -0.1475 -1.3943
   91SAPS  C312 8922   2.034   6.835   8.007 -0.4193 -0.4193  0.4705
   91SAPS  H12X 8923   2.050   6.916   8.081 -1.2359  1.8645 -1.7046
   91SAPS  H12Y 8924   2.128   6.776   7.999 -0.8675 -1.2313  0.9863
   91SAPS  C313 8925   1.929   6.747   8.076  0.3734 -1.1343 -0.3787
   91SAPS  H13X 8926   1.906   6.657   8.015 -0.5142 -1.4607  0.4005
   91SAPS  H13Y 8927   1.829   6.792   8.098  0.3539 -1.0666 -0.6072
   91SAPS  C314 8928   1.982   6.688   8.210  0.0495  0.6544  0.8274
   91SAPS  H14X 8929   2.004   6.774   8.277 -0.8667  1.3384  0.2839
   91SAPS  H14Y 8930   2.080   6.639   8.194 -0.7500 -1.4839  2.1402
   91SAPS  C315 8931   1.877   6.586   8.268 -0.4594  0.4418 -0.1016
   91SAPS  H15X 8932   1.855   6.506   8.194 -1.3083 -0.3732  0.9991
   91SAPS  H15Y 8933   1.782   6.642   8.264 -1.4875 -1.0668  1.6019
   91SAPS  C316 8934   1.933   6.525   8.402 -0.3242 -0.0226 -0.7244
   91SAPS  H16X 8935   1.926   6.610   8.473  4.7152  0.6390 -0.6311
   91SAPS  H16Y 8936   2.042   6.509   8.387 -0.0570 -1.9559  2.4193
   91SAPS  C317 8937   1.863   6.413   8.476  0.6305  0.3642  0.2709
   91SAPS  H17X 8938   1.854   6.326   8.408  2.0749  1.2506 -1.1117
   91SAPS  H17Y 8939   1.760   6.441   8.508 -0.0440 -1.7379  0.0852
   91SAPS  C318 8940   1.938   6.367   8.601  0.8430  0.1204  0.0115
   91SAPS  H18X 8941   1.907   6.422   8.692  1.3577 -0.6245  0.6523
   91SAPS  H18Y 8942   2.048   6.373   8.583  1.1953 -3.9019 -0.1136
   91SAPS  H18Z 8943   1.906   6.261   8.617 -0.1474  0.0080 -2.3504
   92SAPS     N 8944   0.078   2.774   6.115  0.4613 -0.4328  0.6825
   92SAPS   HN1 8945   0.100   2.846   6.043 -1.5953  0.2518  0.6717
   92SAPS   HN2 8946   0.074   2.819   6.209 -1.5972 -1.5530  1.2087
   92SAPS   HN3 8947   0.153   2.703   6.123  0.7711 -0.1351  0.4516
   92SAPS   C12 8948  -0.057   2.718   6.081 -0.2006 -0.3448 -0.4487
   92SAPS  H12A 8949  -0.133   2.790   6.106 -0.1220 -0.4794  0.1947
   92SAPS   C13 8950  -0.072   2.692   5.928  0.1062  0.2047  1.0181
   92SAPS  O13A 8951   0.012   2.710   5.834  0.4184 -0.2482 -0.4158
   92SAPS  O13B 8952  -0.185   2.641   5.893 -0.1652 -0.0575  0.2309
   92SAPS   C11 8953  -0.087   2.593   6.167  0.3158  0.5032 -0.1144
   92SAPS  H11A 8954  -0.010   2.523   6.128  0.6112  1.4326 -1.2580
   92SAPS  H11B 8955  -0.186   2.552   6.140  0.6618 -0.7642  0.4983
   92SAPS     P 8956  -0.015   2.498   6.388  0.1982  0.1297  0.1495
   92SAPS   O13 8957  -0.022   2.365   6.326 -0.3464 -0.5821  0.1869
   92SAPS   O14 8958   0.123   2.544   6.417  0.2071  0.0680 -0.3658
   92SAPS   O12 8959  -0.095   2.606   6.306  0.2866  0.2310  0.3194
   92SAPS   O11 8960  -0.100   2.487   6.521 -0.2787 -0.1554  0.6376
   92SAPS    C1 8961  -0.123   2.607   6.601 -0.2557 -0.7004  0.5858
   92SAPS    HA 8962  -0.099   2.706   6.557 -1.8441 -0.3601  0.4174
   92SAPS    HB 8963  -0.229   2.606   6.635  0.3228 -0.9882  2.4677
   92SAPS    C2 8964  -0.050   2.597   6.738 -0.2221 -0.7806 -0.4741
   92SAPS    HS 8965  -0.081   2.676   6.810  1.4506 -2.0785  1.8166
   92SAPS   O21 8966   0.097   2.602   6.722  1.0207  0.1276 -0.4472
   92SAPS   C21 8967   0.149   2.705   6.678  0.7454 -0.9630  0.4430
   92SAPS   O22 8968   0.090   2.804   6.636 -0.0459 -0.4520  0.2468
   92SAPS   C22 8969   0.306   2.700   6.704  0.4206 -0.5470 -1.1235
   92SAPS   H2R 8970   0.343   2.610   6.756 -0.2354  0.8969  2.1122
   92SAPS   H2S 8971   0.353   2.703   6.604 -0.5602  1.4546 -1.5859
   92SAPS    C3 8972  -0.095   2.467   6.808 -0.2621  0.6335  0.4945
   92SAPS    HX 8973  -0.004   2.455   6.870  1.4749  2.0645 -1.6545
   92SAPS    HY 8974  -0.091   2.378   6.742 -0.2014  0.3895  0.8191
   92SAPS   O31 8975  -0.206   2.489   6.884  0.4212  0.1846 -0.3049
   92SAPS   C31 8976  -0.312   2.443   6.822  0.7388  0.6202  0.1851
   92SAPS   O32 8977  -0.319   2.373   6.722 -0.1750  0.7834  0.4383
   92SAPS   C32 8978  -0.429   2.471   6.914  0.4578  0.0530  0.3380
   92SAPS   H2X 8979  -0.482   2.374   6.914 -1.5154  1.0663  0.0726
   92SAPS   H2Y 8980  -0.503   2.540   6.868  0.9810  1.7119  1.8273
   92SAPS   C23 8981   0.365   2.805   6.797 -0.4986  0.6376  0.1012
   92SAPS   H3R 8982   0.342   2.909   6.765 -1.1069  0.7644  0.9248
   92SAPS   H3S 8983   0.476   2.803   6.798 -0.4628  1.3191 -1.2192
   92SAPS   C24 8984   0.321   2.785   6.944 -0.0623  0.5772  0.4749
   92SAPS   H4R 8985   0.354   2.680   6.960 -2.2370 -0.1807  0.4237
   92SAPS   H4S 8986   0.212   2.804   6.955  0.2140  3.1299 -0.5927
   92SAPS   C25 8987   0.400   2.868   7.046  0.2472  0.1348  0.4051
   92SAPS   H5R 8988   0.444   2.957   7.000  0.8152 -0.7310 -0.7699
   92SAPS   C26 8989   0.422   2.847   7.181 -0.0847  0.3264 -0.4577
   92SAPS   H6R 8990   0.487   2.916   7.237 -0.6769 -0.0251  0.6955
   92SAPS   C27 8991   0.378   2.724   7.258  0.2711 -0.1959  0.3163
   92SAPS   H7R 8992   0.371   2.644   7.181 -0.0913  1.0142 -0.9348
   92SAPS   H7S 8993   0.273   2.745   7.288 -0.1780 -2.1317  0.2469
   92SAPS   C28 8994   0.446   2.680   7.384  0.1431  0.5020 -0.1824
   92SAPS   H8R 8995   0.487   2.578   7.383  0.8791  0.7528  1.2747
   92SAPS   C29 8996   0.436   2.739   7.505 -0.2258  0.5317  0.1907
   92SAPS   H9R 8997   0.502   2.704   7.586 -0.8618  0.8640  0.8711
   92SAPS  C210 8998   0.370   2.868   7.542  0.0951 -0.3217  0.0146
   92SAPS  H10R 8999   0.364   2.947   7.463  0.2911  0.6500  0.9446
   92SAPS  H10S 9000   0.440   2.916   7.614  0.0984  1.6702 -1.2427
   92SAPS  C211 9001   0.232   2.827   7.598  0.1762  0.5160  0.4626
   92SAPS  H11R 9002   0.160   2.790   7.524 -1.2075 -0.9041  2.4172
   92SAPS  C212 9003   0.199   2.855   7.725  0.4901  0.5381  1.0043
   92SAPS  H12R 9004   0.096   2.835   7.761 -0.8012 -0.2917 -2.7349
   92SAPS  C213 9005   0.281   2.919   7.832 -0.0389 -0.4391 -0.2034
   92SAPS  H13R 9006   0.232   3.015   7.859 -0.4285 -0.6346 -0.1999
   92SAPS  H13S 9007   0.382   2.959   7.812  0.6690 -2.0782 -0.0955
   92SAPS  C214 9008   0.300   2.811   7.943  0.3517  0.1001 -0.1238
   92SAPS  H14R 9009   0.329   2.713   7.903 -0.0772 -0.3756  0.7160
   92SAPS  C215 9010   0.272   2.821   8.072  0.8714 -0.4705  0.1090
   92SAPS  H15R 9011   0.291   2.732   8.135  1.6575 -1.2258 -1.1498
   92SAPS  C216 9012   0.222   2.951   8.143  0.1938 -0.2877 -0.0609
   92SAPS  H16R 9013   0.115   2.958   8.169  0.7974  0.1061  2.5963
   92SAPS  H16S 9014   0.233   3.044   8.084 -4.1558  0.8182  0.5720
   92SAPS  C217 9015   0.298   2.972   8.275  0.4755  0.2859  0.3934
   92SAPS  H17R 9016   0.408   2.968   8.257  0.2306 -0.1299 -1.0970
   92SAPS  H17S 9017   0.282   2.887   8.344 -0.4791  1.9251  2.2929
   92SAPS  C218 9018   0.281   3.110   8.338 -0.2530 -0.2356 -0.3796
   92SAPS  H18R 9019   0.180   3.130   8.380  0.5167  1.2193  0.8827
   92SAPS  H18S 9020   0.304   3.194   8.269 -1.0677  0.4139  0.1106
   92SAPS  C219 9021   0.367   3.124   8.471 -0.0918  0.7191 -0.0452
   92SAPS  H19R 9022   0.460   3.170   8.433  0.3951  1.6724  2.1550
   92SAPS  H19S 9023   0.396   3.025   8.512  0.1819  1.1637  0.8516
   92SAPS  C220 9024   0.301   3.216   8.572  0.2266  0.0590  0.4483
   92SAPS  H20R 9025   0.264   3.304   8.515  0.8025  0.5065  0.7595
   92SAPS  H20S 9026   0.375   3.254   8.645 -0.1619 -0.7268  1.2682
   92SAPS  H20T 9027   0.219   3.162   8.624 -1.0402 -0.5164 -1.9969
   92SAPS   C33 9028  -0.400   2.520   7.060  0.2873 -0.5017 -0.3358
   92SAPS   H3X 9029  -0.349   2.618   7.065 -1.6156  0.4800  0.9985
   92SAPS   H3Y 9030  -0.330   2.451   7.111  0.6974  1.5638  2.0671
   92SAPS   C34 9031  -0.530   2.536   7.143 -0.0936 -0.0875 -0.3532
   92SAPS   H4X 9032  -0.588   2.441   7.146  0.0952 -0.2648 -1.5865
   92SAPS   H4Y 9033  -0.594   2.611   7.092  0.0171  0.6517  0.5619
   92SAPS   C35 9034  -0.500   2.596   7.280  0.1779  0.8159  0.7441
   92SAPS   H5X 9035  -0.603   2.607   7.319 -0.8578  0.3115 -1.6485
   92SAPS   H5Y 9036  -0.444   2.690   7.260 -0.7015  1.8177  2.7126
   92SAPS   C36 9037  -0.419   2.514   7.376 -0.9343  0.5652  0.1483
   92SAPS   H6X 9038  -0.323   2.508   7.321 -2.2533 -1.9381 -2.1683
   92SAPS   H6Y 9039  -0.458   2.410   7.385  2.0974 -0.7350 -0.3774
   92SAPS   C37 9040  -0.405   2.585   7.514  0.5599 -0.2115 -0.1965
   92SAPS   H7X 9041  -0.340   2.675   7.506 -1.4047  1.1304 -2.8550
   92SAPS   H7Y 9042  -0.346   2.521   7.583 -0.4134  0.9118  1.8018
   92SAPS   C38 9043  -0.538   2.635   7.581  0.4500 -0.0512 -0.0782
   92SAPS   H8X 9044  -0.609   2.550   7.590  1.7303 -1.1403  0.1334
   92SAPS   H8Y 9045  -0.580   2.709   7.510  2.2397  0.2485 -0.8790
   92SAPS   C39 9046  -0.514   2.690   7.720 -0.2789 -0.8264 -0.1925
   92SAPS   H9X 9047  -0.447   2.777   7.703  1.8627 -1.7090  2.7726
   92SAPS   H9Y 9048  -0.457   2.615   7.780  3.8756  1.6365 -0.6599
   92SAPS  C310 9049  -0.631   2.750   7.801  0.1767  0.2065  0.9570
   92SAPS  H10X 9050  -0.723   2.687   7.797 -0.5158  1.1930  1.1354
   92SAPS  H10Y 9051  -0.639   2.846   7.747  3.1349  0.3011  0.5093
   92SAPS  C311 9052  -0.596   2.797   7.951 -0.3476 -0.1384 -0.7372
   92SAPS  H11X 9053  -0.566   2.711   8.014 -1.8972 -0.2383 -0.1023
   92SAPS  H11Y 9054  -0.696   2.829   7.987 -0.4852 -0.3678 -0.9193
   92SAPS  C312 9055  -0.489   2.907   7.952  0.3261  0.5432 -0.0361
   92SAPS  H12X 9056  -0.507   2.963   7.858 -1.4840  0.0113 -0.0421
   92SAPS  H12Y 9057  -0.382   2.883   7.969  1.2185  2.7156 -1.9493
   92SAPS  C313 9058  -0.520   3.007   8.063 -0.0108 -0.4610 -0.1621
   92SAPS  H13X 9059  -0.627   3.031   8.045 -0.2060  0.0529  1.5258
   92SAPS  H13Y 9060  -0.462   3.101   8.056  0.5755 -0.9263 -2.6226
   92SAPS  C314 9061  -0.497   2.948   8.202  0.2564  0.0549 -0.3086
   92SAPS  H14X 9062  -0.553   2.852   8.212  1.7525 -0.8925 -0.6703
   92SAPS  H14Y 9063  -0.535   3.024   8.273 -0.6358  0.5361 -1.2860
   92SAPS  C315 9064  -0.352   2.918   8.226  0.0156  0.0297 -0.2381
   92SAPS  H15X 9065  -0.294   3.005   8.191  1.3019 -0.4797  0.5408
   92SAPS  H15Y 9066  -0.318   2.832   8.165 -0.5143  1.1473 -2.1723
   92SAPS  C316 9067  -0.320   2.881   8.373  0.0543  0.0906  0.5503
   92SAPS  H16X 9068  -0.349   2.774   8.379 -0.9483  0.3270  0.1462
   92SAPS  H16Y 9069  -0.383   2.941   8.442 -1.1513  0.5080 -0.8549
   92SAPS  C317 9070  -0.168   2.907   8.404 -0.4752 -0.2631  0.2448
   92SAPS  H17X 9071  -0.112   2.883   8.311 -0.5737  0.4096  0.0001
   92SAPS  H17Y 9072  -0.138   2.843   8.489  0.5525 -0.7703 -0.4824
   92SAPS  C318 9073  -0.139   3.051   8.440  0.0844  0.2587  0.0089
   92SAPS  H18X 9074  -0.145   3.114   8.349  0.9217  1.8345  1.0138
   92SAPS  H18Y 9075  -0.046   3.063   8.499  0.1498 -2.0090  0.4685
   92SAPS  H18Z 9076  -0.226   3.090   8.497  0.4177  3.2321 -1.3406
   93SAPS     N 9077   2.898   0.610   6.450  0.2050 -0.2226  0.0869
   93SAPS   HN1 9078   2.999   0.586   6.447 -0.4362 -3.2405 -0.3467
   93SAPS   HN2 9079   2.871   0.684   6.518 -1.3129 -1.9320  1.4235
   93SAPS   HN3 9080   2.842   0.526   6.475 -3.4685  1.7269 -0.7490
   93SAPS   C12 9081   2.866   0.653   6.312  0.0005 -0.2425 -0.2925
   93SAPS  H12A 9082   2.911   0.583   6.245 -1.7818 -0.2928 -1.5097
   93SAPS   C13 9083   2.711   0.656   6.290  0.2483  0.0761 -0.0874
   93SAPS  O13A 9084   2.631   0.617   6.382  0.8308  0.2557 -0.0387
   93SAPS  O13B 9085   2.672   0.677   6.175 -0.6274 -0.0136  0.0884
   93SAPS   C11 9086   2.925   0.797   6.292 -0.2974 -0.5620 -0.1034
   93SAPS  H11A 9087   2.930   0.811   6.181 -0.7501 -3.3106 -0.5233
   93SAPS  H11B 9088   3.029   0.787   6.331 -0.3419  0.4330  0.3205
   93SAPS     P 9089   2.878   1.057   6.317 -0.0763  0.1821 -0.6551
   93SAPS   O13 9090   2.814   1.078   6.187  0.6184  0.2219 -0.1642
   93SAPS   O14 9091   2.830   1.135   6.432  0.1521 -0.1384 -1.0292
   93SAPS   O12 9092   2.856   0.902   6.351  0.0527 -0.6542 -0.0771
   93SAPS   O11 9093   3.038   1.061   6.316 -0.2429  0.4515  0.0451
   93SAPS    C1 9094   3.124   1.158   6.264  0.8080 -0.3391  0.4773
   93SAPS    HA 9095   3.205   1.111   6.204  0.7378 -1.7057  1.4182
   93SAPS    HB 9096   3.066   1.226   6.198 -0.4482 -1.4832  0.3655
   93SAPS    C2 9097   3.185   1.241   6.372  0.0148 -0.5619  0.4939
   93SAPS    HS 9098   3.292   1.257   6.347  0.2974  0.3352  2.1334
   93SAPS   O21 9099   3.174   1.177   6.499  0.3935 -0.0806 -0.2686
   93SAPS   C21 9100   3.236   1.054   6.502 -0.4745 -0.3316 -0.5747
   93SAPS   O22 9101   3.311   1.008   6.416  0.4167  0.2198  0.3608
   93SAPS   C22 9102   3.222   0.992   6.641  0.4122  0.0728  0.0302
   93SAPS   H2R 9103   3.317   1.010   6.695  1.9426  1.5866 -2.9056
   93SAPS   H2S 9104   3.142   1.051   6.692 -1.9032  0.3595 -3.5616
   93SAPS    C3 9105   3.135   1.385   6.384  0.6425  0.8098  0.2817
   93SAPS    HX 9106   3.024   1.386   6.376  0.5625  0.6075  1.2165
   93SAPS    HY 9107   3.174   1.436   6.293 -0.3856  1.2613  0.0829
   93SAPS   O31 9108   3.175   1.463   6.494  0.0174  0.3305  0.1092
   93SAPS   C31 9109   3.085   1.482   6.591 -1.0606  0.4283 -0.5051
   93SAPS   O32 9110   2.975   1.433   6.610  0.1164 -0.0909  0.5646
   93SAPS   C32 9111   3.140   1.582   6.686 -0.3089  0.1870 -0.3198
   93SAPS   H2X 9112   3.109   1.687   6.668 -1.7777  0.4825  3.0387
   93SAPS   H2Y 9113   3.251   1.579   6.688 -0.2529 -3.3564 -1.4962
   93SAPS   C23 9114   3.189   0.842   6.627  0.7117 -0.3877 -0.1517
   93SAPS   H3R 9115   3.280   0.782   6.608  1.4671  0.6280  0.1872
   93SAPS   H3S 9116   3.106   0.824   6.555  0.3077 -0.0415  0.2176
   93SAPS   C24 9117   3.140   0.780   6.763 -0.1658 -0.4043  0.1767
   93SAPS   H4R 9118   3.121   0.672   6.746  2.3271 -0.7501 -0.8273
   93SAPS   H4S 9119   3.043   0.827   6.790  1.2148  2.3379  0.6706
   93SAPS   C25 9120   3.234   0.797   6.882 -0.1425 -0.1437  0.8820
   93SAPS   H5R 9121   3.334   0.755   6.863  0.6643  1.6904  0.8489
   93SAPS   C26 9122   3.215   0.886   6.981  0.0315 -0.1604 -0.3268
   93SAPS   H6R 9123   3.292   0.878   7.058  0.1313 -3.1178 -0.6083
   93SAPS   C27 9124   3.096   0.971   7.013  0.5030  0.3849 -0.2019
   93SAPS   H7R 9125   3.055   0.933   7.109  0.1154 -0.8433 -0.8289
   93SAPS   H7S 9126   3.005   0.958   6.952 -1.8387 -0.4154  3.1888
   93SAPS   C28 9127   3.130   1.121   7.011 -0.8294  0.2326  0.1457
   93SAPS   H8R 9128   3.216   1.153   6.950 -1.2721 -0.3902 -0.8416
   93SAPS   C29 9129   3.062   1.221   7.067  0.4499 -0.0670 -0.6096
   93SAPS   H9R 9130   3.098   1.323   7.048 -1.3140  0.6361 -0.3710
   93SAPS  C210 9131   2.936   1.205   7.156  0.1169  0.2366 -0.1883
   93SAPS  H10R 9132   2.932   1.104   7.201 -0.2363  0.3982  0.1478
   93SAPS  H10S 9133   2.852   1.208   7.083  1.2759  1.7035 -1.5308
   93SAPS  C211 9134   2.916   1.312   7.255  0.4668 -0.3390 -0.2439
   93SAPS  H11R 9135   2.851   1.387   7.208 -1.5322 -2.0830 -0.3814
   93SAPS  C212 9136   2.944   1.326   7.386  0.2375  0.3193  0.0194
   93SAPS  H12R 9137   2.919   1.414   7.447 -1.7586  0.2186 -0.5859
   93SAPS  C213 9138   3.015   1.221   7.470  0.1198  0.2911 -0.4419
   93SAPS  H13R 9139   3.089   1.275   7.533 -0.0084  0.5254 -0.4891
   93SAPS  H13S 9140   3.083   1.164   7.404  0.8428  0.1889  0.3641
   93SAPS  C214 9141   2.932   1.137   7.569  0.2909  0.0620 -0.7421
   93SAPS  H14R 9142   2.879   1.047   7.533 -0.2549 -0.8055  1.9790
   93SAPS  C215 9143   2.900   1.179   7.693  0.0711 -0.2663 -0.6078
   93SAPS  H15R 9144   2.849   1.116   7.768  0.8171  0.5289  0.5927
   93SAPS  C216 9145   2.947   1.316   7.755  0.0726 -0.2263 -0.1343
   93SAPS  H16R 9146   2.855   1.378   7.750  0.4472  0.2592 -1.2484
   93SAPS  H16S 9147   3.024   1.364   7.691  0.1012 -2.4363 -1.8964
   93SAPS  C217 9148   3.005   1.310   7.898 -0.6118  0.2935  0.5732
   93SAPS  H17R 9149   3.049   1.408   7.926 -1.5909  1.0014 -0.2837
   93SAPS  H17S 9150   3.084   1.232   7.900  1.0399  1.7635 -1.8939
   93SAPS  C218 9151   2.901   1.269   8.004 -0.0163  0.0403 -0.5275
   93SAPS  H18R 9152   2.876   1.161   8.000  0.3279 -0.3126  3.2005
   93SAPS  H18S 9153   2.813   1.336   7.994 -0.1358  0.0444  0.4561
   93SAPS  C219 9154   2.962   1.272   8.140 -0.2584  0.6606  0.2924
   93SAPS  H19R 9155   2.995   1.373   8.174 -1.4492  0.8652  0.9042
   93SAPS  H19S 9156   3.058   1.217   8.141 -0.2873  0.5846 -0.5574
   93SAPS  C220 9157   2.868   1.214   8.248  0.1623 -1.1622  0.3075
   93SAPS  H20R 9158   2.763   1.247   8.230  0.2904  0.7966  2.6549
   93SAPS  H20S 9159   2.905   1.243   8.349  0.1141  0.2723 -0.0704
   93SAPS  H20T 9160   2.863   1.103   8.247  1.9406 -1.2786  0.3934
   93SAPS   C33 9161   3.092   1.561   6.832  0.3376  0.1002  0.9963
   93SAPS   H3X 9162   3.116   1.457   6.863  0.4197 -0.8038 -1.8171
   93SAPS   H3Y 9163   2.981   1.556   6.843  0.1693  0.6194 -0.3268
   93SAPS   C34 9164   3.166   1.663   6.929 -0.1767 -0.1364  0.3847
   93SAPS   H4X 9165   3.128   1.765   6.905 -0.3110 -0.1416  0.5758
   93SAPS   H4Y 9166   3.273   1.661   6.899  0.1297  0.4341  1.3796
   93SAPS   C35 9167   3.134   1.633   7.078 -0.1920 -0.6060 -0.5075
   93SAPS   H5X 9168   3.186   1.537   7.102 -1.0886 -0.8518  0.5673
   93SAPS   H5Y 9169   3.023   1.625   7.082 -0.4404  1.5803 -1.5456
   93SAPS   C36 9170   3.177   1.735   7.177  0.5638  0.1150  0.6843
   93SAPS   H6X 9171   3.103   1.817   7.188  0.1610 -0.0635 -0.5198
   93SAPS   H6Y 9172   3.267   1.780   7.128  1.9754 -2.2793  0.9317
   93SAPS   C37 9173   3.211   1.685   7.324 -0.1551 -0.0060  1.2090
   93SAPS   H7X 9174   3.272   1.766   7.370 -0.4710  1.0015 -0.1050
   93SAPS   H7Y 9175   3.275   1.594   7.316  0.9625  0.9441 -3.3109
   93SAPS   C38 9176   3.089   1.675   7.413 -0.3086  0.4729 -0.2923
   93SAPS   H8X 9177   3.027   1.599   7.362 -0.5094  0.0662  0.5450
   93SAPS   H8Y 9178   3.049   1.779   7.408  1.9669  1.3835 -0.7956
   93SAPS   C39 9179   3.115   1.624   7.557 -0.7846 -0.1677 -0.5718
   93SAPS   H9X 9180   3.183   1.537   7.546 -2.0143 -0.9667 -2.4003
   93SAPS   H9Y 9181   3.029   1.570   7.604  1.8151 -3.4347  0.8939
   93SAPS  C310 9182   3.152   1.734   7.660  0.1241  0.1399 -0.2940
   93SAPS  H10X 9183   3.084   1.819   7.636 -2.3339 -0.9171  2.3557
   93SAPS  H10Y 9184   3.255   1.777   7.656 -0.4817  1.7272  0.2554
   93SAPS  C311 9185   3.132   1.683   7.798  0.6179 -0.1923 -0.8938
   93SAPS  H11X 9186   3.194   1.593   7.818  1.0902  0.4470  0.6393
   93SAPS  H11Y 9187   3.026   1.650   7.800 -0.0257  1.7270 -1.2400
   93SAPS  C312 9188   3.168   1.781   7.909  0.0449 -0.5928 -0.2482
   93SAPS  H12X 9189   3.101   1.870   7.904 -0.3492 -0.9671 -3.6949
   93SAPS  H12Y 9190   3.275   1.808   7.901  0.3493 -1.9823 -1.1052
   93SAPS  C313 9191   3.148   1.716   8.043  1.0261  0.2772 -0.0480
   93SAPS  H13X 9192   3.178   1.609   8.051  1.9990  0.6323  1.4880
   93SAPS  H13Y 9193   3.037   1.709   8.040  0.9890  1.0424 -1.1217
   93SAPS  C314 9194   3.200   1.802   8.164  0.0863 -0.4765  0.3166
   93SAPS  H14X 9195   3.163   1.907   8.160  1.4280  0.0030 -0.0583
   93SAPS  H14Y 9196   3.310   1.807   8.154 -0.1001  0.4936 -1.8808
   93SAPS  C315 9197   3.177   1.741   8.304  0.3253 -0.6490 -0.8500
   93SAPS  H15X 9198   3.221   1.640   8.317 -0.0225 -0.6268  0.7473
   93SAPS  H15Y 9199   3.068   1.730   8.322  0.9181 -2.1814  2.7581
   93SAPS  C316 9200   3.232   1.824   8.425  0.1257  0.0196  0.1336
   93SAPS  H16X 9201   3.211   1.773   8.521 -0.7971 -0.0256 -0.0839
   93SAPS  H16Y 9202   3.182   1.920   8.446  3.2482  1.9240 -0.4675
   93SAPS  C317 9203   3.381   1.840   8.419 -0.2707 -0.4472  0.0262
   93SAPS  H17X 9204   3.405   1.904   8.331  0.6348 -0.6979  0.0742
   93SAPS  H17Y 9205   3.422   1.738   8.405  0.6439 -0.3706  1.7728
   93SAPS  C318 9206   3.447   1.905   8.545  0.1910  0.6393  1.0838
   93SAPS  H18X 9207   3.425   2.013   8.561 -1.1105  0.7030 -0.7706
   93SAPS  H18Y 9208   3.555   1.893   8.523  0.2385  0.3538  1.4560
   93SAPS  H18Z 9209   3.422   1.847   8.636  1.6710  1.3077  1.9511
   94SAPS     N 9210   6.765   6.725   6.068 -0.1704 -0.1978 -0.8558
   94SAPS   HN1 9211   6.756   6.806   6.133  0.8457  0.8880 -1.9902
   94SAPS   HN2 9212   6.675   6.676   6.057 -0.6505  0.6378 -0.7274
   94SAPS   HN3 9213   6.845   6.674   6.109  0.3486 -0.3353 -1.9903
   94SAPS   C12 9214   6.822   6.764   5.940  0.1780 -0.2311 -0.1344
   94SAPS  H12A 9215   6.859   6.673   5.894 -2.7233 -1.5170 -0.1232
   94SAPS   C13 9216   6.718   6.817   5.843 -0.1428 -0.5670  0.2981
   94SAPS  O13A 9217   6.599   6.822   5.883  0.1488  0.1983  0.2667
   94SAPS  O13B 9218   6.749   6.811   5.722 -0.3120 -0.2411  0.3228
   94SAPS   C11 9219   6.942   6.868   5.950  0.5333  0.4526 -0.1370
   94SAPS  H11A 9220   6.901   6.971   5.960 -1.9040 -0.4593  0.0479
   94SAPS  H11B 9221   6.997   6.861   5.854 -0.8353 -0.4361 -0.8892
   94SAPS     P 9222   7.129   6.932   6.111  0.5860  0.0220  0.4388
   94SAPS   O13 9223   7.204   6.992   5.994  0.1311  0.2930 -0.3546
   94SAPS   O14 9224   7.070   7.026   6.213 -0.2295 -0.1620 -0.3067
   94SAPS   O12 9225   7.023   6.840   6.059 -0.5363  0.6059  0.4770
   94SAPS   O11 9226   7.219   6.834   6.186 -0.8490  0.2460 -0.5615
   94SAPS    C1 9227   7.159   6.729   6.263 -0.5235  0.2430 -0.0260
   94SAPS    HA 9228   7.117   6.647   6.200 -0.2000 -2.1878  2.6819
   94SAPS    HB 9229   7.239   6.679   6.323  1.1138  1.1449 -1.3760
   94SAPS    C2 9230   7.050   6.762   6.375 -0.3257 -0.4060  0.1650
   94SAPS    HS 9231   6.964   6.818   6.333 -2.5188 -1.5623  2.8173
   94SAPS   O21 9232   7.110   6.840   6.475 -0.5672  0.1923  0.2072
   94SAPS   C21 9233   7.031   6.911   6.551 -0.6441  0.5448  0.4186
   94SAPS   O22 9234   6.910   6.891   6.560 -0.4192 -0.5105  0.4372
   94SAPS   C22 9235   7.112   7.012   6.626  0.5753  0.4957  0.3467
   94SAPS   H2R 9236   7.220   6.989   6.626  0.2935 -0.9071  1.1646
   94SAPS   H2S 9237   7.117   7.112   6.578  2.3195  0.6544  0.8110
   94SAPS    C3 9238   6.994   6.627   6.436  0.1096 -0.3044 -0.0395
   94SAPS    HX 9239   6.929   6.591   6.353  0.5591  0.9536 -0.9850
   94SAPS    HY 9240   6.925   6.652   6.520 -0.0505 -1.8596  0.3127
   94SAPS   O31 9241   7.097   6.533   6.474  0.0569  0.0619 -0.2861
   94SAPS   C31 9242   7.052   6.410   6.484  0.3596  0.2914 -0.6097
   94SAPS   O32 9243   6.937   6.372   6.457 -0.6364 -0.1665 -0.2026
   94SAPS   C32 9244   7.159   6.319   6.546 -0.2595 -0.7439  0.5148
   94SAPS   H2X 9245   7.252   6.324   6.486  0.5783  0.5772  1.8594
   94SAPS   H2Y 9246   7.120   6.215   6.545  0.3963 -0.9886  0.3009
   94SAPS   C23 9247   7.073   7.037   6.775  0.6994  0.4569  0.0164
   94SAPS   H3R 9248   7.082   6.939   6.827 -1.5227 -0.3745 -1.0476
   94SAPS   H3S 9249   6.966   7.065   6.777  1.0583  1.9412 -0.2349
   94SAPS   C24 9250   7.144   7.154   6.849 -0.1671  0.4755  0.9320
   94SAPS   H4R 9251   7.097   7.171   6.949 -0.7246 -0.0013  0.7546
   94SAPS   H4S 9252   7.133   7.247   6.789  0.1337 -1.1018 -1.7056
   94SAPS   C25 9253   7.291   7.122   6.873 -0.6792  0.1105 -0.2729
   94SAPS   H5R 9254   7.356   7.106   6.786  0.5549  0.5339  0.5369
   94SAPS   C26 9255   7.348   7.105   6.993 -0.4427 -0.3252 -0.8871
   94SAPS   H6R 9256   7.457   7.090   6.990 -0.2780  0.5542  0.0340
   94SAPS   C27 9257   7.291   7.103   7.137 -0.0524  1.1535  0.0243
   94SAPS   H7R 9258   7.247   7.002   7.152 -0.0782  0.9285 -1.4639
   94SAPS   H7S 9259   7.201   7.168   7.141 -0.0672  1.0795  2.4109
   94SAPS   C28 9260   7.385   7.139   7.253  0.0044 -0.0923  0.7621
   94SAPS   H8R 9261   7.490   7.108   7.241  0.3454  1.3491 -0.1784
   94SAPS   C29 9262   7.358   7.198   7.368  0.5055  0.0852  0.0981
   94SAPS   H9R 9263   7.449   7.217   7.427  0.7599 -0.4794 -0.1044
   94SAPS  C210 9264   7.227   7.253   7.425  0.1540  0.5445 -0.2983
   94SAPS  H10R 9265   7.184   7.180   7.496 -0.3095  0.4984 -0.6216
   94SAPS  H10S 9266   7.140   7.255   7.356 -1.1588 -0.5794  1.2443
   94SAPS  C211 9267   7.256   7.387   7.483 -0.2457 -0.8697 -0.4308
   94SAPS  H11R 9268   7.271   7.472   7.416  1.5743  2.0674  3.2965
   94SAPS  C212 9269   7.283   7.421   7.615 -0.3511  0.8623  0.4878
   94SAPS  H12R 9270   7.313   7.524   7.637  0.3587  0.5285  1.1709
   94SAPS  C213 9271   7.289   7.321   7.728  0.6656  0.9836 -0.7360
   94SAPS  H13R 9272   7.224   7.233   7.712  0.7392  1.0077 -1.1720
   94SAPS  H13S 9273   7.239   7.376   7.811  0.5068  0.3181 -0.3868
   94SAPS  C214 9274   7.428   7.267   7.752 -0.4420 -0.7609 -0.3552
   94SAPS  H14R 9275   7.489   7.260   7.661  0.9005  1.8057  0.2531
   94SAPS  C215 9276   7.465   7.220   7.873 -0.8573 -0.6893  0.1832
   94SAPS  H15R 9277   7.571   7.191   7.880 -0.0617  2.3805  3.7676
   94SAPS  C216 9278   7.381   7.225   8.000 -0.5869  0.2996 -0.1634
   94SAPS  H16R 9279   7.291   7.287   7.981 -0.1131  1.1218  0.2181
   94SAPS  H16S 9280   7.437   7.289   8.071 -0.0949  0.0732 -0.3391
   94SAPS  C217 9281   7.345   7.094   8.065 -0.6733 -0.2060  0.1222
   94SAPS  H17R 9282   7.426   7.019   8.075 -1.2596 -0.9037 -0.1886
   94SAPS  H17S 9283   7.263   7.048   8.005  0.1002 -2.4778  0.6858
   94SAPS  C218 9284   7.292   7.126   8.204  0.1799  0.5544 -0.9848
   94SAPS  H18R 9285   7.246   7.029   8.232  1.1651 -0.0911 -1.5562
   94SAPS  H18S 9286   7.216   7.206   8.206 -2.1648 -1.3835  3.5158
   94SAPS  C219 9287   7.398   7.163   8.317  0.2074  0.0984 -0.0071
   94SAPS  H19R 9288   7.444   7.260   8.289  2.3643 -1.0254 -0.5643
   94SAPS  H19S 9289   7.477   7.085   8.324  2.6251  2.2822 -1.1644
   94SAPS  C220 9290   7.332   7.183   8.458 -0.2440 -0.2601 -0.0108
   94SAPS  H20R 9291   7.330   7.087   8.514  3.4856  1.2280  3.1392
   94SAPS  H20S 9292   7.225   7.209   8.451 -0.3423  0.0851  2.1661
   94SAPS  H20T 9293   7.381   7.267   8.512  0.2902 -1.1815  0.9684
   94SAPS   C33 9294   7.181   6.348   6.697  0.3516 -0.0385 -0.2264
   94SAPS   H3X 9295   7.191   6.451   6.737  0.4433 -0.1433  0.0285
   94SAPS   H3Y 9296   7.279   6.299   6.716  1.6184  2.8435  1.1896
   94SAPS   C34 9297   7.069   6.280   6.783 -0.3171  0.0659  0.3007
   94SAPS   H4X 9298   7.056   6.176   6.747 -1.8566  0.7952 -1.4608
   94SAPS   H4Y 9299   6.968   6.324   6.766 -1.1123 -1.6261  0.4067
   94SAPS   C35 9300   7.107   6.274   6.934  0.4067  0.5392 -0.2198
   94SAPS   H5X 9301   7.109   6.380   6.966  0.5369  0.1401  1.1712
   94SAPS   H5Y 9302   7.205   6.222   6.946  0.6845  0.8513 -1.0639
   94SAPS   C36 9303   6.997   6.194   7.011  0.5419 -0.3447  0.1644
   94SAPS   H6X 9304   6.984   6.097   6.958 -0.9350 -0.1045  0.0329
   94SAPS   H6Y 9305   6.900   6.249   7.010  0.6334  0.0277  2.9616
   94SAPS   C37 9306   7.042   6.176   7.160 -0.6781  0.2717 -0.5651
   94SAPS   H7X 9307   7.147   6.139   7.153  0.0649  2.5468 -4.3726
   94SAPS   H7Y 9308   6.994   6.087   7.205  0.7236 -1.2083 -1.8476
   94SAPS   C38 9309   7.025   6.295   7.245  0.4850 -0.1003 -0.3152
   94SAPS   H8X 9310   6.921   6.336   7.242  0.5567  0.0647 -0.6960
   94SAPS   H8Y 9311   7.092   6.376   7.208 -0.3723  1.0276  0.5073
   94SAPS   C39 9312   7.071   6.255   7.392 -0.0218 -0.4304  0.2402
   94SAPS   H9X 9313   7.175   6.217   7.385 -0.0010 -0.2350 -0.8052
   94SAPS   H9Y 9314   7.001   6.175   7.424 -0.5759  0.1299  0.4591
   94SAPS  C310 9315   7.059   6.373   7.486 -0.0089 -0.3867 -0.3585
   94SAPS  H10X 9316   6.958   6.417   7.476  0.2719  1.0535  2.2183
   94SAPS  H10Y 9317   7.121   6.460   7.458 -1.1999  0.8201  0.6299
   94SAPS  C311 9318   7.079   6.344   7.637 -0.1742  0.2368  0.5224
   94SAPS  H11X 9319   7.184   6.311   7.651 -0.3483 -2.0617 -2.4934
   94SAPS  H11Y 9320   7.015   6.255   7.658 -2.2508  0.6950 -3.0417
   94SAPS  C312 9321   7.028   6.450   7.735  0.1997  0.0881 -0.5306
   94SAPS  H12X 9322   6.921   6.464   7.709 -0.3070 -3.3775 -0.8503
   94SAPS  H12Y 9323   7.103   6.530   7.722  1.6624 -0.6879  2.3449
   94SAPS  C313 9324   7.035   6.392   7.889 -0.4032 -0.6887 -0.3732
   94SAPS  H13X 9325   7.141   6.361   7.891 -0.4184 -0.7352 -0.3168
   94SAPS  H13Y 9326   6.977   6.298   7.892 -1.2012 -0.2034 -0.2616
   94SAPS  C314 9327   6.999   6.498   7.998 -0.2237  0.6074 -0.6321
   94SAPS  H14X 9328   6.998   6.425   8.082  1.6459 -0.8343 -1.7841
   94SAPS  H14Y 9329   6.893   6.531   7.993 -1.0131 -1.0111  2.5208
   94SAPS  C315 9330   7.085   6.618   8.020 -0.1218 -1.0609 -0.3342
   94SAPS  H15X 9331   7.046   6.686   8.099  0.8236 -0.6929 -0.1684
   94SAPS  H15Y 9332   7.078   6.684   7.931 -2.3983 -1.2856 -0.3764
   94SAPS  C316 9333   7.227   6.599   8.068 -0.3360  0.9303 -0.0333
   94SAPS  H16X 9334   7.267   6.522   7.998 -1.1080 -0.9071  1.4900
   94SAPS  H16Y 9335   7.235   6.555   8.169 -0.8000 -0.7803 -0.7051
   94SAPS  C317 9336   7.311   6.724   8.056 -0.1426  0.8656 -0.3050
   94SAPS  H17X 9337   7.273   6.811   8.114  1.1371  0.6634  0.8938
   94SAPS  H17Y 9338   7.329   6.759   7.952 -1.3471 -0.4800 -1.0048
   94SAPS  C318 9339   7.446   6.689   8.106 -0.3343 -0.1796 -0.5303
   94SAPS  H18X 9340   7.453   6.647   8.208  1.5759 -1.4242 -1.1119
   94SAPS  H18Y 9341   7.522   6.770   8.115 -1.9155  1.3821 -0.6665
   94SAPS  H18Z 9342   7.500   6.631   8.028 -0.1592 -0.0998 -0.4679
   95SAPS     N 9343   5.744   3.327   6.287 -0.2283 -0.5171  0.6477
   95SAPS   HN1 9344   5.756   3.346   6.389  0.0845  1.0877  0.3463
   95SAPS   HN2 9345   5.651   3.285   6.270 -2.4805  3.3310  2.0055
   95SAPS   HN3 9346   5.812   3.251   6.269 -1.0845 -1.1444 -0.0023
   95SAPS   C12 9347   5.777   3.437   6.198  0.8198 -0.6151 -1.1499
   95SAPS  H12A 9348   5.879   3.464   6.220  0.2273  0.9546 -0.1629
   95SAPS   C13 9349   5.763   3.402   6.046  0.3326 -0.1476 -0.6708
   95SAPS  O13A 9350   5.726   3.290   6.007 -0.7836 -0.8384  0.2978
   95SAPS  O13B 9351   5.780   3.491   5.955 -0.0599 -0.4676 -0.3034
   95SAPS   C11 9352   5.679   3.554   6.227 -0.0644  0.4565 -0.0140
   95SAPS  H11A 9353   5.717   3.639   6.167 -1.4002  0.7255 -0.5180
   95SAPS  H11B 9354   5.694   3.589   6.331 -1.4807  2.5599 -0.4536
   95SAPS     P 9355   5.434   3.519   6.318  0.2705  0.4279  0.1108
   95SAPS   O13 9356   5.313   3.581   6.266  0.0325 -0.1262 -0.1380
   95SAPS   O14 9357   5.421   3.378   6.356 -0.1475 -0.6198  0.0293
   95SAPS   O12 9358   5.543   3.517   6.204 -0.2692  0.1992  0.2156
   95SAPS   O11 9359   5.495   3.607   6.436  0.1574  0.4058  1.1013
   95SAPS    C1 9360   5.429   3.722   6.493  0.4563  0.1476  0.0046
   95SAPS    HA 9361   5.496   3.807   6.469 -0.2799  1.3177  1.8531
   95SAPS    HB 9362   5.328   3.745   6.455  0.7371  0.4850 -0.5379
   95SAPS    C2 9363   5.414   3.704   6.652  0.2728  0.1278  0.4515
   95SAPS    HS 9364   5.515   3.682   6.693 -0.2710 -1.9115  0.8248
   95SAPS   O21 9365   5.321   3.597   6.679 -0.1934 -0.2483 -0.3277
   95SAPS   C21 9366   5.377   3.475   6.682 -0.1879 -0.2732 -0.2631
   95SAPS   O22 9367   5.497   3.460   6.698 -0.2772  0.0534 -0.2655
   95SAPS   C22 9368   5.259   3.376   6.707 -0.6069  0.3017  0.0757
   95SAPS   H2R 9369   5.216   3.405   6.805 -2.7132  0.6034 -0.8638
   95SAPS   H2S 9370   5.176   3.389   6.634 -0.3160 -0.3716 -0.3883
   95SAPS    C3 9371   5.365   3.836   6.712 -0.4048 -0.3094  0.1687
   95SAPS    HX 9372   5.265   3.849   6.666 -1.0392 -1.4702  1.1453
   95SAPS    HY 9373   5.430   3.918   6.675  1.3477 -2.2671 -1.2949
   95SAPS   O31 9374   5.360   3.838   6.859 -0.4035 -0.0575  0.6098
   95SAPS   C31 9375   5.248   3.790   6.905 -0.7601  0.3297  0.1218
   95SAPS   O32 9376   5.151   3.756   6.843  0.7746  0.3617 -0.1396
   95SAPS   C32 9377   5.269   3.793   7.060 -0.0868 -0.4147  1.2236
   95SAPS   H2X 9378   5.195   3.870   7.092 -2.4588 -2.6400  1.4437
   95SAPS   H2Y 9379   5.374   3.819   7.083 -0.0405  1.6376 -0.9694
   95SAPS   C23 9380   5.301   3.230   6.728 -0.5989 -0.4682 -0.1881
   95SAPS   H3R 9381   5.365   3.229   6.819 -1.1898  2.4393  0.3502
   95SAPS   H3S 9382   5.368   3.215   6.641  0.1198 -0.0011  0.2687
   95SAPS   C24 9383   5.188   3.137   6.741 -0.3549  0.5165 -0.0504
   95SAPS   H4R 9384   5.160   3.107   6.637 -0.3650  1.5558 -0.3566
   95SAPS   H4S 9385   5.106   3.191   6.792  0.1414  2.7299 -1.4233
   95SAPS   C25 9386   5.223   3.006   6.805  0.8255  0.4413 -0.7043
   95SAPS   H5R 9387   5.309   2.950   6.765  1.3184 -1.5592  2.6951
   95SAPS   C26 9388   5.177   2.971   6.932 -0.2332 -0.1939 -0.0603
   95SAPS   H6R 9389   5.203   2.879   6.987 -2.8621 -0.7422  0.3944
   95SAPS   C27 9390   5.089   3.066   7.005  0.0624 -0.1446 -0.0104
   95SAPS   H7R 9391   5.134   3.168   7.010 -2.6219  1.2347 -1.8699
   95SAPS   H7S 9392   5.086   3.031   7.110 -1.2514  1.8372  0.6679
   95SAPS   C28 9393   4.948   3.066   6.948 -0.3012  0.4418 -0.6316
   95SAPS   H8R 9394   4.936   3.030   6.845 -2.1391  0.3293 -0.4201
   95SAPS   C29 9395   4.837   3.100   7.017  0.4870  0.1147 -0.1101
   95SAPS   H9R 9396   4.742   3.081   6.964  0.7347 -3.8972  0.6123
   95SAPS  C210 9397   4.824   3.138   7.162  0.3462 -0.5833 -0.4653
   95SAPS  H10R 9398   4.742   3.212   7.168 -0.4148 -1.4355 -0.2544
   95SAPS  H10S 9399   4.917   3.187   7.199  1.2910 -2.5253 -0.1770
   95SAPS  C211 9400   4.789   3.039   7.272  0.0506  1.0734  0.1162
   95SAPS  H11R 9401   4.764   2.935   7.247  0.6855  0.8704  0.3145
   95SAPS  C212 9402   4.802   3.055   7.410  0.2725 -0.0013  0.8180
   95SAPS  H12R 9403   4.786   2.968   7.476 -0.3302  0.0333  0.7267
   95SAPS  C213 9404   4.849   3.178   7.477  0.4236 -0.2980 -0.1923
   95SAPS  H13R 9405   4.757   3.219   7.525 -0.1247  1.6987 -2.7242
   95SAPS  H13S 9406   4.863   3.260   7.403  2.1833  1.9548  2.3971
   95SAPS  C214 9407   4.958   3.169   7.583  0.3036 -0.3988 -0.2186
   95SAPS  H14R 9408   5.056   3.183   7.534 -0.3090  1.5422 -0.9685
   95SAPS  C215 9409   4.934   3.160   7.715  0.5033 -0.0521 -0.3213
   95SAPS  H15R 9410   5.019   3.164   7.785  1.1655 -0.0420 -1.1042
   95SAPS  C216 9411   4.801   3.139   7.775 -0.6454  1.2845 -0.4257
   95SAPS  H16R 9412   4.734   3.080   7.709  1.2506  0.4101 -1.6583
   95SAPS  H16S 9413   4.765   3.243   7.785  0.1078  1.6316 -1.2418
   95SAPS  C217 9414   4.800   3.051   7.901 -0.6141 -0.7636  0.4613
   95SAPS  H17R 9415   4.849   2.951   7.895  1.1131  0.0298  0.5607
   95SAPS  H17S 9416   4.699   3.027   7.939 -1.0947  3.2208  2.1350
   95SAPS  C218 9417   4.858   3.120   8.022 -0.3930 -0.5693  0.1534
   95SAPS  H18R 9418   4.927   3.200   7.990  0.9462 -1.8142 -0.1975
   95SAPS  H18S 9419   4.916   3.046   8.082 -0.0339  0.1901  0.7538
   95SAPS  C219 9420   4.751   3.182   8.108  0.2068 -0.0689 -0.5142
   95SAPS  H19R 9421   4.683   3.101   8.142 -0.5404  0.0361 -1.7062
   95SAPS  H19S 9422   4.691   3.255   8.049  0.0041 -0.3991 -0.7177
   95SAPS  C220 9423   4.800   3.267   8.231  0.2217 -0.2269 -0.5440
   95SAPS  H20R 9424   4.713   3.318   8.278 -0.4666 -2.4580  0.7306
   95SAPS  H20S 9425   4.883   3.338   8.210  1.8926 -1.3895  1.6972
   95SAPS  H20T 9426   4.834   3.198   8.311  1.9305  2.4965  1.2309
   95SAPS   C33 9427   5.225   3.652   7.110 -0.2537 -0.3693 -0.3344
   95SAPS   H3X 9428   5.290   3.573   7.067 -0.5845  0.0031 -1.5465
   95SAPS   H3Y 9429   5.119   3.632   7.083 -0.8223  1.6235  0.2620
   95SAPS   C34 9430   5.212   3.648   7.265 -0.2784  0.5830  0.2170
   95SAPS   H4X 9431   5.169   3.552   7.298  0.4830  0.6139  1.3644
   95SAPS   H4Y 9432   5.132   3.717   7.301 -0.3289  1.6085 -1.7244
   95SAPS   C35 9433   5.339   3.683   7.344  0.3078 -0.4212  0.1334
   95SAPS   H5X 9434   5.388   3.778   7.315  1.9670 -0.8229  1.4358
   95SAPS   H5Y 9435   5.405   3.594   7.340 -2.2740 -2.4272 -0.5349
   95SAPS   C36 9436   5.307   3.699   7.493 -0.4127 -0.0671 -0.1077
   95SAPS   H6X 9437   5.264   3.601   7.522  0.4712 -0.5024 -0.2202
   95SAPS   H6Y 9438   5.232   3.780   7.496 -0.2626  0.1925 -2.0057
   95SAPS   C37 9439   5.427   3.734   7.583 -0.2708  0.2011  0.0093
   95SAPS   H7X 9440   5.486   3.817   7.539  0.0558  0.2967  0.6122
   95SAPS   H7Y 9441   5.493   3.645   7.570  1.3916  1.5198 -1.0393
   95SAPS   C38 9442   5.407   3.765   7.735 -0.3867 -0.2879  0.3118
   95SAPS   H8X 9443   5.340   3.692   7.785  2.5897 -2.1304  1.9089
   95SAPS   H8Y 9444   5.361   3.866   7.746  1.4000  0.4900  0.9753
   95SAPS   C39 9445   5.542   3.784   7.804  0.1686  0.5798  0.1634
   95SAPS   H9X 9446   5.607   3.869   7.775  1.4559 -0.0665  1.0382
   95SAPS   H9Y 9447   5.594   3.686   7.797  0.9802  1.0727 -0.8959
   95SAPS  C310 9448   5.513   3.800   7.957  0.2650  0.3586 -0.8854
   95SAPS  H10X 9449   5.430   3.732   7.986  0.8315 -0.4582 -1.1550
   95SAPS  H10Y 9450   5.484   3.902   7.988 -1.0351  0.2821 -1.7598
   95SAPS  C311 9451   5.639   3.767   8.048 -0.1726 -0.4986 -0.3778
   95SAPS  H11X 9452   5.723   3.827   8.007 -0.0569 -1.0713 -0.9951
   95SAPS  H11Y 9453   5.672   3.661   8.043  0.0488 -0.3655 -2.5797
   95SAPS  C312 9454   5.617   3.803   8.192  0.0576 -0.7238 -0.4693
   95SAPS  H12X 9455   5.528   3.742   8.220  0.2291 -0.5175  0.5826
   95SAPS  H12Y 9456   5.587   3.909   8.204  1.6960  0.0399 -2.5541
   95SAPS  C313 9457   5.729   3.765   8.289  0.2607  0.3110 -0.2359
   95SAPS  H13X 9458   5.728   3.654   8.297 -1.4838  0.3348  0.2339
   95SAPS  H13Y 9459   5.712   3.805   8.391  3.2616 -2.0794  1.3741
   95SAPS  C314 9460   5.867   3.811   8.239  0.0197 -0.6150 -0.1006
   95SAPS  H14X 9461   5.883   3.788   8.131  2.4975  2.0424 -0.4025
   95SAPS  H14Y 9462   5.943   3.767   8.307  1.2296  3.2270  1.2803
   95SAPS  C315 9463   5.874   3.965   8.250 -0.5514  0.3388  0.3274
   95SAPS  H15X 9464   5.866   4.003   8.354  1.9825 -1.3662  1.2343
   95SAPS  H15Y 9465   5.788   4.005   8.192  0.4613  0.8814 -0.8556
   95SAPS  C316 9466   6.002   4.029   8.199 -0.5056  0.6617 -1.4457
   95SAPS  H16X 9467   6.071   3.985   8.273  0.8530  1.1637 -2.3760
   95SAPS  H16Y 9468   5.996   4.140   8.212 -0.4042  0.4049  1.5221
   95SAPS  C317 9469   6.043   3.996   8.055  0.4213  0.1826  0.4463
   95SAPS  H17X 9470   6.028   3.886   8.046  0.6695  0.2620 -1.2480
   95SAPS  H17Y 9471   6.147   4.033   8.047 -0.0497  2.6232  3.3846
   95SAPS  C318 9472   5.972   4.077   7.950  0.7121 -0.2309 -0.8858
   95SAPS  H18X 9473   5.863   4.060   7.962  1.2564 -1.9546  3.0541
   95SAPS  H18Y 9474   6.002   4.047   7.847 -0.4659 -1.5459 -0.8747
   95SAPS  H18Z 9475   6.004   4.183   7.960  1.9995 -0.6991  0.2199
   96SAPS     N 9476   4.687   5.770   6.037 -1.0507  0.0834 -0.2160
   96SAPS   HN1 9477   4.653   5.787   6.134  1.2861 -2.3470  1.1472
   96SAPS   HN2 9478   4.656   5.844   5.971 -1.6043  0.8905  0.9024
   96SAPS   HN3 9479   4.640   5.681   6.012  0.2594 -1.3082  2.0107
   96SAPS   C12 9480   4.834   5.750   6.038  0.5650 -0.6455  0.2952
   96SAPS  H12A 9481   4.859   5.646   6.052 -0.4534 -0.6692  2.3036
   96SAPS   C13 9482   4.894   5.790   5.902  0.0932 -0.1693 -0.4751
   96SAPS  O13A 9483   4.820   5.840   5.813 -0.6792 -0.4674 -0.1976
   96SAPS  O13B 9484   5.020   5.796   5.894 -0.3520 -0.1009  0.1941
   96SAPS   C11 9485   4.902   5.828   6.157  0.7124 -0.5639  0.5779
   96SAPS  H11A 9486   4.864   5.931   6.141 -1.2480 -1.5237 -1.4058
   96SAPS  H11B 9487   5.011   5.833   6.135  0.4999 -0.3530 -0.5098
   96SAPS     P 9488   4.921   5.841   6.411 -0.0013 -0.2479 -0.4271
   96SAPS   O13 9489   5.040   5.772   6.465  0.2122  0.1212  0.3923
   96SAPS   O14 9490   4.937   5.986   6.385  0.0440  0.1667  0.4145
   96SAPS   O12 9491   4.876   5.770   6.283  1.3176 -0.6750  0.0778
   96SAPS   O11 9492   4.796   5.819   6.504  0.0479 -0.6141  0.8176
   96SAPS    C1 9493   4.759   5.685   6.529  0.5923 -0.0490  0.2694
   96SAPS    HA 9494   4.650   5.683   6.553  0.2191 -1.8820 -1.3104
   96SAPS    HB 9495   4.775   5.610   6.449 -1.5618  0.4000 -0.6686
   96SAPS    C2 9496   4.833   5.638   6.658  0.3805  0.1881 -0.3033
   96SAPS    HS 9497   4.943   5.630   6.650  0.5212  2.3139 -1.1210
   96SAPS   O21 9498   4.765   5.514   6.697 -0.4887  0.3143 -0.2198
   96SAPS   C21 9499   4.834   5.407   6.661 -0.8130 -0.1667 -0.4586
   96SAPS   O22 9500   4.941   5.403   6.605 -0.1122  0.6593 -0.5343
   96SAPS   C22 9501   4.772   5.288   6.737 -0.4790  0.0363  0.4672
   96SAPS   H2R 9502   4.662   5.293   6.730 -0.3714  1.2043 -1.1366
   96SAPS   H2S 9503   4.809   5.194   6.690 -0.4210 -0.6380  1.8194
   96SAPS    C3 9504   4.806   5.741   6.769 -0.2811 -0.2741  0.3225
   96SAPS    HX 9505   4.698   5.751   6.790 -0.7560 -1.0958 -1.5720
   96SAPS    HY 9506   4.839   5.839   6.728  0.7375  0.3702  2.5040
   96SAPS   O31 9507   4.882   5.720   6.889 -0.3503  0.9138  0.4621
   96SAPS   C31 9508   4.816   5.668   7.001  0.0350  0.0527  0.5881
   96SAPS   O32 9509   4.697   5.654   6.999  0.6110 -0.1452  0.6896
   96SAPS   C32 9510   4.911   5.630   7.120 -0.2698 -0.3205  0.3646
   96SAPS   H2X 9511   4.992   5.706   7.117 -1.2120  0.7587  1.3083
   96SAPS   H2Y 9512   4.947   5.528   7.095 -2.7707 -0.9939 -0.8516
   96SAPS   C23 9513   4.802   5.309   6.887 -0.2534  0.5976  0.0561
   96SAPS   H3R 9514   4.747   5.235   6.948  0.4356 -0.1778 -0.2412
   96SAPS   H3S 9515   4.779   5.414   6.914 -1.8154  0.1423  0.6030
   96SAPS   C24 9516   4.961   5.299   6.923  0.3993  0.0978  0.0569
   96SAPS   H4R 9517   4.961   5.327   7.030 -1.9886 -1.0802  0.4453
   96SAPS   H4S 9518   5.013   5.373   6.859 -1.1808 -0.5306 -2.0621
   96SAPS   C25 9519   5.029   5.161   6.904  0.6308  0.3279  0.0221
   96SAPS   H5R 9520   5.096   5.169   6.818  0.7474  0.9890  0.1707
   96SAPS   C26 9521   5.015   5.045   6.970 -0.5671  0.3382 -0.1903
   96SAPS   H6R 9522   5.069   4.959   6.927 -3.1724 -0.9592 -1.1074
   96SAPS   C27 9523   4.927   5.016   7.093 -0.1351 -0.5865  0.7386
   96SAPS   H7R 9524   4.854   4.938   7.062 -1.2571  0.7030 -0.0051
   96SAPS   H7S 9525   4.855   5.097   7.118 -0.5994 -1.8392  3.7753
   96SAPS   C28 9526   5.013   4.999   7.214  0.3467  0.4331 -0.0318
   96SAPS   H8R 9527   5.115   5.040   7.213  0.6531  0.0573  3.5586
   96SAPS   C29 9528   4.970   4.951   7.331 -0.4754 -0.3267 -0.1295
   96SAPS   H9R 9529   5.025   4.977   7.423 -0.5228  3.1973 -0.9563
   96SAPS  C210 9530   4.823   4.927   7.359 -0.3308  0.6028 -0.0753
   96SAPS  H10R 9531   4.808   4.823   7.322  0.5721  0.7330 -0.8255
   96SAPS  H10S 9532   4.764   4.999   7.299 -1.4912  0.8651  1.3391
   96SAPS  C211 9533   4.775   4.935   7.503  0.2015  0.0914  0.5632
   96SAPS  H11R 9534   4.734   4.839   7.539 -1.6171  0.7275  0.2723
   96SAPS  C212 9535   4.782   5.046   7.576  0.1243  0.3813  0.0425
   96SAPS  H12R 9536   4.766   5.038   7.684  0.5668  0.0533  0.0875
   96SAPS  C213 9537   4.823   5.184   7.530  0.4299 -0.2606  0.1284
   96SAPS  H13R 9538   4.780   5.210   7.431  0.9042 -1.7107 -0.4763
   96SAPS  H13S 9539   4.932   5.174   7.514  0.5647 -2.3627  1.9030
   96SAPS  C214 9540   4.811   5.300   7.635  0.0115 -0.0530  0.5724
   96SAPS  H14R 9541   4.711   5.347   7.643  0.1759  0.0661  2.3708
   96SAPS  C215 9542   4.902   5.335   7.726 -0.7367 -0.2249 -0.5096
   96SAPS  H15R 9543   4.873   5.411   7.801  2.3563  0.9044 -0.2959
   96SAPS  C216 9544   5.044   5.276   7.742  0.3222 -0.3244  0.4502
   96SAPS  H16R 9545   5.107   5.366   7.726 -0.2628  0.1795  0.9277
   96SAPS  H16S 9546   5.071   5.202   7.664 -1.0756 -3.0671  2.4439
   96SAPS  C217 9547   5.073   5.227   7.881  0.5647  0.1947  0.1310
   96SAPS  H17R 9548   5.003   5.146   7.910 -0.0220  0.9679  0.9289
   96SAPS  H17S 9549   5.056   5.313   7.950  0.0042 -0.5200  0.9002
   96SAPS  C218 9550   5.217   5.180   7.894 -0.4920 -0.4775 -0.6228
   96SAPS  H18R 9551   5.281   5.264   7.858  0.3014 -0.4761  0.7541
   96SAPS  H18S 9552   5.236   5.096   7.823 -2.9162  0.3842 -2.4330
   96SAPS  C219 9553   5.260   5.156   8.040 -0.1532 -0.2734 -0.3276
   96SAPS  H19R 9554   5.174   5.098   8.080  0.5564 -0.9772  0.2219
   96SAPS  H19S 9555   5.272   5.254   8.092  2.9064 -2.4466  3.6793
   96SAPS  C220 9556   5.392   5.079   8.054 -0.0101  0.2508  0.1806
   96SAPS  H20R 9557   5.394   5.018   8.147 -1.4988 -2.6755 -1.5374
   96SAPS  H20S 9558   5.483   5.142   8.044  0.4641 -0.3607  0.5542
   96SAPS  H20T 9559   5.403   5.010   7.968  1.5869 -0.5543  0.9785
   96SAPS   C33 9560   4.826   5.647   7.247 -0.3370 -0.1964  0.1328
   96SAPS   H3X 9561   4.748   5.567   7.248 -1.7534  1.1184  1.5764
   96SAPS   H3Y 9562   4.791   5.749   7.221  1.3698 -0.5019 -4.2883
   96SAPS   C34 9563   4.914   5.661   7.374  0.5802 -0.6535 -0.0757
   96SAPS   H4X 9564   5.007   5.710   7.339  0.0852  0.6399  0.3702
   96SAPS   H4Y 9565   4.933   5.554   7.398 -1.3111 -1.1015 -0.3651
   96SAPS   C35 9566   4.845   5.742   7.491 -1.1108  0.1924 -0.5691
   96SAPS   H5X 9567   4.767   5.672   7.527  0.2108 -2.0284 -1.8315
   96SAPS   H5Y 9568   4.808   5.831   7.436  1.6124  0.0081 -2.9008
   96SAPS   C36 9569   4.939   5.777   7.610  0.2584  0.2489  0.2213
   96SAPS   H6X 9570   5.034   5.827   7.581  1.6215 -2.0432  0.4603
   96SAPS   H6Y 9571   4.966   5.678   7.654  1.0201 -0.2143 -1.2038
   96SAPS   C37 9572   4.869   5.861   7.721 -0.3850  0.5164  0.0226
   96SAPS   H7X 9573   4.760   5.844   7.707 -0.0084 -3.0048  0.3880
   96SAPS   H7Y 9574   4.882   5.968   7.694  0.3154 -0.2571 -3.0687
   96SAPS   C38 9575   4.910   5.820   7.863  0.5249 -0.4377 -0.9098
   96SAPS   H8X 9576   4.854   5.893   7.926 -0.5762 -0.8582 -1.3837
   96SAPS   H8Y 9577   5.020   5.827   7.872  0.8468  3.4882 -4.6555
   96SAPS   C39 9578   4.858   5.677   7.905 -1.0812 -0.2216 -0.2965
   96SAPS   H9X 9579   4.933   5.602   7.872  0.2168  0.1630  1.6224
   96SAPS   H9Y 9580   4.762   5.656   7.854 -2.3647  0.4135  1.7520
   96SAPS  C310 9581   4.846   5.646   8.059 -0.7045  0.4272  1.1831
   96SAPS  H10X 9582   4.756   5.702   8.093  1.2101  4.0238  0.7990
   96SAPS  H10Y 9583   4.927   5.691   8.121 -1.0095  0.3353  1.6556
   96SAPS  C311 9584   4.826   5.500   8.075 -0.0989 -0.2344 -0.8829
   96SAPS  H11X 9585   4.923   5.447   8.060  0.1131 -0.1022 -0.0151
   96SAPS  H11Y 9586   4.753   5.458   8.003 -3.1242 -1.9371  2.8254
   96SAPS  C312 9587   4.782   5.468   8.222  0.1532  0.1925 -0.1724
   96SAPS  H12X 9588   4.687   5.520   8.244 -0.2106 -1.4126  2.5841
   96SAPS  H12Y 9589   4.866   5.500   8.288 -0.5448 -1.3876  1.5872
   96SAPS  C313 9590   4.749   5.320   8.237 -0.3568  0.4828 -1.2090
   96SAPS  H13X 9591   4.838   5.255   8.218 -2.4360 -2.1896 -2.5836
   96SAPS  H13Y 9592   4.681   5.284   8.156 -1.9663  0.1279  0.2514
   96SAPS  C314 9593   4.715   5.293   8.387  0.4336  0.0806 -1.2192
   96SAPS  H14X 9594   4.611   5.330   8.402  0.1800 -0.9263 -0.4025
   96SAPS  H14Y 9595   4.784   5.355   8.448 -1.4718  1.9044 -0.7979
   96SAPS  C315 9596   4.736   5.151   8.440 -0.0449 -0.1193  0.1086
   96SAPS  H15X 9597   4.718   5.168   8.549  1.9950  1.0988  0.3081
   96SAPS  H15Y 9598   4.841   5.115   8.433  0.5453  1.3838  0.7243
   96SAPS  C316 9599   4.636   5.049   8.386 -0.6818  0.0075  0.9024
   96SAPS  H16X 9600   4.660   4.951   8.432  0.3980 -0.0740  0.1991
   96SAPS  H16Y 9601   4.656   5.045   8.277 -1.5732  1.8032  0.6301
   96SAPS  C317 9602   4.492   5.086   8.410  0.0008 -0.5054  0.1717
   96SAPS  H17X 9603   4.424   5.003   8.379  0.3832  0.1414 -2.7115
   96SAPS  H17Y 9604   4.455   5.168   8.345 -0.3929 -1.2128 -0.5152
   96SAPS  C318 9605   4.460   5.111   8.553  0.8231  0.5813 -1.0482
   96SAPS  H18X 9606   4.502   5.034   8.621 -0.8353  1.4386  1.0895
   96SAPS  H18Y 9607   4.351   5.107   8.575  1.0486  0.3478  0.1233
   96SAPS  H18Z 9608   4.510   5.202   8.595 -0.6573  0.2676  1.6806
   97SAPS     N 9609   2.169   6.260   6.409  0.6940  0.9827  0.3552
   97SAPS   HN1 9610   2.115   6.306   6.333  0.2070 -0.1379 -0.0129
   97SAPS   HN2 9611   2.105   6.187   6.448  2.2507  1.2263  3.6951
   97SAPS   HN3 9612   2.189   6.328   6.485  2.6512  0.3646  0.4453
   97SAPS   C12 9613   2.292   6.197   6.357  0.4829 -0.2088  0.0356
   97SAPS  H12A 9614   2.265   6.129   6.277 -0.0639 -0.6032  0.5464
   97SAPS   C13 9615   2.399   6.296   6.299  0.4661  0.3862 -0.0555
   97SAPS  O13A 9616   2.379   6.417   6.310 -0.3074  0.2294 -0.0601
   97SAPS  O13B 9617   2.488   6.245   6.229 -0.0391 -0.1700 -0.1839
   97SAPS   C11 9618   2.365   6.124   6.473 -0.9453 -0.2870 -0.2371
   97SAPS  H11A 9619   2.365   6.189   6.563 -0.8934  0.3718 -0.7085
   97SAPS  H11B 9620   2.471   6.102   6.451 -0.4920  0.2515  1.2831
   97SAPS     P 9621   2.330   5.863   6.465  0.1056 -0.1308  0.0649
   97SAPS   O13 9622   2.214   5.775   6.486  0.0597 -0.5166  0.1337
   97SAPS   O14 9623   2.394   5.872   6.334  0.2640  0.4027 -0.2546
   97SAPS   O12 9624   2.284   6.008   6.514 -0.3364  0.8693  0.1742
   97SAPS   O11 9625   2.435   5.830   6.578 -0.0856 -0.3146  0.8255
   97SAPS    C1 9626   2.575   5.855   6.562  0.2944  0.0193  0.0804
   97SAPS    HA 9627   2.625   5.761   6.531  1.6624  0.5631  0.5602
   97SAPS    HB 9628   2.597   5.929   6.482  0.9589 -0.7105 -0.4261
   97SAPS    C2 9629   2.642   5.905   6.692  0.2432  1.2116  0.4559
   97SAPS    HS 9630   2.721   5.976   6.657 -1.5591  3.5530  0.8805
   97SAPS   O21 9631   2.690   5.783   6.754 -0.5858 -0.7463  0.0201
   97SAPS   C21 9632   2.758   5.800   6.864 -0.1263  0.1544 -0.7495
   97SAPS   O22 9633   2.796   5.903   6.915 -0.2399 -0.4131  0.5071
   97SAPS   C22 9634   2.796   5.652   6.912 -1.0506  0.5601 -0.5053
   97SAPS   H2R 9635   2.705   5.601   6.952  0.1407  0.9409  2.9864
   97SAPS   H2S 9636   2.829   5.589   6.827  1.3914 -0.3352  1.0056
   97SAPS    C3 9637   2.539   5.983   6.778  1.1159  0.9544  0.1772
   97SAPS    HX 9638   2.492   6.054   6.707 -2.2467 -1.3056 -0.0993
   97SAPS    HY 9639   2.594   6.039   6.856 -0.2687  1.5692  0.7487
   97SAPS   O31 9640   2.436   5.895   6.839 -0.0472  0.5003  0.4867
   97SAPS   C31 9641   2.403   5.913   6.966  0.1367 -0.2196 -0.4943
   97SAPS   O32 9642   2.439   6.011   7.031  0.0619 -0.4177  0.3514
   97SAPS   C32 9643   2.331   5.799   7.018 -0.5230 -0.6331 -1.0487
   97SAPS   H2X 9644   2.332   5.716   6.944  0.6948 -1.5610 -0.0184
   97SAPS   H2Y 9645   2.223   5.821   7.036 -0.0052  2.2832 -1.0503
   97SAPS   C23 9646   2.900   5.658   7.031 -0.1380  0.0801 -0.0096
   97SAPS   H3R 9647   2.973   5.734   6.996 -1.5936  0.3381 -2.6916
   97SAPS   H3S 9648   2.942   5.558   7.056 -1.2131 -0.8619 -1.7654
   97SAPS   C24 9649   2.840   5.697   7.168 -0.0922 -0.3052  0.5665
   97SAPS   H4R 9650   2.781   5.790   7.155  0.4721  0.1828  1.3443
   97SAPS   H4S 9651   2.934   5.720   7.223  1.7550  0.2891 -2.5984
   97SAPS   C25 9652   2.755   5.590   7.235 -0.3609 -0.1916  0.2932
   97SAPS   H5R 9653   2.681   5.538   7.172  2.1598 -0.9453 -2.2748
   97SAPS   C26 9654   2.777   5.550   7.361  0.0334  0.4883  0.1409
   97SAPS   H6R 9655   2.707   5.478   7.405  1.0504 -0.6026  0.0322
   97SAPS   C27 9656   2.879   5.602   7.463  0.5503 -0.4750 -0.0784
   97SAPS   H7R 9657   2.835   5.690   7.515  0.4514 -0.3373 -0.3857
   97SAPS   H7S 9658   2.963   5.642   7.402 -1.9537  0.2106 -3.4339
   97SAPS   C28 9659   2.942   5.502   7.560 -0.1333 -0.1797  0.0892
   97SAPS   H8R 9660   2.984   5.420   7.500 -0.9570  1.4061 -2.8540
   97SAPS   C29 9661   2.926   5.500   7.693  0.3888  0.6829 -0.0168
   97SAPS   H9R 9662   2.970   5.424   7.759 -2.2317 -0.5376  0.4817
   97SAPS  C210 9663   2.857   5.604   7.776 -0.5805  0.5443  0.2393
   97SAPS  H10R 9664   2.750   5.615   7.748 -0.3057 -0.4634 -1.3228
   97SAPS  H10S 9665   2.907   5.699   7.746 -0.0171 -0.4529 -2.2180
   97SAPS  C211 9666   2.860   5.613   7.927 -0.0753 -0.1905 -0.0623
   97SAPS  H11R 9667   2.899   5.710   7.961 -2.1863  0.4334  0.7246
   97SAPS  C212 9668   2.808   5.535   8.022 -0.0854 -0.6693 -0.2413
   97SAPS  H12R 9669   2.820   5.568   8.126  2.8582 -2.4033  0.0824
   97SAPS  C213 9670   2.741   5.404   7.997  0.9472 -0.5200  0.4878
   97SAPS  H13R 9671   2.735   5.347   8.092 -0.7111 -0.8194  0.2447
   97SAPS  H13S 9672   2.813   5.354   7.928 -0.3572 -0.9310 -0.6241
   97SAPS  C214 9673   2.601   5.408   7.936  0.1698 -0.4695 -0.3078
   97SAPS  H14R 9674   2.597   5.429   7.828  1.0101  1.1387 -0.0648
   97SAPS  C215 9675   2.484   5.394   8.005 -0.9652  0.3548  0.0547
   97SAPS  H15R 9676   2.387   5.400   7.954 -0.2842 -1.8740 -1.6833
   97SAPS  C216 9677   2.477   5.357   8.150  0.0662  0.3835 -0.4972
   97SAPS  H16R 9678   2.391   5.416   8.190 -0.6268 -1.0784  0.2443
   97SAPS  H16S 9679   2.561   5.403   8.207  1.5937 -1.8960 -0.8177
   97SAPS  C217 9680   2.470   5.213   8.182  0.0135  0.0281  0.2138
   97SAPS  H17R 9681   2.564   5.167   8.146  1.6578  0.3195  3.7493
   97SAPS  H17S 9682   2.376   5.173   8.138 -0.3882  0.3911  0.7259
   97SAPS  C218 9683   2.457   5.177   8.334  0.6155  0.4940  0.1783
   97SAPS  H18R 9684   2.545   5.220   8.386 -0.4115  1.2613  1.3240
   97SAPS  H18S 9685   2.462   5.067   8.345 -0.2488  0.4573  0.2687
   97SAPS  C219 9686   2.317   5.227   8.394 -0.9742  0.3028  0.0541
   97SAPS  H19R 9687   2.234   5.168   8.350  0.0334 -1.7552  0.8158
   97SAPS  H19S 9688   2.296   5.328   8.351  0.6129  0.4711 -0.3638
   97SAPS  C220 9689   2.311   5.223   8.546  0.2521 -0.4001 -0.2216
   97SAPS  H20R 9690   2.222   5.276   8.587 -0.4125 -1.1851 -0.6018
   97SAPS  H20S 9691   2.403   5.268   8.589  1.5558 -1.8763 -1.3478
   97SAPS  H20T 9692   2.293   5.122   8.590 -1.0433  0.6352  1.8056
   97SAPS   C33 9693   2.394   5.751   7.154  0.3452 -1.1262 -0.3709
   97SAPS   H3X 9694   2.500   5.726   7.132  0.1948 -1.3739 -0.8328
   97SAPS   H3Y 9695   2.349   5.652   7.179 -2.8829  0.6442  1.5518
   97SAPS   C34 9696   2.375   5.847   7.275 -1.3954  0.4219  0.1843
   97SAPS   H4X 9697   2.271   5.886   7.283 -1.3336  0.8869 -0.9582
   97SAPS   H4Y 9698   2.440   5.937   7.260 -2.6915  1.7406  2.0894
   97SAPS   C35 9699   2.429   5.802   7.407 -1.0611 -0.1011 -0.3525
   97SAPS   H5X 9700   2.537   5.785   7.388  0.0222  0.6566  4.0451
   97SAPS   H5Y 9701   2.387   5.706   7.444  3.4343 -1.2749  2.5881
   97SAPS   C36 9702   2.439   5.904   7.523  0.0165  0.4058 -0.0254
   97SAPS   H6X 9703   2.342   5.933   7.569 -0.4950 -1.5073  0.1783
   97SAPS   H6Y 9704   2.498   5.993   7.494  2.9656 -0.9662  1.3501
   97SAPS   C37 9705   2.528   5.854   7.637 -0.7019 -0.2284  0.0962
   97SAPS   H7X 9706   2.638   5.853   7.621 -0.7390  2.4167 -0.8216
   97SAPS   H7Y 9707   2.494   5.751   7.662  1.3735 -0.6517  1.3763
   97SAPS   C38 9708   2.512   5.933   7.768 -0.5685 -0.1247 -0.2308
   97SAPS   H8X 9709   2.407   5.923   7.803  0.0370 -1.5582  1.3237
   97SAPS   H8Y 9710   2.522   6.040   7.741 -2.0199  0.0670 -0.0948
   97SAPS   C39 9711   2.607   5.884   7.878  0.4479 -0.8082 -0.0348
   97SAPS   H9X 9712   2.711   5.905   7.844 -0.5142  0.8345 -2.2064
   97SAPS   H9Y 9713   2.596   5.774   7.892  0.4244 -0.4509  3.4506
   97SAPS  C310 9714   2.583   5.968   8.009  0.1383 -0.2208  0.8628
   97SAPS  H10X 9715   2.477   5.959   8.042 -0.5518 -0.2913 -1.2445
   97SAPS  H10Y 9716   2.594   6.077   7.990 -1.8482 -0.0701  0.2713
   97SAPS  C311 9717   2.678   5.932   8.124 -0.0372 -0.5163 -0.6179
   97SAPS  H11X 9718   2.780   5.914   8.083 -0.0997 -2.2015 -0.1000
   97SAPS  H11Y 9719   2.654   5.832   8.166 -1.1496  0.3362  0.8950
   97SAPS  C312 9720   2.672   6.044   8.232  0.0481  0.2986  0.2981
   97SAPS  H12X 9721   2.569   6.084   8.241 -0.8994 -2.0902  0.6944
   97SAPS  H12Y 9722   2.719   6.137   8.194 -0.1198 -0.1805 -1.1173
   97SAPS  C313 9723   2.720   6.013   8.373 -0.7854  0.4460 -0.1701
   97SAPS  H13X 9724   2.814   5.955   8.354 -0.5701  0.0994  1.7712
   97SAPS  H13Y 9725   2.663   5.945   8.440  0.1919 -0.3099 -0.0785
   97SAPS  C314 9726   2.749   6.132   8.449  0.0214 -0.2849 -0.2738
   97SAPS  H14X 9727   2.652   6.180   8.473  0.1643  0.8704 -1.8663
   97SAPS  H14Y 9728   2.803   6.204   8.384  2.7480 -0.8266  1.2406
   97SAPS  C315 9729   2.830   6.107   8.578  0.3366  0.0634  0.3468
   97SAPS  H15X 9730   2.917   6.040   8.569  1.4640  1.2706  1.6724
   97SAPS  H15Y 9731   2.769   6.050   8.651  2.4235  1.0015  3.0142
   97SAPS  C316 9732   2.867   6.239   8.643 -0.0964 -0.1300  0.3804
   97SAPS  H16X 9733   2.772   6.293   8.664  0.3562  0.9344 -0.1917
   97SAPS  H16Y 9734   2.920   6.296   8.563 -1.1515 -0.8340 -0.8630
   97SAPS  C317 9735   2.957   6.234   8.766  0.2897 -0.0356 -0.0641
   97SAPS  H17X 9736   3.061   6.213   8.732 -0.4978 -0.7605 -2.2282
   97SAPS  H17Y 9737   2.934   6.140   8.821  1.1774 -0.5654 -0.5587
   97SAPS  C318 9738   2.954   6.363   8.848 -0.8634  0.1852 -0.4753
   97SAPS  H18X 9739   2.850   6.392   8.875 -0.6029  0.8530 -0.1681
   97SAPS  H18Y 9740   3.007   6.438   8.786  1.6526  0.2196  1.5359
   97SAPS  H18Z 9741   3.014   6.359   8.942 -1.6664 -0.5336  0.0316
   98SAPS     N 9742   0.362   2.436   6.315  0.4763 -0.2080  0.0084
   98SAPS   HN1 9743   0.281   2.480   6.363  1.1733  1.3035 -0.1486
   98SAPS   HN2 9744   0.386   2.359   6.380 -1.6474 -0.3937  0.6659
   98SAPS   HN3 9745   0.445   2.498   6.310 -0.2101  0.8069  0.7460
   98SAPS   C12 9746   0.330   2.403   6.176 -0.5570  0.6662  0.0271
   98SAPS  H12A 9747   0.243   2.340   6.172 -1.9833  2.5636  0.0450
   98SAPS   C13 9748   0.299   2.516   6.081  0.1744  0.5035  0.0389
   98SAPS  O13A 9749   0.289   2.636   6.120 -0.1458  0.0177  0.1984
   98SAPS  O13B 9750   0.258   2.485   5.963  0.1101 -0.0153 -0.1556
   98SAPS   C11 9751   0.448   2.314   6.129  0.3775 -0.5546  1.0338
   98SAPS  H11A 9752   0.545   2.367   6.129  0.7990 -1.2337 -0.7029
   98SAPS  H11B 9753   0.426   2.282   6.024 -1.3978  0.5309  1.0368
   98SAPS     P 9754   0.561   2.077   6.159 -0.1308 -0.0863  0.1957
   98SAPS   O13 9755   0.516   2.004   6.041  0.7895 -0.1109  0.4600
   98SAPS   O14 9756   0.697   2.138   6.151  0.3681 -0.7389 -0.3724
   98SAPS   O12 9757   0.455   2.193   6.199  0.0709  0.1388 -0.3302
   98SAPS   O11 9758   0.565   1.984   6.284  0.4641 -0.0565 -0.0532
   98SAPS    C1 9759   0.447   1.944   6.354  0.4018  0.7511  1.2116
   98SAPS    HA 9760   0.367   1.921   6.281  1.1657 -0.1840  0.6302
   98SAPS    HB 9761   0.476   1.845   6.398  0.3403 -0.9875 -2.3095
   98SAPS    C2 9762   0.401   2.048   6.468 -0.5602 -0.2491  0.3531
   98SAPS    HS 9763   0.343   2.124   6.411  0.6193 -1.0342 -2.0678
   98SAPS   O21 9764   0.517   2.108   6.531 -0.8934 -0.0353  0.1166
   98SAPS   C21 9765   0.506   2.235   6.572  0.4471  0.5504  0.0779
   98SAPS   O22 9766   0.412   2.304   6.539  0.2670 -0.0269  0.0551
   98SAPS   C22 9767   0.614   2.252   6.685  0.1499  0.0711  0.0013
   98SAPS   H2R 9768   0.631   2.153   6.733 -0.5392  0.1173  0.3623
   98SAPS   H2S 9769   0.709   2.276   6.633  1.6471 -0.6990  2.2324
   98SAPS    C3 9770   0.315   1.978   6.571 -0.5963  0.1074  0.6342
   98SAPS    HX 9771   0.382   1.901   6.616 -2.2124 -1.9296 -0.3070
   98SAPS    HY 9772   0.235   1.931   6.512  2.4321 -2.9693 -1.3969
   98SAPS   O31 9773   0.276   2.060   6.687 -0.0970 -0.5255 -0.8280
   98SAPS   C31 9774   0.169   2.145   6.665  0.2522 -0.2799  0.4253
   98SAPS   O32 9775   0.095   2.134   6.573  0.9528  0.0574 -0.0471
   98SAPS   C32 9776   0.147   2.229   6.788 -0.0626  0.2271 -0.4360
   98SAPS   H2X 9777   0.042   2.221   6.821 -0.6416  0.4870 -2.1387
   98SAPS   H2Y 9778   0.160   2.336   6.762  0.1092  0.0650 -1.0414
   98SAPS   C23 9779   0.580   2.364   6.789  0.5388  0.1149  0.3832
   98SAPS   H3R 9780   0.481   2.337   6.831 -0.9893  2.2607 -1.5525
   98SAPS   H3S 9781   0.564   2.461   6.736  0.6320 -0.3083 -0.4330
   98SAPS   C24 9782   0.676   2.393   6.905 -0.0296 -0.2486 -0.2294
   98SAPS   H4R 9783   0.772   2.411   6.854 -1.3437  3.0092 -1.8470
   98SAPS   H4S 9784   0.692   2.306   6.972 -3.1377 -0.9275 -0.2084
   98SAPS   C25 9785   0.649   2.514   6.985 -0.5622  0.6358 -0.1026
   98SAPS   H5R 9786   0.615   2.597   6.922  0.6205 -0.9133 -2.9439
   98SAPS   C26 9787   0.648   2.526   7.122 -0.5009 -0.8804 -0.1173
   98SAPS   H6R 9788   0.609   2.619   7.167 -0.6677 -0.8827 -0.2578
   98SAPS   C27 9789   0.680   2.420   7.233  0.2670 -0.6691  0.3695
   98SAPS   H7R 9790   0.720   2.327   7.186  0.6271  0.0035 -0.7024
   98SAPS   H7S 9791   0.580   2.380   7.263  0.0820 -1.7441 -1.5027
   98SAPS   C28 9792   0.764   2.451   7.346 -0.3801 -0.0724  0.6702
   98SAPS   H8R 9793   0.846   2.519   7.322  1.7676 -3.1594 -1.5787
   98SAPS   C29 9794   0.752   2.392   7.470 -0.1886  0.2032 -0.0316
   98SAPS   H9R 9795   0.831   2.399   7.546  1.6014 -1.4332 -1.6297
   98SAPS  C210 9796   0.646   2.294   7.497 -0.5986  0.2794  0.2159
   98SAPS  H10R 9797   0.648   2.214   7.420 -0.8542 -1.7562  2.1793
   98SAPS  H10S 9798   0.541   2.329   7.493 -0.0943  1.9694 -4.3890
   98SAPS  C211 9799   0.661   2.221   7.626  0.3351 -0.3932 -0.2115
   98SAPS  H11R 9800   0.714   2.124   7.619 -1.1210 -1.0977 -2.5823
   98SAPS  C212 9801   0.609   2.253   7.748  0.1810 -0.6354  0.5951
   98SAPS  H12R 9802   0.629   2.189   7.835  0.2145  0.5021  1.4442
   98SAPS  C213 9803   0.524   2.376   7.776 -0.3794  0.1730  0.2967
   98SAPS  H13R 9804   0.427   2.334   7.812  0.1389  0.7858  2.6046
   98SAPS  H13S 9805   0.505   2.435   7.684 -0.6939 -0.0086  0.2438
   98SAPS  C214 9806   0.587   2.483   7.868 -0.7372  0.6453  0.0932
   98SAPS  H14R 9807   0.673   2.532   7.819  0.0225 -1.1007 -0.4205
   98SAPS  C215 9808   0.546   2.515   7.991 -0.0853 -1.0062 -0.5579
   98SAPS  H15R 9809   0.603   2.590   8.048 -1.8934  0.1560 -0.1824
   98SAPS  C216 9810   0.429   2.456   8.064  0.0409 -0.9068  0.2893
   98SAPS  H16R 9811   0.342   2.441   7.997  0.1301  1.6347 -0.5208
   98SAPS  H16S 9812   0.392   2.517   8.150 -0.1223 -2.1663  1.1384
   98SAPS  C217 9813   0.467   2.317   8.128 -0.1663 -0.5203  0.4722
   98SAPS  H17R 9814   0.555   2.336   8.193  1.2680  0.1727 -1.5559
   98SAPS  H17S 9815   0.506   2.265   8.037  1.4330  2.3429 -0.6423
   98SAPS  C218 9816   0.353   2.249   8.210  0.7147  0.2318 -0.2003
   98SAPS  H18R 9817   0.258   2.244   8.152  0.4398  0.9437  0.1781
   98SAPS  H18S 9818   0.342   2.310   8.302  3.9343  2.2339 -0.9698
   98SAPS  C219 9819   0.373   2.103   8.245  0.0415 -0.2692 -0.1646
   98SAPS  H19R 9820   0.474   2.091   8.289  0.3542  0.6007 -0.6354
   98SAPS  H19S 9821   0.368   2.036   8.157 -3.4972  0.8423 -0.9933
   98SAPS  C220 9822   0.259   2.044   8.334 -0.9897 -0.4573 -0.5017
   98SAPS  H20R 9823   0.167   2.031   8.273 -0.8290 -0.1320 -0.8208
   98SAPS  H20S 9824   0.229   2.113   8.416  1.4837 -2.9377  2.7795
   98SAPS  H20T 9825   0.297   1.950   8.379  2.4186  1.6420  1.4015
   98SAPS   C33 9826   0.226   2.194   6.916 -0.7900  0.0954  0.4565
   98SAPS   H3X 9827   0.317   2.134   6.893 -2.1027 -1.9690  0.3867
   98SAPS   H3Y 9828   0.165   2.130   6.984  2.0764 -1.3843  1.8306
   98SAPS   C34 9829   0.251   2.307   7.013  0.0883 -0.2132  0.3481
   98SAPS   H4X 9830   0.273   2.395   6.949 -2.8009  2.0844  2.2079
   98SAPS   H4Y 9831   0.335   2.284   7.083 -0.9544 -0.3786  1.5815
   98SAPS   C35 9832   0.123   2.337   7.099  0.1647  0.0456 -0.1458
   98SAPS   H5X 9833   0.042   2.270   7.063  0.4009 -0.3452  0.0462
   98SAPS   H5Y 9834   0.107   2.447   7.091  2.7615  0.4687 -0.3750
   98SAPS   C36 9835   0.139   2.303   7.250 -0.6115 -0.1615  0.0902
   98SAPS   H6X 9836   0.237   2.341   7.288 -0.7318 -1.2159  1.5402
   98SAPS   H6Y 9837   0.153   2.193   7.264  0.7702 -0.4356 -2.7889
   98SAPS   C37 9838   0.031   2.359   7.336 -0.3733 -0.8977 -0.5481
   98SAPS   H7X 9839  -0.065   2.316   7.298  0.5581 -1.2724 -2.5499
   98SAPS   H7Y 9840   0.020   2.469   7.340 -0.4586 -0.8961  2.7995
   98SAPS   C38 9841   0.047   2.306   7.477  0.2662  0.2737 -0.6245
   98SAPS   H8X 9842   0.123   2.355   7.541 -0.9379 -0.3868  1.4213
   98SAPS   H8Y 9843   0.062   2.196   7.483 -3.5654 -0.3538  0.1160
   98SAPS   C39 9844  -0.079   2.338   7.566  0.0968 -0.3028  0.3538
   98SAPS   H9X 9845  -0.065   2.264   7.648 -0.3987  0.8899  1.5629
   98SAPS   H9Y 9846  -0.171   2.318   7.507  0.8129 -0.8010 -0.6299
   98SAPS  C310 9847  -0.072   2.480   7.623  0.4938 -0.6350 -0.7230
   98SAPS  H10X 9848  -0.132   2.551   7.563 -0.0357 -0.6801 -0.2561
   98SAPS  H10Y 9849   0.035   2.508   7.633  0.6832 -1.3190 -0.7436
   98SAPS  C311 9850  -0.134   2.477   7.766  0.0253 -0.6074 -0.1479
   98SAPS  H11X 9851  -0.063   2.424   7.833  3.6693  3.7666 -0.0555
   98SAPS  H11Y 9852  -0.228   2.419   7.767  0.6286 -1.5971  0.6780
   98SAPS  C312 9853  -0.151   2.608   7.825 -0.1133 -0.4559 -0.0432
   98SAPS  H12X 9854  -0.242   2.663   7.792 -0.1675 -1.0803 -0.9688
   98SAPS  H12Y 9855  -0.067   2.679   7.813 -1.0747  0.8104  0.4716
   98SAPS  C313 9856  -0.188   2.607   7.977  0.5563 -0.0436 -0.0504
   98SAPS  H13X 9857  -0.256   2.521   7.995  3.1089 -1.7810  2.0225
   98SAPS  H13Y 9858  -0.254   2.690   8.009 -0.6519 -0.8008 -0.4794
   98SAPS  C314 9859  -0.065   2.594   8.073  0.2886 -0.5065 -0.3825
   98SAPS  H14X 9860   0.002   2.683   8.076 -0.4428  0.2312 -3.0936
   98SAPS  H14Y 9861  -0.016   2.500   8.039 -0.2926 -0.7249 -0.6282
   98SAPS  C315 9862  -0.107   2.575   8.226  0.4679  0.8391  0.1659
   98SAPS  H15X 9863  -0.173   2.487   8.237  0.5333  0.5410 -1.5126
   98SAPS  H15Y 9864  -0.163   2.661   8.269  0.0548  0.4293  0.4651
   98SAPS  C316 9865   0.015   2.545   8.317  0.1910  0.3689 -0.1249
   98SAPS  H16X 9866   0.080   2.635   8.320 -1.8681  2.0555 -2.1144
   98SAPS  H16Y 9867   0.079   2.472   8.264  0.1668  0.2137  0.0585
   98SAPS  C317 9868  -0.033   2.519   8.462 -0.1721  0.3367  0.3587
   98SAPS  H17X 9869  -0.104   2.433   8.466  0.2128  0.0726  2.2391
   98SAPS  H17Y 9870  -0.097   2.607   8.483 -1.5335 -0.3898 -0.5315
   98SAPS  C318 9871   0.085   2.514   8.558 -0.1414 -0.1917  0.1301
   98SAPS  H18X 9872   0.068   2.477   8.661  1.8483 -4.6158 -0.9045
   98SAPS  H18Y 9873   0.120   2.619   8.575  0.0274  0.2000 -2.2188
   98SAPS  H18Z 9874   0.174   2.454   8.529  0.5829 -0.6081  2.9835
   99SAPS     N 9875   3.577   2.747   6.046 -0.1445  0.2510  0.7927
   99SAPS   HN1 9876   3.517   2.663   6.041  0.4482 -0.1481  0.2757
   99SAPS   HN2 9877   3.659   2.746   5.982  0.2760 -0.0602  1.3284
   99SAPS   HN3 9878   3.620   2.753   6.141 -0.1850  0.8716  0.7786
   99SAPS   C12 9879   3.495   2.868   6.021 -0.2185 -0.1887 -0.9500
   99SAPS  H12A 9880   3.557   2.956   6.014 -0.2690 -0.0071  0.5510
   99SAPS   C13 9881   3.420   2.866   5.885 -1.3231  0.2141 -0.4126
   99SAPS  O13A 9882   3.449   2.780   5.801  0.6363 -0.1121  0.5576
   99SAPS  O13B 9883   3.344   2.961   5.852  0.1259 -0.9005  0.4305
   99SAPS   C11 9884   3.391   2.883   6.130  0.2401  0.2126  0.2086
   99SAPS  H11A 9885   3.329   2.971   6.105 -0.9222 -1.3389 -3.0173
   99SAPS  H11B 9886   3.441   2.904   6.227 -0.8539  0.5154  0.7105
   99SAPS     P 9887   3.316   2.654   6.240  0.3008 -0.2605 -0.2659
   99SAPS   O13 9888   3.193   2.581   6.242  0.5769  0.3839 -0.2837
   99SAPS   O14 9889   3.440   2.585   6.200  0.1417  0.3549 -0.1426
   99SAPS   O12 9890   3.294   2.770   6.129 -0.0533  0.1700 -0.0127
   99SAPS   O11 9891   3.341   2.743   6.368 -0.0925 -0.1446  0.0111
   99SAPS    C1 9892   3.431   2.682   6.466 -0.1416  0.1951  0.3838
   99SAPS    HA 9893   3.499   2.602   6.429 -0.3624 -0.4023  1.2475
   99SAPS    HB 9894   3.499   2.757   6.510  0.3319 -0.5901  1.0195
   99SAPS    C2 9895   3.366   2.618   6.598 -0.3271  0.1454 -0.0411
   99SAPS    HS 9896   3.444   2.561   6.653 -0.2584 -1.4161 -1.6621
   99SAPS   O21 9897   3.261   2.528   6.569  0.8665  0.7609  0.0699
   99SAPS   C21 9898   3.309   2.414   6.517  0.2454  0.2537  0.0607
   99SAPS   O22 9899   3.429   2.389   6.495  0.2272 -0.0114 -0.2198
   99SAPS   C22 9900   3.194   2.319   6.485 -0.1679 -0.2741 -0.7750
   99SAPS   H2R 9901   3.155   2.325   6.381  0.3644 -2.4759 -1.1503
   99SAPS   H2S 9902   3.240   2.218   6.487 -0.1222 -0.3111 -2.4469
   99SAPS    C3 9903   3.319   2.735   6.692  1.0780 -0.4204 -0.4757
   99SAPS    HX 9904   3.243   2.789   6.632  0.1453 -1.2375 -0.0443
   99SAPS    HY 9905   3.407   2.803   6.697  2.9304 -2.3718 -3.5497
   99SAPS   O31 9906   3.271   2.689   6.823 -0.3334 -0.6655  0.8056
   99SAPS   C31 9907   3.147   2.679   6.849  0.4006  0.6432  0.2433
   99SAPS   O32 9908   3.056   2.726   6.782 -0.0860  0.8516 -0.2448
   99SAPS   C32 9909   3.128   2.580   6.970 -0.0684 -0.3687 -0.7984
   99SAPS   H2X 9910   3.231   2.571   7.012 -0.1201  0.0140 -0.5933
   99SAPS   H2Y 9911   3.098   2.477   6.941 -0.6668  0.1052 -1.9240
   99SAPS   C23 9912   3.066   2.319   6.579 -0.2351  0.4117  0.1651
   99SAPS   H3R 9913   2.997   2.243   6.537 -1.4656  1.7187 -0.2445
   99SAPS   H3S 9914   3.007   2.413   6.587  1.0895  1.3561 -0.6387
   99SAPS   C24 9915   3.095   2.282   6.724  0.5779  0.2809  0.2420
   99SAPS   H4R 9916   3.004   2.289   6.788  0.6464  0.9532  0.2712
   99SAPS   H4S 9917   3.157   2.365   6.763 -0.4394  1.3089 -0.2635
   99SAPS   C25 9918   3.155   2.142   6.724  0.4478 -0.1527 -0.1950
   99SAPS   H5R 9919   3.167   2.095   6.626 -0.6508  2.3668 -1.6263
   99SAPS   C26 9920   3.209   2.086   6.830  0.1299  0.6735  0.2035
   99SAPS   H6R 9921   3.251   1.986   6.811  2.0321  1.3909  0.4015
   99SAPS   C27 9922   3.223   2.138   6.966 -0.6826 -0.2697  0.3182
   99SAPS   H7R 9923   3.252   2.245   6.961 -1.2051 -0.1871 -2.3457
   99SAPS   H7S 9924   3.318   2.096   7.007  0.3522  1.2308 -0.4091
   99SAPS   C28 9925   3.102   2.115   7.053  0.0884  0.1536  0.7096
   99SAPS   H8R 9926   3.018   2.086   6.989  0.9583  0.8965 -0.8189
   99SAPS   C29 9927   3.088   2.131   7.187  1.0548  0.1669  0.0492
   99SAPS   H9R 9928   2.994   2.093   7.230  0.9785 -1.3778 -1.3559
   99SAPS  C210 9929   3.195   2.186   7.276  0.2264  0.1491  0.1494
   99SAPS  H10R 9930   3.174   2.285   7.322  0.2995 -0.5123  1.6528
   99SAPS  H10S 9931   3.286   2.205   7.215 -0.1943 -0.9735 -0.8810
   99SAPS  C211 9932   3.242   2.081   7.377  0.4082  0.5350 -0.5054
   99SAPS  H11R 9933   3.306   2.003   7.334 -0.2456 -0.8092  0.8670
   99SAPS  C212 9934   3.224   2.086   7.512 -0.2813 -0.4368  0.1444
   99SAPS  H12R 9935   3.263   2.004   7.575 -1.1835  0.5606  2.0828
   99SAPS  C213 9936   3.151   2.201   7.589  0.2030 -0.3960 -0.4466
   99SAPS  H13R 9937   3.073   2.155   7.653  1.7517 -0.0952  1.7378
   99SAPS  H13S 9938   3.091   2.263   7.518  0.1964  1.1005  0.8294
   99SAPS  C214 9939   3.267   2.272   7.655 -0.5281 -0.5637  0.0090
   99SAPS  H14R 9940   3.323   2.320   7.574  2.3259  0.4928  2.3977
   99SAPS  C215 9941   3.304   2.279   7.786 -0.3336 -0.4675  0.8475
   99SAPS  H15R 9942   3.396   2.331   7.816  0.9502 -3.3701  2.3092
   99SAPS  C216 9943   3.224   2.214   7.892 -0.4404 -0.7127 -1.1953
   99SAPS  H16R 9944   3.205   2.113   7.851  3.2878 -0.8358 -2.9755
   99SAPS  H16S 9945   3.132   2.268   7.923 -0.5950 -0.3182 -2.3063
   99SAPS  C217 9946   3.321   2.188   8.013 -0.6679  0.5700  0.5769
   99SAPS  H17R 9947   3.418   2.143   7.982 -1.7927 -1.2870 -0.4619
   99SAPS  H17S 9948   3.269   2.120   8.084  1.3170  0.0832  1.6260
   99SAPS  C218 9949   3.339   2.318   8.089  0.7583  0.2879  0.4784
   99SAPS  H18R 9950   3.237   2.357   8.113 -0.9939 -3.4185 -0.2126
   99SAPS  H18S 9951   3.392   2.385   8.018 -0.3290 -1.5098 -2.1846
   99SAPS  C219 9952   3.416   2.318   8.221 -0.5066  0.2514  0.6151
   99SAPS  H19R 9953   3.430   2.421   8.260  0.2433  0.2772  0.3009
   99SAPS  H19S 9954   3.519   2.278   8.204 -0.8652 -1.6804  2.5905
   99SAPS  C220 9955   3.348   2.240   8.329 -0.1861  0.2164  1.0133
   99SAPS  H20R 9956   3.363   2.131   8.315 -1.4396  0.3864 -2.3056
   99SAPS  H20S 9957   3.240   2.265   8.330 -0.0755  0.8276 -0.4448
   99SAPS  H20T 9958   3.387   2.256   8.432 -2.5148 -1.9639  2.3469
   99SAPS   C33 9959   3.033   2.644   7.070 -0.1543 -0.2767  0.3716
   99SAPS   H3X 9960   2.926   2.660   7.042  0.2371  0.7628 -0.6134
   99SAPS   H3Y 9961   3.068   2.745   7.100 -1.0493  0.6723 -1.5511
   99SAPS   C34 9962   3.027   2.571   7.208 -0.1169 -0.7208  0.0275
   99SAPS   H4X 9963   2.991   2.469   7.181  2.1771 -1.4039 -0.7241
   99SAPS   H4Y 9964   2.958   2.629   7.273  2.5320  2.5105  0.2249
   99SAPS   C35 9965   3.164   2.564   7.279 -1.0878  0.0281 -0.3512
   99SAPS   H5X 9966   3.217   2.658   7.254 -2.1680  0.7237 -0.0753
   99SAPS   H5Y 9967   3.218   2.482   7.227 -0.6932 -0.0405  0.1696
   99SAPS   C36 9968   3.160   2.529   7.430 -0.5860 -0.4169 -0.6851
   99SAPS   H6X 9969   3.248   2.465   7.451 -1.1959 -0.9355  0.4204
   99SAPS   H6Y 9970   3.061   2.480   7.445 -1.6967  1.8146 -0.4126
   99SAPS   C37 9971   3.155   2.654   7.518  0.2039 -0.0967 -0.0747
   99SAPS   H7X 9972   3.060   2.696   7.481  0.3250  0.1107 -0.1503
   99SAPS   H7Y 9973   3.237   2.725   7.492  0.6365 -0.6571 -0.2632
   99SAPS   C38 9974   3.153   2.627   7.661  0.4541 -0.1141  0.3140
   99SAPS   H8X 9975   3.249   2.577   7.687  2.8678  1.6133 -4.1635
   99SAPS   H8Y 9976   3.068   2.560   7.687 -0.0773  1.1209  1.9747
   99SAPS   C39 9977   3.136   2.756   7.743 -0.0823 -0.5228  1.0435
   99SAPS   H9X 9978   3.051   2.811   7.698  1.4619  3.1788  2.2569
   99SAPS   H9Y 9979   3.226   2.820   7.726 -1.7530  1.1406 -2.6032
   99SAPS  C310 9980   3.093   2.744   7.889 -0.0591 -0.3913  0.0701
   99SAPS  H10X 9981   2.997   2.688   7.894 -0.1095 -0.3092  0.0222
   99SAPS  H10Y 9982   3.078   2.844   7.934  0.7604 -0.7545  1.1971
   99SAPS  C311 9983   3.187   2.670   7.981  0.6373  0.4479  0.0063
   99SAPS  H11X 9984   3.204   2.566   7.946 -2.1156  0.0417 -0.3100
   99SAPS  H11Y 9985   3.128   2.658   8.074  0.5545 -0.6460 -0.1793
   99SAPS  C312 9986   3.310   2.752   7.990  0.7836  0.4440  0.3417
   99SAPS  H12X 9987   3.286   2.860   7.982 -0.9657 -0.0327 -1.6254
   99SAPS  H12Y 9988   3.380   2.732   7.906  1.3024  4.1913 -0.2990
   99SAPS  C313 9989   3.392   2.734   8.127 -0.6193  0.6564  0.4558
   99SAPS  H13X 9990   3.433   2.632   8.139  2.8116  2.0361  1.5252
   99SAPS  H13Y 9991   3.313   2.750   8.205 -0.0146  0.2123  1.1745
   99SAPS  C314 9992   3.494   2.842   8.161 -0.5224 -0.3762 -0.4046
   99SAPS  H14X 9993   3.533   2.827   8.264 -3.3681 -0.9366  0.6920
   99SAPS  H14Y 9994   3.447   2.943   8.162  1.0942  0.4206  1.7262
   99SAPS  C315 9995   3.607   2.850   8.055 -0.3971 -0.1575 -0.2366
   99SAPS  H15X 9996   3.561   2.863   7.955 -1.3028 -1.0010  0.0618
   99SAPS  H15Y 9997   3.661   2.754   8.064 -0.3450 -0.1791 -0.7748
   99SAPS  C316 9998   3.690   2.974   8.087 -0.8888 -0.6771  0.5178
   99SAPS  H16X 9999   3.733   2.979   8.189 -1.8690  0.0175  0.9048
   99SAPS  H16Y10000   3.618   3.057   8.070 -0.3351 -0.5514 -1.5151
   99SAPS  C31710001   3.815   2.976   7.987  0.3607  0.0223 -0.6494
   99SAPS  H17X10002   3.785   3.034   7.897  1.9247  2.9820  0.5957
   99SAPS  H17Y10003   3.842   2.872   7.960 -0.8153 -1.2843  2.6394
   99SAPS  C31810004   3.938   3.050   8.050  0.1738 -0.1687 -0.3551
   99SAPS  H18X10005   4.019   3.066   7.976  0.2494  3.6293  0.3579
   99SAPS  H18Y10006   3.974   2.990   8.137 -1.0192 -0.6158 -0.1430
   99SAPS  H18Z10007   3.912   3.154   8.079  2.0433  0.0634  0.6396
  100SAPS     N10008   1.526   5.090   6.223 -0.0193 -0.2730 -0.2095
  100SAPS   HN110009   1.586   5.114   6.305  0.7336  0.3603 -0.9209
  100SAPS   HN210010   1.562   5.133   6.135  1.2189 -0.6350  0.0966
  100SAPS   HN310011   1.430   5.127   6.235  0.2768  0.9870 -1.3465
  100SAPS   C1210012   1.508   4.944   6.201  0.5625 -0.6103  0.2141
  100SAPS  H12A10013   1.470   4.906   6.295 -1.8411 -1.4894 -1.0353
  100SAPS   C1310014   1.396   4.912   6.094 -0.0067 -0.1987 -0.4737
  100SAPS  O13A10015   1.341   5.007   6.041  0.0329 -0.4812  0.3865
  100SAPS  O13B10016   1.377   4.790   6.067 -0.1487 -0.2104  0.0718
  100SAPS   C1110017   1.646   4.884   6.163 -0.1960 -0.2980 -0.5774
  100SAPS  H11A10018   1.678   4.916   6.062 -0.9323 -0.3788 -0.8453
  100SAPS  H11B10019   1.619   4.778   6.143 -2.4280  0.1451 -0.2013
  100SAPS     P10020   1.755   4.806   6.400  0.5051 -0.2301 -0.1094
  100SAPS   O1310021   1.893   4.810   6.436 -0.7337 -0.9449 -0.6116
  100SAPS   O1410022   1.670   4.868   6.500  0.5691  0.3066  0.1919
  100SAPS   O1210023   1.742   4.898   6.263 -0.0186 -0.5144  0.6245
  100SAPS   O1110024   1.705   4.668   6.362 -0.0009  0.1308  0.3794
  100SAPS    C110025   1.563   4.624   6.372  0.7372  0.2012 -0.2711
  100SAPS    HA10026   1.502   4.701   6.423 -1.4969 -0.6197 -1.5768
  100SAPS    HB10027   1.509   4.615   6.275 -0.6652 -1.1749  0.5817
  100SAPS    C210028   1.547   4.489   6.450  0.9198 -0.2863 -0.9465
  100SAPS    HS10029   1.445   4.490   6.494  1.3065  1.7766  0.0639
  100SAPS   O2110030   1.636   4.481   6.560  0.6497 -0.3140  0.0107
  100SAPS   C2110031   1.612   4.564   6.662 -0.9650  0.8476  0.4388
  100SAPS   O2210032   1.534   4.656   6.659  0.3447 -0.4056 -0.1908
  100SAPS   C2210033   1.706   4.525   6.780 -0.3886 -1.0160 -0.1684
  100SAPS   H2R10034   1.651   4.482   6.867 -2.5116 -0.8072 -1.3458
  100SAPS   H2S10035   1.771   4.443   6.741  1.5373 -1.4775  3.5274
  100SAPS    C310036   1.544   4.371   6.356  0.1245 -0.0901  0.1262
  100SAPS    HX10037   1.586   4.400   6.258 -1.5004 -3.1223 -1.6144
  100SAPS    HY10038   1.436   4.354   6.335  0.3890 -0.9068 -0.6306
  100SAPS   O3110039   1.598   4.256   6.412  0.9321 -0.0254 -0.3101
  100SAPS   C3110040   1.526   4.197   6.508  0.5198 -0.5150 -0.2151
  100SAPS   O3210041   1.406   4.212   6.527 -0.7154 -0.1324 -0.0315
  100SAPS   C3210042   1.610   4.092   6.570 -0.0133  0.2635  0.0948
  100SAPS   H2X10043   1.715   4.130   6.578  0.5875 -1.0632 -1.0533
  100SAPS   H2Y10044   1.608   4.001   6.507 -1.4751  0.7251 -0.5696
  100SAPS   C2310045   1.797   4.648   6.818  0.3740 -0.1366  0.5519
  100SAPS   H3R10046   1.742   4.740   6.847  0.8610 -0.0866  1.3623
  100SAPS   H3S10047   1.853   4.662   6.724 -0.5048 -1.7577 -0.2653
  100SAPS   C2410048   1.894   4.602   6.930 -0.2911 -0.0618  0.6630
  100SAPS   H4R10049   1.980   4.673   6.928 -1.9020  2.0471  2.0506
  100SAPS   H4S10050   1.925   4.498   6.907 -1.5087 -0.5947  1.3502
  100SAPS   C2510051   1.821   4.613   7.064 -0.4883  0.0389  0.0017
  100SAPS   H5R10052   1.752   4.530   7.086 -1.6132  0.3909 -2.0015
  100SAPS   C2610053   1.850   4.704   7.160 -0.0184 -0.1220 -0.9647
  100SAPS   H6R10054   1.790   4.702   7.252 -0.1941 -1.3086 -1.0932
  100SAPS   C2710055   1.950   4.817   7.155  0.1418  0.2630  0.1085
  100SAPS   H7R10056   2.026   4.776   7.085  0.5891  0.1330  0.6552
  100SAPS   H7S10057   2.001   4.813   7.254  1.2380 -1.6852 -0.4681
  100SAPS   C2810058   1.892   4.946   7.111  0.2375  0.3349  0.2423
  100SAPS   H8R10059   1.815   4.949   7.032 -0.6840  0.1398  1.1032
  100SAPS   C2910060   1.917   5.066   7.161  0.7165 -0.4959 -0.2758
  100SAPS   H9R10061   1.871   5.153   7.112 -1.1741  0.1793  2.4744
  100SAPS  C21010062   2.001   5.095   7.282  0.4474  0.1340  0.2437
  100SAPS  H10R10063   2.055   5.192   7.277 -1.9305  1.5428  0.6916
  100SAPS  H10S10064   2.087   5.025   7.296 -0.0253 -0.3472  0.8301
  100SAPS  C21110065   1.925   5.103   7.411 -0.2359  0.4273  0.1231
  100SAPS  H11R10066   1.895   5.001   7.441  2.1806  0.2293  2.1574
  100SAPS  C21210067   1.885   5.206   7.483  0.2070 -0.5811 -0.5253
  100SAPS  H12R10068   1.819   5.190   7.570 -1.5666  3.1427 -1.0197
  100SAPS  C21310069   1.919   5.354   7.453  0.3900 -0.1771  0.4793
  100SAPS  H13R10070   1.980   5.350   7.361  0.0038 -2.1614  0.2729
  100SAPS  H13S10071   1.970   5.399   7.541 -1.3076  1.1122  0.8483
  100SAPS  C21410072   1.788   5.427   7.432 -0.3232  0.4528 -0.7712
  100SAPS  H14R10073   1.746   5.425   7.331 -0.3615 -0.8328 -0.7452
  100SAPS  C21510074   1.711   5.486   7.530  0.3360 -0.6228 -0.4496
  100SAPS  H15R10075   1.615   5.529   7.500  0.8411  3.1006  2.4772
  100SAPS  C21610076   1.727   5.496   7.682  0.3307  0.2002  0.0786
  100SAPS  H16R10077   1.830   5.468   7.713 -0.1726 -1.6795  0.1869
  100SAPS  H16S10078   1.658   5.425   7.733 -0.6314 -0.4156 -1.9895
  100SAPS  C21710079   1.692   5.642   7.727  0.2210  0.1610 -0.0251
  100SAPS  H17R10080   1.585   5.655   7.701  0.0682 -3.2363 -1.7537
  100SAPS  H17S10081   1.742   5.720   7.667 -2.1772  2.3133  0.5997
  100SAPS  C21810082   1.718   5.663   7.880  0.2875  1.2065 -0.4278
  100SAPS  H18R10083   1.684   5.769   7.884 -3.2737  0.1811 -0.5092
  100SAPS  H18S10084   1.826   5.648   7.900 -0.0908 -1.5029 -0.1120
  100SAPS  C21910085   1.626   5.567   7.961  0.1630 -0.5712  0.8712
  100SAPS  H19R10086   1.672   5.468   7.943  1.6299  0.4176 -1.2469
  100SAPS  H19S10087   1.528   5.578   7.909  0.1406  0.4195  1.1062
  100SAPS  C22010088   1.611   5.597   8.112  0.0036 -0.4488  0.4190
  100SAPS  H20R10089   1.525   5.549   8.164  0.7205 -1.5009  0.6775
  100SAPS  H20S10090   1.598   5.705   8.133  0.0186 -0.3692  0.0348
  100SAPS  H20T10091   1.708   5.580   8.164  1.5144  0.1172 -2.0244
  100SAPS   C3310092   1.552   4.066   6.711 -0.0281 -0.1707 -0.4395
  100SAPS   H3X10093   1.582   3.960   6.720 -1.1583 -0.5296 -0.6782
  100SAPS   H3Y10094   1.441   4.063   6.718 -0.1935  1.9075 -1.3956
  100SAPS   C3410095   1.624   4.143   6.825 -0.2195  0.0422  0.3237
  100SAPS   H4X10096   1.581   4.244   6.811 -1.2731 -0.0730  2.3275
  100SAPS   H4Y10097   1.735   4.148   6.816 -0.3284 -0.7409 -1.8908
  100SAPS   C3510098   1.583   4.089   6.961  0.1577  0.4095 -0.2242
  100SAPS   H5X10099   1.602   3.979   6.957 -1.3106  0.1346 -0.4478
  100SAPS   H5Y10100   1.473   4.101   6.972  0.2890  1.3034  0.1690
  100SAPS   C3610101   1.631   4.154   7.090 -0.2682 -0.1381  0.6570
  100SAPS   H6X10102   1.567   4.239   7.120 -0.7386 -0.8949  1.8735
  100SAPS   H6Y10103   1.737   4.186   7.078 -0.4282  0.0923 -0.1532
  100SAPS   C3710104   1.613   4.052   7.205 -1.0872 -0.2682  0.0148
  100SAPS   H7X10105   1.667   3.956   7.187 -0.4106  0.3361 -1.3053
  100SAPS   H7Y10106   1.504   4.039   7.220 -0.9718  0.3926  1.6840
  100SAPS   C3810107   1.673   4.104   7.338 -0.3699 -0.1535 -0.3029
  100SAPS   H8X10108   1.645   4.210   7.359  0.4974 -0.0760  0.4730
  100SAPS   H8Y10109   1.783   4.104   7.325 -0.4168 -0.5146 -0.7077
  100SAPS   C3910110   1.641   4.016   7.460 -0.0710  0.2341  0.6889
  100SAPS   H9X10111   1.665   3.913   7.426 -0.5048  0.3031  0.1662
  100SAPS   H9Y10112   1.535   4.033   7.488  0.3894  1.1529  1.9700
  100SAPS  C31010113   1.727   4.062   7.575  0.0436  0.2906  0.0234
  100SAPS  H10X10114   1.706   4.165   7.613 -2.1393 -0.3100  0.5843
  100SAPS  H10Y10115   1.833   4.056   7.543 -0.5559  1.4433 -2.4456
  100SAPS  C31110116   1.717   3.969   7.698 -0.3359 -0.2429  0.3691
  100SAPS  H11X10117   1.761   3.870   7.673 -0.6598 -0.3648  0.2736
  100SAPS  H11Y10118   1.612   3.956   7.732 -2.0435  1.4838 -3.6378
  100SAPS  C31210119   1.811   4.026   7.815  0.2276 -0.2816  0.0864
  100SAPS  H12X10120   1.818   4.137   7.805 -1.3145 -0.2738 -1.2355
  100SAPS  H12Y10121   1.909   3.977   7.793  0.8352  0.7155  0.4700
  100SAPS  C31310122   1.770   3.959   7.953  0.0029  0.0431  0.4513
  100SAPS  H13X10123   1.801   3.853   7.942 -2.1945 -0.6555  0.6450
  100SAPS  H13Y10124   1.661   3.976   7.965 -0.2211 -1.1506  0.1897
  100SAPS  C31410125   1.839   4.028   8.062 -0.2038 -0.4088  0.0959
  100SAPS  H14X10126   1.826   4.136   8.041 -0.5167  0.2682  3.3034
  100SAPS  H14Y10127   1.948   4.008   8.063  0.1582  1.4246  1.4068
  100SAPS  C31510128   1.792   4.008   8.205  0.2644 -0.5291 -0.6223
  100SAPS  H15X10129   1.708   4.076   8.231 -0.3276 -0.9010 -1.5098
  100SAPS  H15Y10130   1.879   4.033   8.269 -0.3210 -0.3688  0.1275
  100SAPS  C31610131   1.750   3.862   8.230 -0.1374 -0.6913  0.5620
  100SAPS  H16X10132   1.822   3.798   8.175  1.0152  0.5736  0.5644
  100SAPS  H16Y10133   1.649   3.850   8.185  0.2112  3.2491 -1.8003
  100SAPS  C31710134   1.761   3.817   8.379 -0.6445  0.4325  0.8235
  100SAPS  H17X10135   1.661   3.843   8.421 -1.6456 -2.2602  0.2533
  100SAPS  H17Y10136   1.832   3.880   8.438  0.9439  0.6987 -1.2690
  100SAPS  C31810137   1.786   3.669   8.403  0.0275 -0.0449  0.6808
  100SAPS  H18X10138   1.707   3.596   8.375  1.0264 -0.9319  0.0888
  100SAPS  H18Y10139   1.796   3.659   8.514 -1.8400  0.1436  0.8936
  100SAPS  H18Z10140   1.883   3.636   8.360 -0.8681 -0.5794 -1.0076
  101OSM      N10141   5.178   4.614  10.716  0.3771  0.7425  0.3993
  101OSM    C1510142   5.108   4.571  10.590 -0.7563 -0.4050 -0.2148
  101OSM   H15A10143   5.129   4.467  10.569  0.9582 -0.1485  0.0293
  101OSM   H15B10144   5.138   4.634  10.508  0.0404 -0.3613  0.0897
  101OSM   H15C10145   5.003   4.585  10.608 -0.8613  1.0831 -1.8027
  101OSM    C1410146   5.150   4.507  10.816  0.2377  0.3680 -0.3491
  101OSM   H14A10147   5.166   4.411  10.769 -1.0198  0.4543 -0.9977
  101OSM   H14B10148   5.049   4.512  10.852 -0.5428  1.1575 -2.4665
  101OSM   H14C10149   5.222   4.515  10.895  0.5247 -0.8195 -0.4707
  101OSM    C1310150   5.324   4.622  10.686  0.4656 -0.1897  0.9944
  101OSM   H13A10151   5.376   4.639  10.779 -0.6717 -1.7723  1.9645
  101OSM   H13B10152   5.341   4.712  10.627 -1.5546  0.7713  1.7845
  101OSM   H13C10153   5.359   4.534  10.634 -1.9611  0.2516 -1.6539
  101OSM    C1210154   5.112   4.741  10.755 -0.2222  0.0914  0.2004
  101OSM   H12A10155   5.133   4.747  10.861 -0.1447 -1.3622  0.2847
  101OSM   H12B10156   5.005   4.738  10.741  0.0946  1.1743 -3.5685
  101OSM    C1110157   5.164   4.874  10.700  0.6021 -0.0310  0.3365
  101OSM   H11A10158   5.082   4.949  10.704  0.7311  0.4894 -3.1252
  101OSM   H11B10159   5.178   4.865  10.590 -2.8016 -0.0312 -0.2041
  101OSM      P10160   5.319   5.065  10.773  0.1594  0.1365  0.0425
  101OSM    O1310161   5.244   5.120  10.884 -0.0430  0.2019  0.7715
  101OSM    O1410162   5.470   5.075  10.784  0.6748 -0.2484 -0.2997
  101OSM    O1110163   5.270   5.129  10.637 -0.8133 -0.2882  0.1052
  101OSM    O1210164   5.285   4.913  10.753  0.3103 -0.2515 -0.0679
  101OSM    C1S10165   5.362   5.117  10.523 -0.2005 -0.5124 -0.5513
  101OSM    H1S10166   5.362   5.008  10.504 -1.3797 -0.8813  1.2261
  101OSM    H1T10167   5.467   5.146  10.541 -0.0000 -0.6313 -1.4895
  101OSM     NF10168   5.405   5.151  10.284  0.4736  0.1102  0.1807
  101OSM    HNF10169   5.465   5.223  10.251 -0.5288  2.2373  2.6012
  101OSM    C2S10170   5.317   5.190  10.400 -0.1717 -0.1495  0.1519
  101OSM    H2S10171   5.213   5.169  10.366  0.3304 -1.2175 -0.7864
  101OSM    C3S10172   5.323   5.339  10.426  0.0540  0.6060  0.4666
  101OSM    H3S10173   5.432   5.363  10.420  0.0078  0.4666 -1.0956
  101OSM     O310174   5.269   5.378  10.553 -1.0350  0.5660 -0.2761
  101OSM    HO310175   5.259   5.295  10.600 -1.2282  0.6870 -0.0983
  101OSM    C4S10176   5.247   5.424  10.332  0.0101 -0.2209  0.3365
  101OSM    H4S10177   5.139   5.413  10.344 -0.0330 -0.4238 -0.2310
  101OSM    C5S10178   5.294   5.520  10.252  0.2269  0.2862  0.1239
  101OSM    H5S10179   5.404   5.530  10.247  0.2599  0.0973  0.4712
  101OSM    C6S10180   5.218   5.603  10.156  0.1900  0.3350  0.3382
  101OSM    H6S10181   5.288   5.621  10.071  0.5441  2.6481  1.0433
  101OSM    H6T10182   5.201   5.698  10.211 -0.2248 -0.6662  2.0147
  101OSM    C7S10183   5.080   5.551  10.111 -0.0539  0.0932 -0.0580
  101OSM    H7S10184   5.023   5.535  10.206  0.3806  0.0884  0.2074
  101OSM    H7T10185   5.089   5.449  10.068  1.6271 -0.1078  0.7002
  101OSM    C8S10186   5.005   5.649  10.016  0.8660  0.2596 -0.1474
  101OSM    H8S10187   4.982   5.738  10.078 -2.0898 -1.7450  1.9369
  101OSM    H8T10188   4.904   5.608   9.996  1.5898 -0.2943 -3.1052
  101OSM    C9S10189   5.079   5.660   9.882 -0.0795  0.2765 -0.4154
  101OSM    H9S10190   5.112   5.560   9.848  0.2017 -0.6395  2.3477
  101OSM    H9T10191   5.174   5.715   9.897  0.1171 -0.3561  0.7235
  101OSM   C10S10192   4.990   5.733   9.775  0.0998  0.2785  0.7027
  101OSM   H10S10193   4.979   5.840   9.803  0.0826 -0.5714  4.3815
  101OSM   H10T10194   4.888   5.689   9.774  1.3442 -2.9195 -1.3715
  101OSM   C11S10195   5.051   5.729   9.631  0.4813  0.3195  0.2583
  101OSM   H11S10196   4.981   5.782   9.562 -0.6288 -0.3646  0.8336
  101OSM   H11T10197   5.075   5.626   9.598  0.1864  0.4966 -0.5214
  101OSM   C12S10198   5.188   5.807   9.640 -0.2949  0.6313  0.5906
  101OSM   H12S10199   5.269   5.774   9.709  1.1322  4.0515  0.7613
  101OSM   H12T10200   5.173   5.912   9.673  3.1600  1.1038  1.0024
  101OSM   C13S10201   5.250   5.818   9.503  0.3333 -0.1464  0.3402
  101OSM   H13S10202   5.170   5.870   9.446 -1.0997 -0.6077  1.8571
  101OSM   H13T10203   5.269   5.725   9.445 -1.1271 -0.8862  1.0018
  101OSM   C14S10204   5.388   5.887   9.502  0.3709  0.2449 -0.3375
  101OSM   H14S10205   5.477   5.828   9.533  0.7260  0.5180 -0.8019
  101OSM   H14T10206   5.376   5.963   9.581 -0.9025 -0.2579 -0.0310
  101OSM   C15S10207   5.425   5.952   9.368 -0.3066 -0.4032 -0.2001
  101OSM   H15S10208   5.528   5.990   9.384 -0.9457  0.7619  1.5044
  101OSM   H15T10209   5.353   6.037   9.360 -1.0947 -0.5967  3.2264
  101OSM   C16S10210   5.420   5.870   9.240  0.2605  0.0032 -0.9724
  101OSM   H16S10211   5.319   5.823   9.242  0.5843 -0.7324 -1.6780
  101OSM   H16T10212   5.489   5.783   9.253 -0.6415 -0.6399 -0.3247
  101OSM   C17S10213   5.430   5.937   9.110 -0.8093 -0.4879 -0.3447
  101OSM   H17S10214   5.384   6.036   9.129 -2.7042 -1.1502 -1.1954
  101OSM   H17T10215   5.371   5.880   9.035 -0.0272 -3.3944  1.1140
  101OSM   C18S10216   5.569   5.960   9.068 -0.3435 -0.0547  1.0247
  101OSM   H18S10217   5.607   5.858   9.043  1.8939  1.1442 -0.8225
  101OSM   H18T10218   5.637   6.010   9.140  1.5634  0.1332 -0.8131
  101OSM   H18U10219   5.578   6.023   8.977  1.1200  1.0612  1.9054
  101OSM    C1F10220   5.401   5.025  10.239 -1.0430 -0.3937 -0.4289
  101OSM     OF10221   5.309   4.950  10.262 -0.1401 -0.0976  0.1961
  101OSM    C2F10222   5.519   4.981  10.159 -0.3615 -0.0855  0.4626
  101OSM    H2F10223   5.522   4.871  10.167 -0.2907 -0.2320 -1.1233
  101OSM    H2G10224   5.611   5.025  10.203 -0.9560  0.1414  1.5024
  101OSM    C3F10225   5.503   5.035  10.014 -0.9333 -1.2146  0.0843
  101OSM    H3F10226   5.600   5.016   9.964 -0.1633  0.3884  0.8957
  101OSM    H3G10227   5.480   5.144  10.017 -0.9005 -1.0688 -2.3025
  101OSM    C4F10228   5.393   4.965   9.935 -0.2918 -0.4020 -1.1853
  101OSM    H4F10229   5.302   4.984   9.997 -0.0531 -0.6126 -0.7669
  101OSM    H4G10230   5.413   4.856   9.930 -1.3976 -0.5637 -4.0994
  101OSM    C5F10231   5.364   5.008   9.791 -0.2137  0.7911 -0.1952
  101OSM    H5F10232   5.381   5.118   9.791  0.6779  0.6819 -1.4342
  101OSM    H5G10233   5.258   4.979   9.779  0.1104 -0.2514 -0.6399
  101OSM    C6F10234   5.449   4.937   9.684 -0.1782  0.0525 -0.4020
  101OSM    H6F10235   5.425   4.829   9.696 -0.6122  0.3522  2.0345
  101OSM    H6G10236   5.557   4.944   9.708  0.1339 -2.4101 -0.8220
  101OSM    C7F10237   5.415   4.991   9.545 -0.5690  0.5789 -0.6786
  101OSM    H7F10238   5.437   5.100   9.536 -0.0046  0.4774 -0.5940
  101OSM    H7G10239   5.305   4.985   9.538 -1.1239  1.7000  3.7014
  101OSM    C8F10240   5.490   4.925   9.425 -0.5872  0.0233 -0.0624
  101OSM    H8F10241   5.442   4.957   9.330  0.0512 -1.4747 -0.9126
  101OSM    H8G10242   5.474   4.816   9.434  0.1326 -0.0337  0.6598
  101OSM    C9F10243   5.632   4.960   9.429 -0.2136  0.1771  0.6080
  101OSM    H9F10244   5.682   4.931   9.522 -0.3722  0.9299  0.9282
  101OSM   C10F10245   5.690   5.051   9.344  0.2559 -0.4047 -0.3463
  101OSM   H10F10246   5.791   5.085   9.369 -0.4311  1.2970  0.2806
  101OSM   C11F10247   5.616   5.122   9.227 -0.1093 -0.1376 -0.4108
  101OSM   H11F10248   5.522   5.074   9.192  0.0930 -0.9674  0.1579
  101OSM   H11G10249   5.682   5.114   9.138 -0.5827  0.2063 -0.8009
  101OSM   C12F10250   5.561   5.269   9.254  0.2102  0.5231  0.3944
  101OSM   H12F10251   5.483   5.256   9.332  0.4914 -0.5230  0.5218
  101OSM   H12G10252   5.506   5.318   9.171 -2.1710  2.2884  2.8432
  101OSM   C13F10253   5.670   5.358   9.312  0.1542 -0.2962  0.3863
  101OSM   H13F10254   5.756   5.360   9.241  1.5097 -2.7617  1.7936
  101OSM   H13G10255   5.713   5.314   9.404  1.1395  1.3820  0.7622
  101OSM   C14F10256   5.632   5.505   9.346 -0.2006  0.2142  0.1392
  101OSM   H14F10257   5.597   5.557   9.254  0.8366 -1.0103 -0.9969
  101OSM   H14G10258   5.727   5.556   9.373 -1.3115  1.5664  1.5817
  101OSM   C15F10259   5.533   5.536   9.453  0.7849 -0.8836  0.2628
  101OSM   H15F10260   5.430   5.503   9.426 -0.9884  3.0500  1.4902
  101OSM   H15G10261   5.524   5.646   9.467 -2.2373 -1.1917  1.5026
  101OSM   C16F10262   5.563   5.469   9.585  0.1017 -0.1276  0.7788
  101OSM   H16F10263   5.662   5.491   9.630  0.4737  0.2561 -0.2001
  101OSM   H16G10264   5.550   5.359   9.590  1.1750 -0.3103 -0.1034
  101OSM   C17F10265   5.464   5.513   9.697  0.3291 -0.4022 -0.2645
  101OSM   H17F10266   5.365   5.530   9.649 -0.7499 -1.2343  1.5700
  101OSM   H17G10267   5.497   5.609   9.742  0.6000 -0.7508  0.2925
  101OSM   C18F10268   5.435   5.401   9.810  0.1305 -0.1295 -0.4980
  101OSM   H18F10269   5.340   5.437   9.856 -0.0042  1.6728 -2.0446
  101OSM   H18G10270   5.515   5.399   9.887 -0.1461 -2.0646 -0.2225
  101OSM   H18H10271   5.419   5.304   9.759 -0.5827  0.4665 -1.4371
  102OSM      N10272   4.647   4.364  11.128  0.3092  0.2493  0.3153
  102OSM    C1510273   4.772   4.438  11.150  0.1890 -0.2532  0.0367
  102OSM   H15A10274   4.853   4.372  11.177  0.1933 -0.7555 -1.1729
  102OSM   H15B10275   4.767   4.518  11.223  0.8875 -1.8231  1.8734
  102OSM   H15C10276   4.804   4.477  11.055  1.4794 -1.8399 -0.2178
  102OSM    C1410277   4.603   4.276  11.247 -0.2501 -0.8643  0.1146
  102OSM   H14A10278   4.506   4.234  11.225 -1.1198  1.7778 -1.6211
  102OSM   H14B10279   4.586   4.337  11.335 -0.1311  0.5541 -0.8241
  102OSM   H14C10280   4.678   4.199  11.260  1.0534  0.2487 -0.6263
  102OSM    C1310281   4.542   4.472  11.111  0.5294 -0.2655  0.7791
  102OSM   H13A10282   4.446   4.425  11.132 -0.8404  1.4173 -1.3030
  102OSM   H13B10283   4.540   4.504  11.008 -0.5605  1.6942  1.3500
  102OSM   H13C10284   4.552   4.551  11.185 -1.0712  0.6875  0.0507
  102OSM    C1210285   4.651   4.276  11.004  0.3981  0.3742  0.2028
  102OSM   H12A10286   4.557   4.241  10.965  1.2827 -1.2159 -0.6067
  102OSM   H12B10287   4.709   4.185  11.016 -0.6208 -0.6737 -2.1807
  102OSM    C1110288   4.724   4.344  10.883  0.1485 -0.2029  0.9653
  102OSM   H11A10289   4.705   4.274  10.799  0.4037  2.3611 -1.3692
  102OSM   H11B10290   4.830   4.358  10.913 -0.1895  0.8664  1.7133
  102OSM      P10291   4.739   4.573  10.760  0.0881 -0.3527 -0.0651
  102OSM    O1310292   4.634   4.667  10.722  0.2487  0.2281  0.5507
  102OSM    O1410293   4.862   4.618  10.829 -0.0818 -0.2732 -0.0586
  102OSM    O1110294   4.780   4.504  10.634 -0.7901  0.8148 -1.0654
  102OSM    O1210295   4.666   4.466  10.850 -0.1224 -0.2085 -0.0379
  102OSM    C1S10296   4.689   4.447  10.534  0.3350  0.4341 -0.0659
  102OSM    H1S10297   4.600   4.514  10.526  0.8004  1.2894  1.5541
  102OSM    H1T10298   4.633   4.362  10.577 -0.8108  0.2446 -1.8135
  102OSM     NF10299   4.644   4.415  10.296 -0.4525  0.0286 -0.2208
  102OSM    HNF10300   4.619   4.319  10.290  0.2462 -0.2157  0.6561
  102OSM    C2S10301   4.750   4.424  10.393 -0.2810 -0.3228  0.4755
  102OSM    H2S10302   4.809   4.518  10.379 -2.4791  1.3318  1.6053
  102OSM    C3S10303   4.847   4.310  10.410  0.2338  0.2153  0.9004
  102OSM    H3S10304   4.796   4.222  10.453  0.3110  0.1795  0.9185
  102OSM     O310305   4.944   4.338  10.511  0.1944 -0.1478  0.3520
  102OSM    HO310306   4.898   4.409  10.557  0.8451  0.2546  0.3982
  102OSM    C4S10307   4.923   4.293  10.287  0.2903  0.4864 -0.1070
  102OSM    H4S10308   4.993   4.374  10.264  1.4636 -0.9738 -1.9591
  102OSM    C5S10309   4.909   4.190  10.199 -0.1363 -0.2500  0.0640
  102OSM    H5S10310   4.851   4.106  10.241 -0.3110  0.8510  2.1637
  102OSM    C6S10311   4.982   4.158  10.070  0.3338 -0.6188 -0.6269
  102OSM    H6S10312   5.014   4.052  10.077 -0.5080 -0.9318 -1.3840
  102OSM    H6T10313   5.057   4.239  10.052 -0.7363  0.6247  0.3003
  102OSM    C7S10314   4.885   4.154   9.951 -0.6745  0.3414  0.2731
  102OSM    H7S10315   4.835   4.253   9.946 -0.7897  0.2938  0.4901
  102OSM    H7T10316   4.807   4.077   9.970  1.4460 -1.9969  0.0262
  102OSM    C8S10317   4.954   4.123   9.815  0.2341  0.7931  0.1111
  102OSM    H8S10318   4.984   4.016   9.826  1.7561  0.9097 -2.2189
  102OSM    H8T10319   5.032   4.201   9.805 -0.0324  0.8503 -1.9246
  102OSM    C9S10320   4.868   4.126   9.688  0.1635  0.1415 -0.1724
  102OSM    H9S10321   4.813   4.222   9.693  1.2322  0.7277  0.9558
  102OSM    H9T10322   4.802   4.037   9.686  0.8154 -0.3620  0.3252
  102OSM   C10S10323   4.951   4.117   9.558  0.0099  0.2318  0.7245
  102OSM   H10S10324   5.006   4.021   9.542 -0.9731 -0.1211 -0.6987
  102OSM   H10T10325   5.017   4.206   9.550  0.4401 -0.1855 -0.7330
  102OSM   C11S10326   4.848   4.137   9.442 -0.3951  0.5548  0.2880
  102OSM   H11S10327   4.892   4.199   9.361  0.0790 -1.5962 -1.1753
  102OSM   H11T10328   4.770   4.197   9.494  0.4302  1.8280  0.0959
  102OSM   C12S10329   4.777   4.009   9.388  0.4855  0.7080 -0.2407
  102OSM   H12S10330   4.711   4.049   9.307 -0.0694 -1.7505 -1.0795
  102OSM   H12T10331   4.721   3.948   9.462  0.9880 -1.3371 -1.4652
  102OSM   C13S10332   4.865   3.905   9.312  0.0945  0.0405  0.0269
  102OSM   H13S10333   4.931   3.853   9.384  0.5547  0.5903  0.0120
  102OSM   H13T10334   4.926   3.971   9.246 -0.9935  0.4045 -0.6394
  102OSM   C14S10335   4.786   3.810   9.222  0.3737 -0.5416  0.0279
  102OSM   H14S10336   4.753   3.861   9.129  0.3775  1.4869  1.0771
  102OSM   H14T10337   4.691   3.774   9.267 -0.2596 -1.1562 -1.7100
  102OSM   C15S10338   4.868   3.684   9.190 -0.1068  0.2414  0.3915
  102OSM   H15S10339   4.881   3.634   9.288  0.3136 -1.0346 -0.2989
  102OSM   H15T10340   4.970   3.714   9.157 -1.0877  0.5720 -2.5863
  102OSM   C16S10341   4.795   3.596   9.090  0.4848  0.5538 -0.1270
  102OSM   H16S10342   4.766   3.647   8.996  0.2165  0.9111  0.1477
  102OSM   H16T10343   4.700   3.564   9.138 -0.3936  0.5934 -1.7775
  102OSM   C17S10344   4.879   3.473   9.064  0.1594 -0.1667  0.0707
  102OSM   H17S10345   4.878   3.440   9.169 -4.3775  0.5168  0.4378
  102OSM   H17T10346   4.978   3.508   9.027 -0.0542 -1.4662 -1.8788
  102OSM   C18S10347   4.825   3.364   8.975 -0.4986  0.4522  0.3823
  102OSM   H18S10348   4.807   3.394   8.870  0.9662 -1.0800 -0.3355
  102OSM   H18T10349   4.725   3.333   9.013 -0.7378 -0.0394 -0.6071
  102OSM   H18U10350   4.894   3.277   8.971  1.2689  1.8426 -0.9781
  102OSM    C1F10351   4.575   4.515  10.251  0.6007  0.1234 -0.0679
  102OSM     OF10352   4.605   4.624  10.287  0.2534 -0.1285 -0.8268
  102OSM    C2F10353   4.462   4.479  10.156  0.3653  0.0413 -0.5825
  102OSM    H2F10354   4.382   4.555  10.171  1.2624  0.5634  1.8602
  102OSM    H2G10355   4.418   4.382  10.189  0.1521  0.6507  1.0069
  102OSM    C3F10356   4.502   4.481  10.008 -0.7876 -0.2110 -0.0223
  102OSM    H3F10357   4.568   4.392  10.008 -1.5998 -0.8362 -0.1570
  102OSM    H3G10358   4.552   4.578   9.994  0.1409 -0.5255  1.0538
  102OSM    C4F10359   4.385   4.452   9.914  0.1873 -0.1914 -0.7049
  102OSM    H4F10360   4.290   4.500   9.947  1.2364  1.6724 -0.2379
  102OSM    H4G10361   4.356   4.345   9.914  1.0759 -0.4466 -0.0216
  102OSM    C5F10362   4.421   4.496   9.770  0.3070 -0.2777 -0.9015
  102OSM    H5F10363   4.456   4.600   9.757  1.8742 -0.7846 -0.9312
  102OSM    H5G10364   4.326   4.492   9.712 -0.9795 -0.3130  1.0952
  102OSM    C6F10365   4.516   4.404   9.693 -0.5230 -0.3829 -0.5081
  102OSM    H6F10366   4.460   4.314   9.659 -0.1248 -1.2046  0.9341
  102OSM    H6G10367   4.604   4.369   9.750 -0.0728  1.8660  0.2717
  102OSM    C7F10368   4.557   4.478   9.562 -0.2063 -0.0402 -0.2723
  102OSM    H7F10369   4.639   4.413   9.526 -0.5263 -1.1543  0.9028
  102OSM    H7G10370   4.598   4.576   9.593 -1.0692  0.4498 -0.6319
  102OSM    C8F10371   4.453   4.491   9.447 -0.2417 -0.4106 -0.2866
  102OSM    H8F10372   4.374   4.560   9.483  0.5798  0.9802 -1.0479
  102OSM    H8G10373   4.397   4.397   9.425 -0.3163  0.1283 -2.5693
  102OSM    C9F10374   4.514   4.546   9.318  0.1681  0.4750 -0.2708
  102OSM    H9F10375   4.502   4.654   9.303 -1.8836  0.2432 -0.5244
  102OSM   C10F10376   4.564   4.463   9.221  0.1342  0.0509  0.1439
  102OSM   H10F10377   4.602   4.499   9.125 -1.9804 -0.2798 -0.8711
  102OSM   C11F10378   4.565   4.308   9.220 -0.7136  0.2085 -0.0033
  102OSM   H11F10379   4.602   4.271   9.318  0.2336  0.7876 -0.1336
  102OSM   H11G10380   4.644   4.276   9.150 -0.1472  0.8523  0.3289
  102OSM   C12F10381   4.427   4.255   9.184  0.2239 -0.5126 -0.5643
  102OSM   H12F10382   4.385   4.290   9.088  1.4590 -1.1589 -1.3606
  102OSM   H12G10383   4.347   4.273   9.259 -2.3224 -0.1928 -3.1966
  102OSM   C13F10384   4.419   4.101   9.173  0.0998 -0.0331  0.4876
  102OSM   H13F10385   4.321   4.063   9.209  0.0223  0.8959  1.3158
  102OSM   H13G10386   4.492   4.058   9.245 -1.9944 -0.1407  2.6775
  102OSM   C14F10387   4.436   4.052   9.032 -0.0886 -0.0227  0.3919
  102OSM   H14F10388   4.533   4.088   8.992 -0.4426  1.4274  0.7913
  102OSM   H14G10389   4.347   4.080   8.971  0.1117 -2.1927 -1.0199
  102OSM   C15F10390   4.446   3.896   9.030 -0.1584 -0.3031 -0.7312
  102OSM   H15F10391   4.356   3.854   9.080  0.2327  1.1630  1.3396
  102OSM   H15G10392   4.540   3.881   9.086  0.2110  1.6080 -0.7566
  102OSM   C16F10393   4.436   3.825   8.894 -0.5818  0.1058  0.3171
  102OSM   H16F10394   4.526   3.857   8.838 -0.3638 -0.8420  0.1030
  102OSM   H16G10395   4.342   3.855   8.844 -1.7632 -3.4409  0.1397
  102OSM   C17F10396   4.428   3.672   8.904  0.0028 -0.0204  0.2976
  102OSM   H17F10397   4.331   3.647   8.952  0.5473 -1.3778  0.7502
  102OSM   H17G10398   4.513   3.635   8.965  0.4217 -1.8907 -1.3053
  102OSM   C18F10399   4.439   3.603   8.766  0.7412 -0.2470  0.2577
  102OSM   H18F10400   4.424   3.684   8.691 -0.4421 -1.3025 -0.6853
  102OSM   H18G10401   4.365   3.521   8.762  0.4399  0.0632 -1.7054
  102OSM   H18H10402   4.536   3.549   8.759 -0.6181 -3.0030  1.4733
  103OSM      N10403   0.032   4.863  10.857 -1.3515 -0.4194  1.0461
  103OSM    C1510404  -0.087   4.875  10.778 -0.7931  0.0463  0.6048
  103OSM   H15A10405  -0.070   4.923  10.683  0.4655 -0.8200  0.3557
  103OSM   H15B10406  -0.155   4.937  10.834 -0.0520  0.0696  1.5149
  103OSM   H15C10407  -0.134   4.780  10.755  0.1905 -0.2145 -0.3845
  103OSM    C1410408   0.059   4.994  10.925 -0.3118  0.4290  0.1549
  103OSM   H14A10409  -0.029   5.029  10.976 -0.2670  0.7246  0.0319
  103OSM   H14B10410   0.079   5.076  10.857 -2.9986  1.2621  0.2438
  103OSM   H14C10411   0.133   4.973  11.001  0.6273  0.9667 -0.5851
  103OSM    C1310412   0.017   4.747  10.950 -0.6782 -0.1183 -0.9874
  103OSM   H13A10413   0.029   4.659  10.890 -1.8288 -1.8507  1.1566
  103OSM   H13B10414  -0.083   4.735  10.990 -0.7671  0.8823 -0.8609
  103OSM   H13C10415   0.090   4.745  11.030 -1.9692 -1.3565  0.2289
  103OSM    C1210416   0.158   4.840  10.767 -0.3263 -0.2312  0.2962
  103OSM   H12A10417   0.236   4.821  10.839 -0.4547  1.8380  1.0688
  103OSM   H12B10418   0.189   4.936  10.728 -1.0773  0.8854  2.2527
  103OSM    C1110419   0.142   4.737  10.659  0.2226 -0.4332 -0.2169
  103OSM   H11A10420   0.215   4.763  10.579 -0.1472 -0.9025 -0.7192
  103OSM   H11B10421   0.038   4.744  10.621  0.0175  0.4017  0.4664
  103OSM      P10422   0.301   4.548  10.747 -0.2512  0.0109 -0.3861
  103OSM    O1310423   0.344   4.604  10.872 -0.3054 -0.2934 -0.1696
  103OSM    O1410424   0.290   4.400  10.730  0.3787  0.0190  1.1583
  103OSM    O1110425   0.396   4.602  10.640 -0.3982 -0.5159 -0.3855
  103OSM    O1210426   0.160   4.605  10.704  0.4122  0.0801 -0.0771
  103OSM    C1S10427   0.528   4.552  10.602  0.1437  0.2502 -0.1150
  103OSM    H1S10428   0.514   4.442  10.591 -1.1631  0.4932 -1.2885
  103OSM    H1T10429   0.606   4.577  10.676  1.6413 -2.9294 -0.4455
  103OSM     NF10430   0.692   4.530  10.406  0.3622 -0.2485 -0.2833
  103OSM    HNF10431   0.780   4.576  10.402 -0.3108  1.2823  1.0738
  103OSM    C2S10432   0.573   4.606  10.458 -0.0675  0.6050 -0.2666
  103OSM    H2S10433   0.493   4.594  10.382 -0.1366  0.2847 -0.1428
  103OSM    C3S10434   0.595   4.759  10.458 -0.2922 -0.1455  0.0739
  103OSM    H3S10435   0.685   4.784  10.517 -0.2832  2.3255 -0.8711
  103OSM     O310436   0.489   4.845  10.510  0.3088  0.2588  0.4677
  103OSM    HO310437   0.425   4.778  10.536 -2.0603  1.3917 -1.9409
  103OSM    C4S10438   0.626   4.795  10.315  0.4125  0.0449  0.2651
  103OSM    H4S10439   0.599   4.729  10.231 -1.5631  0.2019  0.7332
  103OSM    C5S10440   0.684   4.909  10.279  0.4832 -0.0777  0.5920
  103OSM    H5S10441   0.710   4.978  10.361 -0.3301  1.1392 -0.1361
  103OSM    C6S10442   0.718   4.962  10.147 -0.3504 -0.2940  0.1419
  103OSM    H6S10443   0.827   4.982  10.141  0.0808 -2.2583  0.8770
  103OSM    H6T10444   0.663   5.057  10.127  1.5095  0.7114 -0.4885
  103OSM    C7S10445   0.686   4.866  10.029  0.0637 -0.4677 -0.3887
  103OSM    H7S10446   0.578   4.865  10.005 -0.5078 -0.5665  1.8878
  103OSM    H7T10447   0.726   4.766  10.058 -0.5202 -0.4617  0.4974
  103OSM    C8S10448   0.757   4.908   9.894 -0.5569 -0.3463 -0.3377
  103OSM    H8S10449   0.864   4.937   9.904 -1.2059  2.4064 -0.6602
  103OSM    H8T10450   0.724   5.009   9.862 -0.6492 -0.3173 -0.1549
  103OSM    C9S10451   0.741   4.805   9.781 -0.6777 -0.0011 -0.2102
  103OSM    H9S10452   0.633   4.779   9.772 -0.8943  1.1178 -1.0428
  103OSM    H9T10453   0.796   4.710   9.799 -0.4291  0.4682  1.7079
  103OSM   C10S10454   0.791   4.862   9.646 -0.1333  0.6415 -0.0206
  103OSM   H10S10455   0.754   4.966   9.633 -0.6307  0.3830 -0.7258
  103OSM   H10T10456   0.736   4.812   9.564  1.2602  0.0980 -0.6663
  103OSM   C11S10457   0.939   4.847   9.611  0.4629 -0.2633  0.2082
  103OSM   H11S10458   0.958   4.747   9.568  1.2418  0.1620 -0.4714
  103OSM   H11T10459   1.003   4.851   9.702  3.1568  1.9069 -1.5963
  103OSM   C12S10460   0.978   4.963   9.511  0.0036 -0.3108 -0.6430
  103OSM   H12S10461   1.089   4.958   9.501  0.0314  0.5014 -0.8146
  103OSM   H12T10462   0.964   5.052   9.575 -1.7601 -0.8123 -0.2756
  103OSM   C13S10463   0.899   4.985   9.384 -0.5366  0.6577  0.4801
  103OSM   H13S10464   0.931   5.081   9.339 -0.8434 -0.7912 -3.2465
  103OSM   H13T10465   0.795   5.000   9.417 -1.5090  0.3555 -2.1757
  103OSM   C14S10466   0.923   4.868   9.284 -0.6567 -0.5062  0.7234
  103OSM   H14S10467   0.880   4.777   9.333 -0.4732  0.0086  1.8710
  103OSM   H14T10468   1.031   4.843   9.280 -0.8843 -1.3973 -1.7235
  103OSM   C15S10469   0.865   4.887   9.143 -0.3260  0.0995  0.0368
  103OSM   H15S10470   0.768   4.929   9.178 -1.2956 -1.1146 -1.1068
  103OSM   H15T10471   0.841   4.795   9.085  0.8220  1.1962 -2.3170
  103OSM   C16S10472   0.929   4.997   9.056 -0.0922 -0.3368  0.1020
  103OSM   H16S10473   1.020   4.961   9.005 -0.5245 -1.7503  0.2954
  103OSM   H16T10474   0.965   5.079   9.122  0.7803 -0.7265  0.1232
  103OSM   C17S10475   0.835   5.060   8.950  0.6387 -0.1745  0.4502
  103OSM   H17S10476   0.892   5.140   8.898  1.6849 -1.2289 -0.0887
  103OSM   H17T10477   0.746   5.114   8.988  0.0707 -0.9554  0.2614
  103OSM   C18S10478   0.796   4.964   8.839  0.1780 -0.1355 -0.5785
  103OSM   H18S10479   0.734   5.012   8.760 -1.1579 -1.2162 -0.2370
  103OSM   H18T10480   0.728   4.886   8.881  0.6345 -0.1017  0.2381
  103OSM   H18U10481   0.885   4.912   8.798 -0.1074 -1.9133  0.8951
  103OSM    C1F10482   0.678   4.400  10.371 -0.8879  0.2864 -0.1049
  103OSM     OF10483   0.566   4.353  10.377  0.3515 -0.1083 -0.3980
  103OSM    C2F10484   0.801   4.310  10.350 -0.4892  0.6834 -0.1090
  103OSM    H2F10485   0.823   4.255  10.444 -3.0896 -1.0260 -0.4123
  103OSM    H2G10486   0.892   4.370  10.328 -0.5217  0.4263 -0.9885
  103OSM    C3F10487   0.767   4.203  10.240  0.0580  0.1808 -0.2379
  103OSM    H3F10488   0.689   4.138  10.287  0.3542 -1.0418 -1.3816
  103OSM    H3G10489   0.846   4.128  10.218  0.1315 -0.1413  1.0486
  103OSM    C4F10490   0.716   4.255  10.104 -0.0065 -0.3564 -0.1386
  103OSM    H4F10491   0.632   4.327  10.107 -0.4808 -0.7770 -1.8470
  103OSM    H4G10492   0.681   4.165  10.049  0.0161  0.2229 -1.1244
  103OSM    C5F10493   0.823   4.323  10.012  0.3896  0.5366 -0.2865
  103OSM    H5F10494   0.914   4.261   9.999  0.0102  0.0524 -0.6684
  103OSM    H5G10495   0.849   4.419  10.063  0.8173 -0.8470  2.2789
  103OSM    C6F10496   0.768   4.344   9.871 -0.3701 -0.6565 -0.7005
  103OSM    H6F10497   0.672   4.401   9.868  0.8683  1.7051  1.0562
  103OSM    H6G10498   0.735   4.243   9.839 -2.8554  0.0311 -0.5258
  103OSM    C7F10499   0.857   4.407   9.763  0.0016  0.5056 -0.3322
  103OSM    H7F10500   0.936   4.336   9.729 -1.2623 -2.1351  1.8594
  103OSM    H7G10501   0.895   4.504   9.801 -0.8383  0.4600  0.6698
  103OSM    C8F10502   0.788   4.436   9.630 -0.3323  0.3585 -0.0546
  103OSM    H8F10503   0.846   4.518   9.583  0.5106  0.2889  0.8367
  103OSM    H8G10504   0.686   4.470   9.658 -0.3414 -0.4161  0.9085
  103OSM    C9F10505   0.781   4.318   9.534 -0.7507 -0.3742 -0.5191
  103OSM    H9F10506   0.766   4.216   9.573  2.4955 -0.5740  0.5243
  103OSM   C10F10507   0.775   4.339   9.400 -0.2358 -0.6973  0.0219
  103OSM   H10F10508   0.759   4.251   9.335 -1.2588 -0.8016  0.3834
  103OSM   C11F10509   0.762   4.474   9.325  0.8591 -0.3929 -0.1401
  103OSM   H11F10510   0.850   4.487   9.259  1.5512 -2.3173  0.3436
  103OSM   H11G10511   0.776   4.557   9.399 -3.5860  1.7515 -1.3434
  103OSM   C12F10512   0.629   4.488   9.244  0.4418  0.1578 -0.2040
  103OSM   H12F10513   0.622   4.589   9.199 -0.1423 -0.2853 -1.1231
  103OSM   H12G10514   0.548   4.486   9.320  1.2093 -0.8178  0.6135
  103OSM   C13F10515   0.606   4.383   9.145 -0.3218  0.5244  0.3848
  103OSM   H13F10516   0.578   4.284   9.186  0.1838  0.1371 -0.1795
  103OSM   H13G10517   0.526   4.412   9.074 -0.5404 -0.2205  0.3185
  103OSM   C14F10518   0.724   4.357   9.045 -0.3130  0.5598  0.6643
  103OSM   H14F10519   0.701   4.270   8.981  0.5020  0.2582  0.7704
  103OSM   H14G10520   0.809   4.322   9.108 -0.5372 -0.7584  0.2510
  103OSM   C15F10521   0.755   4.489   8.976  0.1168  0.3976  0.3107
  103OSM   H15F10522   0.823   4.551   9.039  1.9111  1.8335 -2.7935
  103OSM   H15G10523   0.668   4.553   8.950  0.0234  0.2498  0.2616
  103OSM   C16F10524   0.843   4.460   8.846 -0.1767 -0.1940 -0.2419
  103OSM   H16F10525   0.933   4.415   8.893  1.4828  2.7101 -0.4138
  103OSM   H16G10526   0.889   4.551   8.802 -0.8754 -0.0589 -0.7118
  103OSM   C17F10527   0.765   4.379   8.740  0.1307  0.2803 -0.2647
  103OSM   H17F10528   0.729   4.281   8.776 -0.5082  0.1719 -1.1688
  103OSM   H17G10529   0.838   4.364   8.657  1.9924  0.6277  1.2413
  103OSM   C18F10530   0.642   4.448   8.691 -0.1725 -0.2032  0.3532
  103OSM   H18F10531   0.572   4.460   8.776  0.8949 -0.8848  1.3609
  103OSM   H18G10532   0.604   4.400   8.599  1.1211  0.7693 -0.7272
  103OSM   H18H10533   0.662   4.553   8.658 -1.8510  0.0529  0.0595
  104OSM      N10534   4.739   0.510  11.075  0.5385  0.5159 -0.2744
  104OSM    C1510535   4.642   0.604  11.130 -0.4405 -0.1411  1.5914
  104OSM   H15A10536   4.545   0.593  11.085  0.7601 -3.3379 -0.5616
  104OSM   H15B10537   4.673   0.707  11.113 -0.8567 -0.2599 -0.0721
  104OSM   H15C10538   4.621   0.589  11.235 -1.2512  0.9241  1.6053
  104OSM    C1410539   4.876   0.541  11.130 -0.1793 -0.6572 -0.4493
  104OSM   H14A10540   4.867   0.529  11.236  2.0785  1.0410  0.0189
  104OSM   H14B10541   4.906   0.643  11.111  1.8268 -0.5743  2.5515
  104OSM   H14C10542   4.952   0.471  11.096  1.7865  0.6148  1.0897
  104OSM    C1310543   4.708   0.361  11.113 -0.0233 -0.8361  0.7330
  104OSM   H13A10544   4.780   0.282  11.095 -0.2194 -0.3933 -2.4222
  104OSM   H13B10545   4.616   0.336  11.063  0.1599  0.1768 -0.1355
  104OSM   H13C10546   4.671   0.359  11.215 -0.0431  0.5549  0.7667
  104OSM    C1210547   4.731   0.523  10.925 -0.2505 -0.2023  0.6643
  104OSM   H12A10548   4.806   0.458  10.884 -2.2814 -0.8910 -2.2522
  104OSM   H12B10549   4.751   0.623  10.889  0.2253 -0.1861  0.9668
  104OSM    C1110550   4.597   0.478  10.856  0.5178 -0.2981 -0.1617
  104OSM   H11A10551   4.583   0.368  10.868 -2.4179  0.1506  1.4263
  104OSM   H11B10552   4.612   0.508  10.750 -0.7362  1.3584  0.0769
  104OSM      P10553   4.448   0.688  10.843 -0.2193  0.5806  0.1672
  104OSM    O1310554   4.320   0.725  10.902 -0.0836  0.3433 -1.1700
  104OSM    O1410555   4.558   0.782  10.863 -0.1665  0.1957  0.0304
  104OSM    O1110556   4.435   0.662  10.688 -0.2168 -1.2187 -0.4783
  104OSM    O1210557   4.480   0.543  10.907  0.1274  0.0832  0.1922
  104OSM    C1S10558   4.305   0.648  10.628 -0.6096  0.7658  0.0632
  104OSM    H1S10559   4.257   0.747  10.612  0.1775  1.0569 -0.5764
  104OSM    H1T10560   4.241   0.582  10.689 -0.1489  0.5102  0.2767
  104OSM     NF10561   4.183   0.591  10.420  1.1399  0.3121  0.2775
  104OSM    HNF10562   4.112   0.521  10.425  1.3011  0.2525  3.4618
  104OSM    C2S10563   4.313   0.584  10.483 -0.1725  0.1529  0.4317
  104OSM    H2S10564   4.388   0.645  10.428  0.4691 -1.4736 -0.5733
  104OSM    C3S10565   4.367   0.434  10.488 -0.1318 -0.9270 -0.6581
  104OSM    H3S10566   4.291   0.378  10.546 -2.3217 -0.0463 -2.5060
  104OSM     O310567   4.482   0.426  10.560  0.1536 -0.4468 -0.1622
  104OSM    HO310568   4.488   0.512  10.604  1.9660 -0.9794  0.7530
  104OSM    C4S10569   4.385   0.368  10.355  0.7636  0.2045  0.1942
  104OSM    H4S10570   4.295   0.315  10.319 -0.6706  3.7481 -1.9678
  104OSM    C5S10571   4.496   0.369  10.280  0.9291 -0.3702  0.0604
  104OSM    H5S10572   4.576   0.435  10.317 -1.9017  1.8481  2.8009
  104OSM    C6S10573   4.503   0.295  10.149  0.3387 -0.2007  0.2954
  104OSM    H6S10574   4.462   0.195  10.173 -0.6436  0.6964  2.6751
  104OSM    H6T10575   4.607   0.283  10.111 -0.9152 -2.3001 -2.9023
  104OSM    C7S10576   4.411   0.349  10.037  0.2178  0.5905 -0.8035
  104OSM    H7S10577   4.424   0.460  10.035 -0.5749  0.7746  1.6053
  104OSM    H7T10578   4.307   0.319  10.065  0.8986 -3.1067 -1.7593
  104OSM    C8S10579   4.422   0.282   9.897  0.1485 -0.1198  0.3413
  104OSM    H8S10580   4.525   0.289   9.854  0.5128  0.9210  1.3316
  104OSM    H8T10581   4.349   0.334   9.831  1.3464  1.2339  0.0279
  104OSM    C9S10582   4.364   0.141   9.900  0.5314  0.3698  0.6462
  104OSM    H9S10583   4.255   0.159   9.911  0.2548  0.9776 -2.2619
  104OSM    H9T10584   4.416   0.087   9.983  0.8800  0.3493  0.4150
  104OSM   C10S10585   4.372   0.045   9.776 -0.7608  0.4107 -0.8694
  104OSM   H10S10586   4.328  -0.055   9.797  2.1120 -0.4395  1.8504
  104OSM   H10T10587   4.480   0.031   9.754 -0.2092  0.7144  1.4276
  104OSM   C11S10588   4.318   0.103   9.645  0.5821  0.8500  0.0014
  104OSM   H11S10589   4.370   0.199   9.626  1.9524  0.2386  0.4692
  104OSM   H11T10590   4.210   0.126   9.660  0.2214  0.9582 -2.4374
  104OSM   C12S10591   4.334   0.005   9.534 -0.5658  0.4819  0.0128
  104OSM   H12S10592   4.279  -0.091   9.543  0.1002 -0.1944 -2.3934
  104OSM   H12T10593   4.442  -0.021   9.537 -0.9158 -1.1267 -0.6565
  104OSM   C13S10594   4.292   0.061   9.396 -0.8573 -0.5098 -0.3734
  104OSM   H13S10595   4.348   0.155   9.376 -0.7854 -0.3923  0.3567
  104OSM   H13T10596   4.183   0.078   9.390 -0.5775  1.7905 -0.0753
  104OSM   C14S10597   4.346  -0.029   9.279 -0.2974  0.2633  0.5104
  104OSM   H14S10598   4.290  -0.124   9.272 -0.8065  0.3831  2.4054
  104OSM   H14T10599   4.450  -0.052   9.308 -0.3715 -1.8498 -0.7123
  104OSM   C15S10600   4.335   0.032   9.139  0.5561 -0.8147 -0.1531
  104OSM   H15S10601   4.383   0.129   9.116 -1.3823  0.2103 -0.1569
  104OSM   H15T10602   4.226   0.057   9.134  0.5833 -0.6057  0.2658
  104OSM   C16S10603   4.370  -0.051   9.022 -1.0056 -0.0211 -0.3573
  104OSM   H16S10604   4.330  -0.010   8.927  0.3159  1.0904 -0.4607
  104OSM   H16T10605   4.329  -0.154   9.031  0.8360 -0.7945 -0.3715
  104OSM   C17S10606   4.522  -0.073   9.020  0.3270 -0.7344 -0.1457
  104OSM   H17S10607   4.548  -0.125   9.115 -1.9007  0.0331  0.9592
  104OSM   H17T10608   4.576   0.022   9.035  1.2876 -1.2569 -0.2127
  104OSM   C18S10609   4.562  -0.154   8.898 -0.0193 -0.4466  0.2048
  104OSM   H18S10610   4.485  -0.144   8.819  0.9440 -0.1415 -0.7068
  104OSM   H18T10611   4.576  -0.260   8.930  0.2090 -0.7895 -0.9969
  104OSM   H18U10612   4.659  -0.126   8.851 -0.1147  0.0782  0.3145
  104OSM    C1F10613   4.133   0.713  10.383 -0.3988  0.2970 -0.1603
  104OSM     OF10614   4.206   0.813  10.385  0.0044  0.8067  0.6369
  104OSM    C2F10615   3.990   0.717  10.355  0.1907 -0.4580 -0.4769
  104OSM    H2F10616   3.952   0.821  10.353 -0.6545 -0.7563 -0.5400
  104OSM    H2G10617   3.940   0.663  10.438  1.9137 -0.1850  0.7900
  104OSM    C3F10618   3.952   0.652  10.221 -0.3356 -0.5198  0.7565
  104OSM    H3F10619   3.849   0.687  10.199 -0.9680 -1.9591  1.3193
  104OSM    H3G10620   3.951   0.543  10.242  2.0758 -0.5853  0.8947
  104OSM    C4F10621   4.054   0.676  10.104 -0.7071  0.8438 -0.4066
  104OSM    H4F10622   4.152   0.632  10.131 -1.4890 -0.2996  0.6121
  104OSM    H4G10623   4.060   0.787  10.095 -1.6133  1.1351  1.9825
  104OSM    C5F10624   3.991   0.619   9.975  0.3532 -0.1708 -0.7386
  104OSM    H5F10625   3.925   0.692   9.924  0.9335  0.3826 -0.6914
  104OSM    H5G10626   3.923   0.538  10.012 -0.0267  0.2065 -0.5924
  104OSM    C6F10627   4.089   0.557   9.869  0.5082 -0.4515  0.0540
  104OSM    H6F10628   4.163   0.502   9.930 -1.4438  1.7681  4.8977
  104OSM    H6G10629   4.154   0.632   9.819 -0.5980 -0.5365 -1.6264
  104OSM    C7F10630   4.001   0.482   9.757 -0.1418 -0.4906  0.0214
  104OSM    H7F10631   3.916   0.428   9.805 -0.9499  1.1134  0.4398
  104OSM    H7G10632   4.065   0.406   9.708  0.4602  0.1685 -0.2296
  104OSM    C8F10633   3.936   0.578   9.647  0.2154  0.2409  0.2704
  104OSM    H8F10634   3.871   0.655   9.695 -0.8486 -0.5222  0.0859
  104OSM    H8G10635   3.860   0.516   9.595  0.0605 -0.8624  1.7313
  104OSM    C9F10636   4.043   0.639   9.560  0.3772  0.3345  0.0753
  104OSM    H9F10637   4.120   0.682   9.625  0.6772 -2.0282  1.3858
  104OSM   C10F10638   4.068   0.628   9.432  0.0805 -0.0815  0.4190
  104OSM   H10F10639   4.159   0.681   9.400  1.1000 -1.1079  1.5071
  104OSM   C11F10640   3.976   0.574   9.328  0.2921  0.6060  0.2558
  104OSM   H11F10641   3.930   0.664   9.281 -1.2570 -1.1285 -1.7844
  104OSM   H11G10642   3.904   0.506   9.379  1.4773  0.7105  2.1384
  104OSM   C12F10643   4.054   0.484   9.226  0.1385 -0.1304 -0.3490
  104OSM   H12F10644   3.980   0.424   9.169 -1.1243 -0.5931  1.6956
  104OSM   H12G10645   4.108   0.407   9.284 -0.9253 -0.9290 -0.4045
  104OSM   C13F10646   4.141   0.561   9.130 -0.6800  0.3453  0.2055
  104OSM   H13F10647   4.213   0.628   9.183  3.2810 -1.6509 -2.2081
  104OSM   H13G10648   4.068   0.619   9.070 -1.3000  0.0817  0.6942
  104OSM   C14F10649   4.221   0.453   9.060 -0.7099  0.7517  0.1310
  104OSM   H14F10650   4.160   0.398   8.986  0.1640 -0.0522 -0.0138
  104OSM   H14G10651   4.255   0.382   9.139  0.2999  1.1209  0.0486
  104OSM   C15F10652   4.341   0.513   8.983 -0.3390  0.1536  0.4815
  104OSM   H15F10653   4.415   0.453   8.926 -1.0662  0.8364 -1.2248
  104OSM   H15G10654   4.405   0.558   9.062 -0.7197  1.0065  0.3081
  104OSM   C16F10655   4.286   0.618   8.876  0.0489  0.5731 -0.7953
  104OSM   H16F10656   4.246   0.706   8.931  0.7453  0.9223 -0.8348
  104OSM   H16G10657   4.192   0.577   8.835 -1.0947  1.7429  0.5374
  104OSM   C17F10658   4.393   0.666   8.783  1.0382 -0.6987  0.4288
  104OSM   H17F10659   4.382   0.595   8.699  1.8038  0.3038 -0.5521
  104OSM   H17G10660   4.493   0.658   8.832  0.7266 -2.9038  0.8006
  104OSM   C18F10661   4.363   0.802   8.710 -0.3030  0.2285 -0.4173
  104OSM   H18F10662   4.439   0.823   8.631  0.0318 -1.4146 -0.5695
  104OSM   H18G10663   4.366   0.889   8.780  0.5086  1.5247 -1.9898
  104OSM   H18H10664   4.260   0.796   8.668 -1.3725  0.5155  1.9807
  105OSM      N10665   4.550   6.251  10.987  0.1573 -0.2627 -0.4733
  105OSM    C1510666   4.488   6.306  10.864 -0.0545 -0.6447 -0.8974
  105OSM   H15A10667   4.403   6.251  10.827 -0.0864  0.0613 -1.9270
  105OSM   H15B10668   4.559   6.314  10.782  0.7344 -1.6339 -0.3358
  105OSM   H15C10669   4.452   6.407  10.881  0.7468 -0.4728 -0.1626
  105OSM    C1410670   4.438   6.219  11.086 -0.4922 -0.5822 -0.1420
  105OSM   H14A10671   4.389   6.308  11.121 -0.3596 -1.1289  1.4856
  105OSM   H14B10672   4.471   6.198  11.186 -0.1626  0.9465  0.0894
  105OSM   H14C10673   4.369   6.145  11.047  0.8589 -0.0571 -4.0402
  105OSM    C1310674   4.614   6.127  10.957 -0.2151  0.9439  0.1042
  105OSM   H13A10675   4.638   6.080  11.051 -2.0312 -0.1380  0.0765
  105OSM   H13B10676   4.700   6.134  10.892 -0.7616 -0.7204 -0.8455
  105OSM   H13C10677   4.549   6.057  10.908  0.1064 -0.4958  1.6617
  105OSM    C1210678   4.650   6.346  11.057 -0.5687  0.2981 -0.3504
  105OSM   H12A10679   4.674   6.302  11.152 -1.4258  0.7586  0.0914
  105OSM   H12B10680   4.586   6.428  11.087  0.4217  0.0547  2.7474
  105OSM    C1110681   4.767   6.388  10.979  0.3364 -0.0852  0.6666
  105OSM   H11A10682   4.827   6.465  11.033  0.7314 -0.3109  0.5509
  105OSM   H11B10683   4.724   6.448  10.896  1.5483  3.7517  2.5332
  105OSM      P10684   4.957   6.306  10.827 -0.1016  0.3828  0.3968
  105OSM    O1310685   5.039   6.413  10.872 -0.3390 -0.0788 -0.3363
  105OSM    O1410686   5.018   6.172  10.788 -0.6495 -0.1428 -0.1363
  105OSM    O1110687   4.879   6.353  10.698 -0.0969  0.2138 -0.1881
  105OSM    O1210688   4.851   6.280  10.941 -0.1238 -0.1622 -0.0359
  105OSM    C1S10689   4.865   6.481  10.650  0.2050  0.3009 -0.4748
  105OSM    H1S10690   4.966   6.524  10.632 -0.2802  2.2719  1.2469
  105OSM    H1T10691   4.799   6.540  10.716 -1.4562  0.0044 -1.7871
  105OSM     NF10692   4.789   6.621  10.467  0.5932 -0.0711 -0.5429
  105OSM    HNF10693   4.710   6.677  10.488  0.6608  0.6682 -2.0869
  105OSM    C2S10694   4.788   6.477  10.512  0.1912  0.1102  0.1287
  105OSM    H2S10695   4.853   6.413  10.449 -1.1061  0.7554 -1.9693
  105OSM    C3S10696   4.647   6.417  10.514  0.0765 -0.3484 -0.0362
  105OSM    H3S10697   4.589   6.484  10.580 -0.3862 -2.0628  1.3675
  105OSM     O310698   4.628   6.286  10.576 -0.2897 -0.4332 -0.2918
  105OSM    HO310699   4.710   6.264  10.621 -0.1464  3.1457  1.5492
  105OSM    C4S10700   4.588   6.424  10.372  0.4380 -1.1114  0.1297
  105OSM    H4S10701   4.504   6.494  10.360  2.2092  1.6296  2.3101
  105OSM    C5S10702   4.618   6.347  10.266  0.9393 -0.1727  0.1452
  105OSM    H5S10703   4.700   6.275  10.281  1.3740  0.1019 -0.8149
  105OSM    C6S10704   4.557   6.374  10.125  0.3863  0.2172 -0.1038
  105OSM    H6S10705   4.517   6.279  10.084 -2.5547 -0.1293  3.0900
  105OSM    H6T10706   4.644   6.416  10.069  3.0335 -2.8941  1.3669
  105OSM    C7S10707   4.429   6.467  10.105 -0.1296  0.0046 -0.1548
  105OSM    H7S10708   4.440   6.573  10.138 -1.2112 -0.1806  0.8322
  105OSM    H7T10709   4.344   6.426  10.162 -0.2571  0.4301 -0.0340
  105OSM    C8S10710   4.375   6.458   9.964  0.6616 -0.4046 -0.7506
  105OSM    H8S10711   4.293   6.531   9.950 -0.3367 -1.2935  0.2187
  105OSM    H8T10712   4.323   6.359   9.962  2.0069 -1.2810  1.8895
  105OSM    C9S10713   4.472   6.477   9.847 -1.0417  0.1034 -0.6174
  105OSM    H9S10714   4.560   6.412   9.862  0.1416  1.1282 -2.6741
  105OSM    H9T10715   4.499   6.584   9.851 -0.2229 -0.1346  0.3327
  105OSM   C10S10716   4.422   6.430   9.711 -0.4925 -0.6872  0.6388
  105OSM   H10S10717   4.334   6.492   9.685 -1.4667 -2.4180 -0.3415
  105OSM   H10T10718   4.395   6.326   9.736 -2.2765  0.1749  2.6560
  105OSM   C11S10719   4.526   6.427   9.594 -0.0759 -0.0098 -0.5900
  105OSM   H11S10720   4.597   6.344   9.615 -0.2946  0.2656  1.5445
  105OSM   H11T10721   4.582   6.523   9.588 -1.2748  0.7426 -0.0857
  105OSM   C12S10722   4.457   6.399   9.462 -0.1524  0.8393 -0.0026
  105OSM   H12S10723   4.365   6.456   9.437 -0.4539 -0.4488 -2.1054
  105OSM   H12T10724   4.422   6.294   9.473 -0.4565  0.5427 -2.9540
  105OSM   C13S10725   4.550   6.397   9.344  0.6747 -0.1553 -0.8062
  105OSM   H13S10726   4.634   6.331   9.377  1.9993  2.1115  0.6442
  105OSM   H13T10727   4.605   6.492   9.327  0.0680  0.4586  0.5031
  105OSM   C14S10728   4.496   6.353   9.211  0.7446 -0.0796 -1.1056
  105OSM   H14S10729   4.452   6.443   9.162  1.2285  0.5332 -0.4371
  105OSM   H14T10730   4.425   6.269   9.223  2.5531 -1.2623  2.6712
  105OSM   C15S10731   4.601   6.294   9.115  0.0149  0.2841  0.7352
  105OSM   H15S10732   4.647   6.206   9.165  0.1733  0.1478  0.3515
  105OSM   H15T10733   4.683   6.367   9.103  0.5017 -0.5234 -1.0035
  105OSM   C16S10734   4.542   6.251   8.980 -0.0256 -0.2294  0.1350
  105OSM   H16S10735   4.505   6.345   8.933  3.2532  0.7856 -0.6880
  105OSM   H16T10736   4.465   6.174   9.000  1.7541 -1.8387  1.1199
  105OSM   C17S10737   4.641   6.185   8.884  0.3279 -0.2063  0.0591
  105OSM   H17S10738   4.691   6.095   8.927 -1.4307 -1.2033  0.1191
  105OSM   H17T10739   4.721   6.260   8.863  2.0533 -1.9952 -0.0852
  105OSM   C18S10740   4.585   6.128   8.752 -0.1151  0.8690  0.5941
  105OSM   H18S10741   4.557   6.210   8.682  2.4700  0.4566 -1.0797
  105OSM   H18T10742   4.498   6.063   8.776 -0.4455  1.0389 -0.1019
  105OSM   H18U10743   4.664   6.071   8.700 -0.1070  0.5494  0.9544
  105OSM    C1F10744   4.900   6.676  10.406 -0.0681  0.9341 -0.4474
  105OSM     OF10745   4.997   6.608  10.367  0.1769 -0.1231 -0.1611
  105OSM    C2F10746   4.895   6.827  10.398 -0.3123  0.1483 -0.4655
  105OSM    H2F10747   4.993   6.865  10.363  1.4067 -1.1719  2.5012
  105OSM    H2G10748   4.861   6.877  10.491  0.0343  1.7977 -1.1975
  105OSM    C3F10749   4.792   6.868  10.285 -0.0494 -0.2485 -0.2722
  105OSM    H3F10750   4.809   6.977  10.274  1.9008 -0.6471 -1.7997
  105OSM    H3G10751   4.689   6.849  10.323 -0.2393  0.7325 -0.2674
  105OSM    C4F10752   4.813   6.798  10.150  0.3777  0.2637 -0.1177
  105OSM    H4F10753   4.733   6.838  10.084 -1.4095 -0.3258  1.5785
  105OSM    H4G10754   4.781   6.692  10.150  0.0757  0.3027 -2.4783
  105OSM    C5F10755   4.942   6.833  10.080  0.2493  0.1069 -0.1442
  105OSM    H5F10756   5.035   6.794  10.126 -0.5254 -0.1071  1.3246
  105OSM    H5G10757   4.952   6.942  10.099 -4.0426  0.7193 -0.3853
  105OSM    C6F10758   4.920   6.811   9.924  0.1393  0.1379 -0.1225
  105OSM    H6F10759   5.014   6.847   9.877  0.6614 -1.1091 -0.0550
  105OSM    H6G10760   4.842   6.882   9.889 -0.8646 -0.7475  0.2637
  105OSM    C7F10761   4.892   6.668   9.873 -0.3535 -0.4020 -0.2395
  105OSM    H7F10762   4.805   6.619   9.922  0.9794 -2.2276  0.4130
  105OSM    H7G10763   4.989   6.622   9.901  0.0623  0.1525 -0.7442
  105OSM    C8F10764   4.860   6.661   9.722 -0.3412 -0.3492 -0.7127
  105OSM    H8F10765   4.767   6.721   9.711  1.3041  2.7743  0.9702
  105OSM    H8G10766   4.830   6.555   9.705 -0.2844 -0.2552 -1.3991
  105OSM    C9F10767   4.971   6.701   9.633  0.1128  0.8228 -0.2651
  105OSM    H9F10768   5.069   6.692   9.683  0.0069  0.9840 -0.0257
  105OSM   C10F10769   4.958   6.752   9.511  0.6559 -0.0585  0.4077
  105OSM   H10F10770   5.050   6.777   9.456  0.1291  1.1455  0.0425
  105OSM   C11F10771   4.822   6.777   9.446  0.4395 -0.0858 -0.4501
  105OSM   H11F10772   4.779   6.867   9.494 -1.7885  1.4038 -4.6972
  105OSM   H11G10773   4.748   6.694   9.452  0.3692  0.0459  0.6817
  105OSM   C12F10774   4.825   6.793   9.291 -0.4888  0.0790  0.8122
  105OSM   H12F10775   4.887   6.880   9.264  0.6925 -0.1506  2.6241
  105OSM   H12G10776   4.723   6.813   9.251 -0.8580 -1.1098  1.1131
  105OSM   C13F10777   4.880   6.669   9.222  0.2136  0.4999 -0.4969
  105OSM   H13F10778   4.814   6.582   9.241  2.1522 -0.7651  0.8258
  105OSM   H13G10779   4.974   6.635   9.271 -1.0547 -2.2324  0.2547
  105OSM   C14F10780   4.920   6.699   9.078  0.0156 -0.4133 -0.0426
  105OSM   H14F10781   5.008   6.767   9.073 -0.6932  0.4450 -1.7181
  105OSM   H14G10782   4.838   6.759   9.033 -0.1862  0.4995  1.4620
  105OSM   C15F10783   4.958   6.569   9.006 -0.1284 -0.2573 -0.2484
  105OSM   H15F10784   4.864   6.509   9.003  0.1751 -0.9256  1.9030
  105OSM   H15G10785   5.026   6.514   9.074  1.3620 -0.1665 -1.6198
  105OSM   C16F10786   5.022   6.592   8.866 -0.4601 -0.1562  0.2024
  105OSM   H16F10787   5.114   6.654   8.868 -0.4034 -0.1369 -1.4864
  105OSM   H16G10788   4.951   6.640   8.796 -2.5925 -2.1709  0.8475
  105OSM   C17F10789   5.051   6.455   8.795  0.1803 -0.6886 -0.8845
  105OSM   H17F10790   4.962   6.390   8.803 -1.4528  1.6474  1.4586
  105OSM   H17G10791   5.131   6.398   8.846  0.6505 -0.6328 -1.5416
  105OSM   C18F10792   5.095   6.481   8.654 -0.3222 -0.0769  0.6028
  105OSM   H18F10793   5.116   6.384   8.604 -1.1944 -0.9138  1.8021
  105OSM   H18G10794   5.187   6.544   8.649 -1.2208  1.1893 -2.8619
  105OSM   H18H10795   5.019   6.529   8.589 -1.6834 -1.3218  1.2348
  106OSM      N10796   4.239   4.490  10.587 -0.4632 -0.0132 -0.3938
  106OSM    C1510797   4.306   4.432  10.470 -0.4463  0.9155  0.6482
  106OSM   H15A10798   4.242   4.361  10.420  1.7095  0.1456 -1.1616
  106OSM   H15B10799   4.391   4.381  10.511 -1.1159 -0.6442  0.1750
  106OSM   H15C10800   4.324   4.505  10.393 -1.1559  0.0610 -0.3587
  106OSM    C1410801   4.323   4.609  10.624  0.1951  0.2758 -0.1853
  106OSM   H14A10802   4.265   4.678  10.683 -1.7175 -0.6354 -0.9171
  106OSM   H14B10803   4.375   4.660  10.545 -0.5921  0.4884 -0.5758
  106OSM   H14C10804   4.407   4.576  10.683 -0.8857 -0.9311  0.7398
  106OSM    C1310805   4.101   4.543  10.558  0.5415 -0.3772  0.0958
  106OSM   H13A10806   4.074   4.614  10.635  4.0931  0.8039  0.4427
  106OSM   H13B10807   4.031   4.461  10.550 -0.3937  0.0821  2.5893
  106OSM   H13C10808   4.092   4.605  10.469 -2.2768 -0.5534  0.1426
  106OSM    C1210809   4.227   4.387  10.699  0.2811  0.0752  0.0638
  106OSM   H12A10810   4.152   4.312  10.677 -1.1592  0.8667  1.9454
  106OSM   H12B10811   4.184   4.444  10.781  0.1258 -0.2795  0.2333
  106OSM    C1110812   4.344   4.297  10.751  0.1130 -0.4064  0.0484
  106OSM   H11A10813   4.306   4.217  10.817  1.7185 -1.8281 -0.6758
  106OSM   H11B10814   4.406   4.358  10.821 -1.6512 -0.1708  1.4798
  106OSM      P10815   4.439   4.077  10.642  0.3599 -0.1310  0.2468
  106OSM    O1310816   4.539   4.038  10.535  0.1895  0.0835 -0.5046
  106OSM    O1410817   4.472   4.042  10.780  0.3770  0.2413  0.3700
  106OSM    O1110818   4.304   4.008  10.608 -0.0369 -0.4536  0.6919
  106OSM    O1210819   4.423   4.238  10.642  0.7201  0.7804  0.0208
  106OSM    C1S10820   4.193   4.076  10.533  0.5109 -0.5441  0.2089
  106OSM    H1S10821   4.233   4.176  10.507  1.3239 -0.6195  1.1218
  106OSM    H1T10822   4.104   4.097  10.596 -0.3646 -0.6715 -0.9448
  106OSM     NF10823   4.069   4.096  10.322  0.3902 -0.1449  0.8627
  106OSM    HNF10824   3.969   4.096  10.328  0.3375 -2.6249  1.0103
  106OSM    C2S10825   4.139   4.004  10.409  0.1548 -0.0208 -1.0308
  106OSM    H2S10826   4.216   3.965  10.339 -0.4635  0.7402 -2.1620
  106OSM    C3S10827   4.058   3.884  10.455  0.2004 -0.2328 -0.2143
  106OSM    H3S10828   3.967   3.905  10.515  0.5580 -0.1971  0.3324
  106OSM     O310829   4.132   3.799  10.545  0.3184  0.0352  0.0647
  106OSM    HO310830   4.219   3.840  10.546  0.4351  0.0984 -3.3975
  106OSM    C4S10831   4.016   3.809  10.334  0.5463  0.0526  0.9817
  106OSM    H4S10832   3.914   3.836  10.301  1.1334 -0.0789 -1.1074
  106OSM    C5S10833   4.089   3.718  10.267 -0.8505  0.4321 -0.1121
  106OSM    H5S10834   4.194   3.694  10.289 -0.4572  1.7829 -0.3872
  106OSM    C6S10835   4.047   3.650  10.141  0.8770  0.4484 -0.1520
  106OSM    H6S10836   4.010   3.549  10.168 -0.7016  0.3425 -2.4555
  106OSM    H6T10837   4.133   3.648  10.071  1.1393  0.6132  0.1588
  106OSM    C7S10838   3.929   3.708  10.053  0.1430  1.0256 -0.6846
  106OSM    H7S10839   3.847   3.719  10.126  0.9480 -1.3300  0.6881
  106OSM    H7T10840   3.902   3.635   9.974  1.4900  0.2033 -0.4332
  106OSM    C8S10841   3.953   3.845   9.991 -0.2059  0.8644 -0.1000
  106OSM    H8S10842   4.013   3.915  10.054  0.0601  0.1833  0.4053
  106OSM    H8T10843   3.851   3.882   9.968 -0.0061  1.2192 -0.4333
  106OSM    C9S10844   4.027   3.831   9.856 -0.0395 -0.5563  0.5280
  106OSM    H9S10845   3.969   3.785   9.773  0.7590 -0.8502  0.1192
  106OSM    H9T10846   4.124   3.778   9.866 -0.8648 -3.0015 -2.8436
  106OSM   C10S10847   4.050   3.972   9.787 -0.4881  0.8057  0.3609
  106OSM   H10S10848   4.141   4.013   9.836  0.0092  0.5788 -0.3516
  106OSM   H10T10849   3.966   4.044   9.795 -2.1885 -1.2342  2.1861
  106OSM   C11S10850   4.079   3.969   9.637  0.8064 -0.1704 -0.0942
  106OSM   H11S10851   3.990   3.941   9.576  0.9684 -0.9285  0.0033
  106OSM   H11T10852   4.146   3.884   9.610  1.1237  0.7542 -2.4939
  106OSM   C12S10853   4.137   4.095   9.579  0.0207 -0.1661  0.1306
  106OSM   H12S10854   4.240   4.089   9.621 -0.6882 -0.2496  1.9431
  106OSM   H12T10855   4.087   4.184   9.623 -0.5637 -1.0005  1.2006
  106OSM   C13S10856   4.139   4.105   9.432 -0.1677 -0.3263  0.2186
  106OSM   H13S10857   4.162   4.011   9.377 -0.2609 -0.6445  0.7084
  106OSM   H13T10858   4.216   4.179   9.402 -2.4929  1.1681 -2.6489
  106OSM   C14S10859   4.017   4.179   9.370 -0.3612  0.6434 -0.4206
  106OSM   H14S10860   3.998   4.270   9.430 -0.1869  1.2043 -1.2095
  106OSM   H14T10861   3.933   4.108   9.382  2.7521 -3.0674  1.9874
  106OSM   C15S10862   4.036   4.218   9.223 -0.6622  0.3589 -0.1349
  106OSM   H15S10863   4.137   4.263   9.214  0.2743 -1.1442  2.0941
  106OSM   H15T10864   3.958   4.294   9.202  0.8669  1.8982 -0.3692
  106OSM   C16S10865   4.029   4.102   9.130 -0.8642  0.1213  0.2639
  106OSM   H16S10866   3.957   4.021   9.156  0.9854 -1.2282  1.3965
  106OSM   H16T10867   4.123   4.044   9.143 -0.7858  0.0099 -0.6848
  106OSM   C17S10868   4.029   4.125   8.978  0.4472  0.7096 -0.2599
  106OSM   H17S10869   4.100   4.201   8.939 -0.1712  1.3729 -0.1063
  106OSM   H17T10870   3.926   4.162   8.966 -0.6379 -1.3148  1.9894
  106OSM   C18S10871   4.060   3.987   8.907 -0.3004  0.5780 -0.1558
  106OSM   H18S10872   4.077   4.011   8.800 -0.1365 -0.7616 -0.4454
  106OSM   H18T10873   3.975   3.920   8.929  0.0556  0.1285 -0.1400
  106OSM   H18U10874   4.152   3.936   8.944 -0.6713  0.4804  0.6440
  106OSM    C1F10875   4.130   4.192  10.250  0.1211  0.6933 -0.1838
  106OSM     OF10876   4.253   4.208  10.259  0.0620 -0.2611  0.3794
  106OSM    C2F10877   4.048   4.287  10.164 -0.0555 -1.3549  0.5585
  106OSM    H2F10878   4.095   4.383  10.195 -0.6447 -0.7112 -0.5070
  106OSM    H2G10879   3.944   4.292  10.203 -0.7718 -1.0814 -1.3083
  106OSM    C3F10880   4.080   4.251  10.018  0.4166 -0.3774 -0.5152
  106OSM    H3F10881   4.047   4.145  10.010 -1.8690  0.2801 -0.6650
  106OSM    H3G10882   4.187   4.268   9.997  0.2232 -1.2842 -2.3786
  106OSM    C4F10883   3.995   4.336   9.919 -0.1014 -0.1396 -0.4989
  106OSM    H4F10884   4.012   4.283   9.822  1.7371 -1.3859  0.4327
  106OSM    H4G10885   4.043   4.432   9.892  2.3577 -0.5761  1.9127
  106OSM    C5F10886   3.846   4.348   9.937  0.0450  0.8007 -0.0846
  106OSM    H5F10887   3.825   4.398  10.034  1.8241 -0.9582  1.2829
  106OSM    H5G10888   3.814   4.249   9.976 -1.1407  1.3281  0.3543
  106OSM    C6F10889   3.755   4.388   9.825  0.3124 -0.1405 -0.3024
  106OSM    H6F10890   3.790   4.482   9.777  0.9972 -0.4307 -0.3842
  106OSM    H6G10891   3.656   4.404   9.872  0.9837  0.8216  0.8356
  106OSM    C7F10892   3.750   4.278   9.714 -1.1183 -0.2491  0.4950
  106OSM    H7F10893   3.724   4.178   9.754  0.0732 -0.4206  0.8787
  106OSM    H7G10894   3.847   4.278   9.660 -1.6649  0.1397 -0.5143
  106OSM    C8F10895   3.642   4.308   9.603  0.5835 -0.5529 -0.3951
  106OSM    H8F10896   3.544   4.299   9.653  0.5548  0.3258 -0.2756
  106OSM    H8G10897   3.651   4.236   9.519  0.2076  2.3635 -3.0943
  106OSM    C9F10898   3.655   4.441   9.541  0.9782  1.0617 -0.5106
  106OSM    H9F10899   3.700   4.515   9.607  2.4439 -0.6861  0.5529
  106OSM   C10F10900   3.623   4.483   9.416  0.8303  0.4029  0.8082
  106OSM   H10F10901   3.645   4.582   9.374 -2.4121  0.4819 -0.9978
  106OSM   C11F10902   3.546   4.398   9.310  0.3384  0.6098 -0.5897
  106OSM   H11F10903   3.458   4.459   9.281 -1.3414 -0.7523  1.3476
  106OSM   H11G10904   3.498   4.305   9.345  1.0069  0.6098  0.3398
  106OSM   C12F10905   3.621   4.366   9.180  0.5970  0.3477 -0.7488
  106OSM   H12F10906   3.563   4.310   9.104  0.5578  1.2650 -1.4112
  106OSM   H12G10907   3.714   4.310   9.204  0.3811  0.4599  0.3845
  106OSM   C13F10908   3.670   4.489   9.107 -0.1406 -0.0475 -0.1379
  106OSM   H13F10909   3.762   4.533   9.152 -0.6657  1.9698 -0.8956
  106OSM   H13G10910   3.589   4.565   9.113 -0.7021 -0.6838  0.6505
  106OSM   C14F10911   3.685   4.465   8.956 -0.1818  0.2412  0.6300
  106OSM   H14F10912   3.598   4.404   8.922 -1.2703  1.9216  0.2956
  106OSM   H14G10913   3.784   4.416   8.942  0.3484  1.1602  1.1267
  106OSM   C15F10914   3.698   4.596   8.887  0.0648 -0.2135 -0.0008
  106OSM   H15F10915   3.793   4.646   8.915  0.3674 -0.4649 -0.5584
  106OSM   H15G10916   3.617   4.667   8.917 -0.1109 -1.3404  2.3452
  106OSM   C16F10917   3.702   4.578   8.737 -0.0293 -0.1302 -0.3317
  106OSM   H16F10918   3.617   4.514   8.704 -0.5631  0.6857 -0.5951
  106OSM   H16G10919   3.789   4.514   8.714  1.3302  0.4101  2.8185
  106OSM   C17F10920   3.705   4.704   8.656 -0.1794  0.0982 -0.3830
  106OSM   H17F10921   3.801   4.755   8.680 -0.1485 -0.2674  0.2978
  106OSM   H17G10922   3.627   4.778   8.684  1.1261  1.0506  0.8957
  106OSM   C18F10923   3.699   4.685   8.502 -0.4594  0.3939  0.5275
  106OSM   H18F10924   3.767   4.599   8.483 -0.8157  0.2930 -0.3274
  106OSM   H18G10925   3.714   4.777   8.443  2.8102  2.3342  3.9599
  106OSM   H18H10926   3.595   4.649   8.484  0.0812  0.1906 -2.7112
  107OSM      N10927   6.531   1.258  11.145 -0.2163  1.0958  0.2836
  107OSM    C1510928   6.651   1.231  11.234  0.3096  0.3327 -0.6601
  107OSM   H15A10929   6.731   1.302  11.252  2.0918 -1.0578 -2.5886
  107OSM   H15B10930   6.708   1.144  11.205 -1.3157 -0.9277 -0.2065
  107OSM   H15C10931   6.618   1.203  11.333  1.6177 -2.7421 -1.0105
  107OSM    C1410932   6.431   1.145  11.151 -0.7764 -0.9314 -0.1469
  107OSM   H14A10933   6.355   1.165  11.077 -1.1568 -0.0542  0.4706
  107OSM   H14B10934   6.385   1.132  11.248 -1.4401 -1.3989 -0.5114
  107OSM   H14C10935   6.481   1.050  11.136 -0.7292 -0.9200 -0.0594
  107OSM    C1310936   6.470   1.389  11.197  0.6573  0.0751  0.6075
  107OSM   H13A10937   6.392   1.425  11.132  1.0500  1.8926  1.0765
  107OSM   H13B10938   6.550   1.461  11.206  0.4007  1.1900 -3.8794
  107OSM   H13C10939   6.416   1.385  11.290 -1.9649 -2.1920 -0.8531
  107OSM    C1210940   6.584   1.272  11.005 -0.0111  0.6428  0.8998
  107OSM   H12A10941   6.644   1.360  10.994  0.4468  0.1937 -0.3020
  107OSM   H12B10942   6.504   1.293  10.936  0.6964  0.9190  0.1603
  107OSM    C1110943   6.672   1.158  10.944  0.2931  0.4193 -0.3341
  107OSM   H11A10944   6.771   1.157  10.994  0.2737  1.1356 -0.2703
  107OSM   H11B10945   6.686   1.186  10.837 -2.9622  1.8410 -0.5054
  107OSM      P10946   6.680   0.919  10.869 -0.1814 -0.6195 -0.4050
  107OSM    O1310947   6.823   0.898  10.896 -1.1728 -0.2273  0.3832
  107OSM    O1410948   6.592   0.802  10.882  0.6860  0.2197 -0.5437
  107OSM    O1110949   6.658   0.990  10.722 -0.7294 -0.0342  0.2845
  107OSM    O1210950   6.619   1.026  10.958 -0.5100  0.3832 -0.4100
  107OSM    C1S10951   6.619   0.912  10.607  0.0212  0.2364 -0.9333
  107OSM    H1S10952   6.516   0.873  10.621  0.4521 -0.5675  0.0948
  107OSM    H1T10953   6.693   0.834  10.581 -0.2265  0.0663 -1.1363
  107OSM     NF10954   6.565   0.921  10.362  0.5363 -0.1423  0.4743
  107OSM    HNF10955   6.639   0.889  10.303 -0.7974 -1.0717 -0.7627
  107OSM    C2S10956   6.612   0.994  10.479 -0.1273  0.3124 -0.6394
  107OSM    H2S10957   6.540   1.074  10.507 -1.3405 -1.1464  0.5672
  107OSM    C3S10958   6.751   1.055  10.461  0.6568 -0.2672 -1.0700
  107OSM    H3S10959   6.829   0.976  10.456  1.8572  0.9080 -1.2487
  107OSM     O310960   6.788   1.142  10.562 -0.3123  0.7720 -0.7225
  107OSM    HO310961   6.721   1.123  10.629  0.3454  3.3555  0.7953
  107OSM    C4S10962   6.763   1.141  10.340  0.2416  0.2912 -0.4791
  107OSM    H4S10963   6.685   1.217  10.321  0.6504  0.5635 -1.0922
  107OSM    C5S10964   6.860   1.131  10.253  0.5193  0.4005  0.1017
  107OSM    H5S10965   6.941   1.059  10.266 -1.4815 -2.3152 -1.5272
  107OSM    C6S10966   6.857   1.215  10.131 -0.5019 -0.5287 -0.0140
  107OSM    H6S10967   6.961   1.226  10.093 -0.4289 -2.2049 -0.3913
  107OSM    H6T10968   6.812   1.314  10.152 -0.5147 -0.9812  2.3884
  107OSM    C7S10969   6.777   1.156  10.015 -0.1893  0.2457  0.3779
  107OSM    H7S10970   6.671   1.127  10.031 -0.1522 -0.1598 -0.0876
  107OSM    H7T10971   6.828   1.062   9.983 -0.3928  0.5707 -0.9939
  107OSM    C8S10972   6.788   1.247   9.892  0.3660  0.2158  0.8128
  107OSM    H8S10973   6.891   1.286   9.886 -0.2599  1.7510 -0.4905
  107OSM    H8T10974   6.717   1.333   9.890  0.5669  0.4219 -2.3997
  107OSM    C9S10975   6.743   1.164   9.765  0.3321  0.3212  0.2685
  107OSM    H9S10976   6.644   1.114   9.772  2.1031 -3.7259 -0.2815
  107OSM    H9T10977   6.810   1.075   9.761 -0.7285 -0.5924  1.6803
  107OSM   C10S10978   6.770   1.246   9.639  0.0307  0.1832  1.0365
  107OSM   H10S10979   6.873   1.286   9.631  0.4879 -1.1654 -0.3596
  107OSM   H10T10980   6.698   1.331   9.633 -1.4537 -0.9888  1.4715
  107OSM   C11S10981   6.748   1.160   9.504  0.0141  0.1323  0.1137
  107OSM   H11S10982   6.666   1.087   9.512  0.5489 -1.0464 -3.4138
  107OSM   H11T10983   6.838   1.095   9.500  0.1308  0.2937  0.0928
  107OSM   C12S10984   6.738   1.230   9.366 -0.0300 -0.1640 -0.3261
  107OSM   H12S10985   6.794   1.326   9.363  1.3480 -0.9820 -2.3097
  107OSM   H12T10986   6.632   1.247   9.337 -0.5160  0.0336  1.4427
  107OSM   C13S10987   6.801   1.140   9.264  0.0357 -0.1132  0.1556
  107OSM   H13S10988   6.732   1.053   9.256 -2.0816  1.2284  2.3365
  107OSM   H13T10989   6.901   1.106   9.297 -0.2796 -2.9182 -1.4648
  107OSM   C14S10990   6.813   1.202   9.124 -0.5380  0.2559 -0.4095
  107OSM   H14S10991   6.843   1.115   9.062  0.1462  0.0395  0.2172
  107OSM   H14T10992   6.887   1.284   9.123 -0.9973  0.6762 -0.5489
  107OSM   C15S10993   6.677   1.244   9.058 -0.2294  0.4765  0.0711
  107OSM   H15S10994   6.626   1.319   9.122 -0.9886 -1.1682  1.4849
  107OSM   H15T10995   6.609   1.157   9.069 -2.7538  2.4034  0.5763
  107OSM   C16S10996   6.683   1.305   8.916 -0.3929 -0.0723 -0.1336
  107OSM   H16S10997   6.726   1.222   8.856 -1.1650 -0.5794  0.0011
  107OSM   H16T10998   6.748   1.395   8.914 -2.2889  1.3552 -1.4056
  107OSM   C17S10999   6.543   1.351   8.872  0.2354 -0.4252  0.4754
  107OSM   H17S11000   6.473   1.350   8.958 -1.1744  1.8179 -0.5438
  107OSM   H17T11001   6.498   1.273   8.807 -1.3952 -1.4488  2.6970
  107OSM   C18S11002   6.531   1.495   8.803 -0.1231 -0.3269 -0.0269
  107OSM   H18S11003   6.570   1.474   8.702 -0.0748 -1.2109  0.1628
  107OSM   H18T11004   6.600   1.561   8.859 -1.1766 -0.1700  1.1605
  107OSM   H18U11005   6.428   1.538   8.800 -0.6775 -1.6054 -0.3099
  107OSM    C1F11006   6.432   0.897  10.347 -0.9126  0.8857  0.5766
  107OSM     OF11007   6.346   0.933  10.422 -0.1514 -0.7292  0.6509
  107OSM    C2F11008   6.394   0.827  10.216  0.8077 -0.1937 -0.2564
  107OSM    H2F11009   6.460   0.738  10.200  0.4548 -0.7250  1.0921
  107OSM    H2G11010   6.403   0.895  10.129  0.7789 -0.4985 -0.5001
  107OSM    C3F11011   6.240   0.798  10.212  0.1621 -0.2913 -0.1747
  107OSM    H3F11012   6.197   0.898  10.232 -0.7739 -0.8975  0.9424
  107OSM    H3G11013   6.217   0.737  10.302  0.1632 -0.6773 -0.4314
  107OSM    C4F11014   6.211   0.734  10.077  0.2109  0.3270  0.3628
  107OSM    H4F11015   6.116   0.677  10.088  0.9180 -0.5934  2.1999
  107OSM    H4G11016   6.287   0.659  10.044 -0.0347  0.5967 -0.8704
  107OSM    C5F11017   6.188   0.824   9.950 -0.7005  0.0038 -0.2958
  107OSM    H5F11018   6.288   0.870   9.936 -0.7017 -0.1655 -0.8651
  107OSM    H5G11019   6.121   0.912   9.954 -1.1623 -0.3012 -1.1192
  107OSM    C6F11020   6.144   0.747   9.826  0.6636 -0.1688 -0.6045
  107OSM    H6F11021   6.041   0.721   9.860 -0.3858  0.3240 -3.2154
  107OSM    H6G11022   6.198   0.651   9.814  0.5459 -0.3769  0.3758
  107OSM    C7F11023   6.148   0.825   9.699  0.5991 -0.5403 -0.3822
  107OSM    H7F11024   6.255   0.843   9.677  0.0949  0.6371 -2.1025
  107OSM    H7G11025   6.099   0.922   9.724 -1.1946 -0.6730 -2.8977
  107OSM    C8F11026   6.091   0.753   9.576  0.1218 -0.1891  0.1032
  107OSM    H8F11027   5.987   0.736   9.612  0.5393  2.5052  2.9858
  107OSM    H8G11028   6.141   0.654   9.568 -0.0469 -0.2226 -0.7006
  107OSM    C9F11029   6.112   0.822   9.446  0.7512 -0.4201 -0.1740
  107OSM    H9F11030   6.115   0.932   9.446  0.6350 -0.4107 -1.3180
  107OSM   C10F11031   6.134   0.768   9.318 -0.1776 -0.6722  0.5239
  107OSM   H10F11032   6.170   0.837   9.241 -0.8480 -0.4281  0.4210
  107OSM   C11F11033   6.145   0.619   9.282  0.1236 -0.2917 -0.4958
  107OSM   H11F11034   6.098   0.551   9.356  1.7115 -1.2189 -0.2777
  107OSM   H11G11035   6.251   0.584   9.288  0.2147  0.2358  1.8124
  107OSM   C12F11036   6.091   0.574   9.144  0.0725 -0.4124 -0.3956
  107OSM   H12F11037   6.123   0.657   9.077 -0.3838  0.7078  0.7356
  107OSM   H12G11038   5.980   0.570   9.147 -0.0679  2.0717  0.0187
  107OSM   C13F11039   6.157   0.442   9.096 -0.0115 -0.1463  0.3804
  107OSM   H13F11040   6.260   0.434   9.137  0.4922  2.2347 -0.2475
  107OSM   H13G11041   6.174   0.439   8.986  1.9055 -4.7726  0.5878
  107OSM   C14F11042   6.074   0.321   9.122 -0.2502 -0.1489 -0.1994
  107OSM   H14F11043   6.018   0.332   9.217 -1.2241 -0.1311 -0.7640
  107OSM   H14G11044   6.139   0.231   9.125 -0.9342 -0.6769 -0.9876
  107OSM   C15F11045   5.969   0.287   9.017  0.0894  0.2733 -0.6186
  107OSM   H15F11046   6.009   0.265   8.915  0.3855 -0.2663 -0.3913
  107OSM   H15G11047   5.897   0.371   9.013 -1.8130 -1.1487  1.6262
  107OSM   C16F11048   5.900   0.151   9.048 -0.3982  0.2976  0.4116
  107OSM   H16F11049   5.839   0.166   9.140 -0.9917  1.2998 -0.1338
  107OSM   H16G11050   5.971   0.066   9.057 -1.8316 -1.3080 -2.1321
  107OSM   C17F11051   5.798   0.115   8.941  0.0155 -0.5253 -0.2306
  107OSM   H17F11052   5.778   0.206   8.880 -3.6221  0.0182  1.5336
  107OSM   H17G11053   5.706   0.081   8.993 -0.3248 -0.3020 -0.6782
  107OSM   C18F11054   5.855   0.001   8.866 -0.0108  0.2171 -0.2280
  107OSM   H18F11055   5.956   0.019   8.825 -1.2758  1.7949 -2.9320
  107OSM   H18G11056   5.782  -0.030   8.788  0.5919  0.9459 -1.1034
  107OSM   H18H11057   5.859  -0.081   8.941 -1.4840  0.4119  0.0946
  108OSM      N11058   2.986   6.155  10.861 -0.3750  0.1752  0.6699
  108OSM    C1511059   2.923   6.051  10.954 -0.3698  0.2226  0.1313
  108OSM   H15A11060   2.913   5.953  10.908  1.3401 -0.4772  1.1801
  108OSM   H15B11061   2.822   6.086  10.972 -0.4023  0.8642 -1.1751
  108OSM   H15C11062   2.969   6.036  11.050 -1.3698 -0.2352  0.5577
  108OSM    C1411063   2.910   6.164  10.740  1.6610 -0.5715  0.6364
  108OSM   H14A11064   2.939   6.255  10.689 -0.2610  0.1995  0.8158
  108OSM   H14B11065   2.805   6.180  10.759  1.6018  0.3041 -0.3019
  108OSM   H14C11066   2.917   6.077  10.677  2.0243 -0.1575  0.0889
  108OSM    C1311067   2.990   6.288  10.934  0.0231 -0.1713  0.4925
  108OSM   H13A11068   3.045   6.291  11.027  2.3463  1.2792 -0.8239
  108OSM   H13B11069   2.890   6.324  10.953  0.0593 -0.1381  0.6224
  108OSM   H13C11070   3.038   6.362  10.872 -0.1512  0.9939  1.7068
  108OSM    C1211071   3.130   6.133  10.813  0.5567 -0.0053 -0.1623
  108OSM   H12A11072   3.153   6.214  10.746 -1.3558  1.2846  0.6526
  108OSM   H12B11073   3.124   6.050  10.745  0.2960 -0.1996  0.0943
  108OSM    C1111074   3.247   6.104  10.914  0.0290  0.0187  0.5343
  108OSM   H11A11075   3.275   6.202  10.957  0.1210  0.3212 -0.2014
  108OSM   H11B11076   3.330   6.081  10.843 -0.7466 -0.1848 -0.3233
  108OSM      P11077   3.280   5.859  11.001 -0.3499 -0.3889 -0.0389
  108OSM    O1311078   3.422   5.870  11.035  0.1307 -0.3061  0.6485
  108OSM    O1411079   3.200   5.777  11.084 -0.0424  0.1858 -0.0275
  108OSM    O1111080   3.268   5.806  10.852  0.3886  0.1263 -0.1244
  108OSM    O1211081   3.216   6.002  11.010 -0.7286 -0.9582 -0.1511
  108OSM    C1S11082   3.139   5.770  10.807  0.9005 -0.3313  0.2288
  108OSM    H1S11083   3.069   5.856  10.801  2.1704  0.9100  2.0807
  108OSM    H1T11084   3.097   5.683  10.863  3.2365 -0.5811  1.7295
  108OSM     NF11085   3.022   5.678  10.612  0.6199 -0.0974  0.5526
  108OSM    HNF11086   2.990   5.584  10.619 -0.0167 -0.0482 -1.2279
  108OSM    C2S11087   3.154   5.708  10.665  0.8897  0.9770  0.4389
  108OSM    H2S11088   3.201   5.778  10.593  0.7424  1.1423  0.5026
  108OSM    C3S11089   3.246   5.574  10.678 -0.0496 -0.3951 -0.4483
  108OSM    H3S11090   3.196   5.495  10.736  1.1745 -0.3071  0.7635
  108OSM     O311091   3.362   5.596  10.757 -0.4442  0.1246 -0.3707
  108OSM    HO311092   3.356   5.680  10.802 -0.0686  0.1312 -0.3261
  108OSM    C4S11093   3.281   5.525  10.544  0.5226 -0.6978  0.1402
  108OSM    H4S11094   3.204   5.451  10.517  1.2224 -0.9209 -1.2844
  108OSM    C5S11095   3.386   5.557  10.466 -0.1711  0.0096 -0.5940
  108OSM    H5S11096   3.468   5.628  10.485  0.5707 -0.7602 -0.8083
  108OSM    C6S11097   3.397   5.489  10.330 -0.2030 -0.2006 -0.2707
  108OSM    H6S11098   3.355   5.386  10.333 -3.4258  1.0349  0.7096
  108OSM    H6T11099   3.501   5.465  10.297 -1.0259 -1.8843 -1.8162
  108OSM    C7S11100   3.321   5.569  10.224 -0.2228 -0.3856  0.7483
  108OSM    H7S11101   3.369   5.668  10.206  0.5363 -0.7319  0.8208
  108OSM    H7T11102   3.215   5.573  10.257  0.4539 -0.0803  3.1022
  108OSM    C8S11103   3.317   5.490  10.094  0.3672  0.1243  0.0172
  108OSM    H8S11104   3.231   5.522  10.031  0.9018  1.8686  0.1227
  108OSM    H8T11105   3.285   5.385  10.115 -0.1331  0.6228  2.0480
  108OSM    C9S11106   3.443   5.498  10.019 -1.1682 -0.5484  0.5608
  108OSM    H9S11107   3.519   5.449  10.083 -2.2283 -0.3962  1.9829
  108OSM    H9T11108   3.475   5.604  10.007  0.2495 -0.9291  0.8138
  108OSM   C10S11109   3.434   5.424   9.879 -0.0195  0.1606 -0.2790
  108OSM   H10S11110   3.353   5.481   9.828  0.1163  1.9063  1.3574
  108OSM   H10T11111   3.411   5.316   9.890  2.7101 -0.4715 -0.1168
  108OSM   C11S11112   3.560   5.439   9.789  0.1014  0.4497 -0.0136
  108OSM   H11S11113   3.625   5.360   9.833  0.3014  0.6591  0.0647
  108OSM   H11T11114   3.607   5.536   9.813  0.5829  0.4544 -0.9380
  108OSM   C12S11115   3.529   5.416   9.641  0.1166 -0.0339 -0.1847
  108OSM   H12S11116   3.460   5.486   9.589 -0.3596  0.7886  1.5047
  108OSM   H12T11117   3.500   5.311   9.621 -0.4139  0.3335 -1.4718
  108OSM   C13S11118   3.663   5.421   9.555 -0.4303  0.6097  0.0224
  108OSM   H13S11119   3.722   5.330   9.581  1.2286  1.3645 -0.9259
  108OSM   H13T11120   3.705   5.514   9.598 -0.4976  0.4449  0.4498
  108OSM   C14S11121   3.649   5.425   9.404  0.1133  0.0317 -0.6496
  108OSM   H14S11122   3.616   5.324   9.371 -0.3029  0.3445 -1.2222
  108OSM   H14T11123   3.754   5.426   9.367  0.1189  2.8478 -0.7709
  108OSM   C15S11124   3.567   5.538   9.350 -0.5440 -0.7991 -0.0557
  108OSM   H15S11125   3.608   5.629   9.398 -1.5686 -1.1265  1.5140
  108OSM   H15T11126   3.463   5.529   9.388  0.7061 -1.0605  3.7237
  108OSM   C16S11127   3.595   5.547   9.200  0.3184 -0.1010 -0.8258
  108OSM   H16S11128   3.541   5.464   9.150 -0.5221  0.0894 -0.2605
  108OSM   H16T11129   3.701   5.560   9.168  0.6546  1.8793  0.8745
  108OSM   C17S11130   3.518   5.675   9.150  0.7023 -0.5282  0.8588
  108OSM   H17S11131   3.545   5.759   9.218 -0.7379  0.0581  0.7371
  108OSM   H17T11132   3.409   5.663   9.169  1.0298 -1.0065  2.7172
  108OSM   C18S11133   3.546   5.710   9.005  0.1956 -0.2722  0.3552
  108OSM   H18S11134   3.653   5.687   8.985 -0.4063 -3.5884  0.3101
  108OSM   H18T11135   3.529   5.819   8.993  2.8579  0.3125  1.2981
  108OSM   H18U11136   3.478   5.648   8.942  0.0502 -0.8122  1.0309
  108OSM    C1F11137   2.946   5.774  10.565  0.0985  0.3318  0.5425
  108OSM     OF11138   2.981   5.891  10.568  0.5563 -0.1061 -0.0106
  108OSM    C2F11139   2.813   5.734  10.497  0.1865 -0.1819 -0.4887
  108OSM    H2F11140   2.750   5.823  10.476  0.1265  0.0823  0.7045
  108OSM    H2G11141   2.764   5.667  10.571  1.3070 -0.1663  0.3017
  108OSM    C3F11142   2.828   5.655  10.367  0.1055 -0.4910  0.9627
  108OSM    H3F11143   2.908   5.579  10.373  0.3653 -0.1273  2.6336
  108OSM    H3G11144   2.863   5.728  10.291  1.2525 -1.5888  0.4054
  108OSM    C4F11145   2.694   5.594  10.326 -0.3171 -1.0771 -0.2456
  108OSM    H4F11146   2.613   5.601  10.402  0.9438 -2.5506  1.3066
  108OSM    H4G11147   2.710   5.487  10.300 -1.4622 -1.3558  0.1280
  108OSM    C5F11148   2.639   5.671  10.205  0.1341  0.4245 -0.1512
  108OSM    H5F11149   2.671   5.776  10.190 -0.7387  0.7935  0.4979
  108OSM    H5G11150   2.528   5.672  10.208  0.1531  0.9543  0.7124
  108OSM    C6F11151   2.678   5.599  10.072  0.7802 -0.3403 -0.1219
  108OSM    H6F11152   2.771   5.541  10.090  0.9530 -0.3261 -0.9198
  108OSM    H6G11153   2.695   5.668   9.987 -0.9487  1.8854  1.2160
  108OSM    C7F11154   2.564   5.511  10.019 -0.0054 -0.2845  0.3750
  108OSM    H7F11155   2.478   5.579  10.003  1.0387  0.5928 -1.9026
  108OSM    H7G11156   2.537   5.437  10.098  1.9127 -0.5751  0.8113
  108OSM    C8F11157   2.580   5.449   9.879  0.5505  0.3716 -0.0222
  108OSM    H8F11158   2.488   5.386   9.870  0.7280  0.2061 -0.7226
  108OSM    H8G11159   2.668   5.381   9.877  0.1678 -0.2249  1.5104
  108OSM    C9F11160   2.570   5.544   9.764 -0.4932  0.2001  0.6482
  108OSM    H9F11161   2.469   5.579   9.742 -0.0277  0.0609 -1.9550
  108OSM   C10F11162   2.672   5.575   9.682  0.1482  0.3923 -0.5753
  108OSM   H10F11163   2.645   5.650   9.606  1.9373  0.7418 -0.9231
  108OSM   C11F11164   2.811   5.525   9.692  0.0064  0.0301 -0.3760
  108OSM   H11F11165   2.810   5.421   9.732  1.4482  0.2377  0.2767
  108OSM   H11G11166   2.867   5.591   9.762 -2.5053  2.6118 -0.6146
  108OSM   C12F11167   2.876   5.511   9.547 -0.0865 -0.4774 -0.0184
  108OSM   H12F11168   2.981   5.478   9.557 -0.1492 -0.8060 -0.4092
  108OSM   H12G11169   2.878   5.616   9.510 -0.7602 -0.0999  0.9655
  108OSM   C13F11170   2.801   5.410   9.461 -0.1782  0.5083 -0.3365
  108OSM   H13F11171   2.690   5.414   9.471 -0.1356  0.5948  0.1401
  108OSM   H13G11172   2.841   5.309   9.481  0.8895  0.8078 -0.8787
  108OSM   C14F11173   2.825   5.432   9.312  0.0604  0.0284 -0.5843
  108OSM   H14F11174   2.931   5.414   9.284  0.5936 -0.7200  1.7129
  108OSM   H14G11175   2.796   5.538   9.293 -3.6681 -0.7938 -0.1605
  108OSM   C15F11176   2.727   5.359   9.220  0.4143 -0.1743 -0.7718
  108OSM   H15F11177   2.637   5.329   9.278 -0.0461 -0.1836 -1.4744
  108OSM   H15G11178   2.771   5.260   9.198 -0.3964 -0.7153 -0.0468
  108OSM   C16F11179   2.679   5.444   9.101 -0.3427 -0.1491  0.1035
  108OSM   H16F11180   2.764   5.504   9.062  0.3475 -1.4986 -0.5805
  108OSM   H16G11181   2.603   5.516   9.135  1.3427  1.4421  0.6692
  108OSM   C17F11182   2.610   5.356   8.996 -0.2073  0.4080  0.2075
  108OSM   H17F11183   2.528   5.305   9.051  1.1073 -0.0039  1.8663
  108OSM   H17G11184   2.688   5.289   8.954  0.6131  1.8495 -0.6661
  108OSM   C18F11185   2.549   5.447   8.886  0.1182  0.4314 -0.1218
  108OSM   H18F11186   2.498   5.528   8.941  1.2016  0.9140  0.2005
  108OSM   H18G11187   2.479   5.387   8.825  0.0494  1.2899 -0.9127
  108OSM   H18H11188   2.627   5.496   8.824  0.8008  0.1569  0.5066
  109OSM      N11189   4.259   1.163  10.656 -0.3331 -0.2655 -0.3009
  109OSM    C1511190   4.299   1.237  10.531 -0.2235  0.2808 -0.3669
  109OSM   H15A11191   4.263   1.181  10.446 -1.0850  0.1052  0.1003
  109OSM   H15B11192   4.407   1.243  10.527 -0.0346 -2.4354 -1.2828
  109OSM   H15C11193   4.263   1.339  10.533 -3.0511 -0.6279  1.9813
  109OSM    C1411194   4.289   1.021  10.640 -0.9462 -0.3175  0.1237
  109OSM   H14A11195   4.281   0.973  10.736 -0.4008  1.4897  1.1189
  109OSM   H14B11196   4.389   1.001  10.604 -1.2377 -0.7049 -0.4919
  109OSM   H14C11197   4.232   0.976  10.560 -1.3113  0.6899 -0.2074
  109OSM    C1311198   4.347   1.215  10.768 -0.3167  0.0172  0.7403
  109OSM   H13A11199   4.450   1.183  10.770 -1.3504 -3.9200  0.6969
  109OSM   H13B11200   4.303   1.183  10.861 -0.7251  1.0239  0.9087
  109OSM   H13C11201   4.339   1.322  10.770 -4.5044 -0.1196  0.9021
  109OSM    C1211202   4.118   1.191  10.709  0.5102  0.2283  0.2477
  109OSM   H12A11203   4.117   1.298  10.724  2.7258  0.7015 -2.1839
  109OSM   H12B11204   4.095   1.148  10.804 -1.1703  1.0828  0.2662
  109OSM    C1111205   3.996   1.152  10.613  0.4760 -0.3813 -0.3398
  109OSM   H11A11206   4.008   1.217  10.523  1.0466  0.3629  0.2626
  109OSM   H11B11207   3.902   1.186  10.663 -0.0178 -1.7284 -0.3174
  109OSM      P11208   3.934   0.916  10.716  0.0334 -0.1967 -0.2314
  109OSM    O1311209   3.999   0.787  10.707 -0.6696 -0.2447 -0.2452
  109OSM    O1411210   3.951   0.991  10.845 -0.1611 -0.0211  0.3955
  109OSM    O1111211   3.778   0.888  10.680  0.0132  0.1897 -0.4018
  109OSM    O1211212   3.982   1.010  10.594 -0.2651  0.2030  0.6400
  109OSM    C1S11213   3.684   0.993  10.653 -0.9302  0.3137  0.6015
  109OSM    H1S11214   3.723   1.082  10.707  1.1893  0.1525 -0.5279
  109OSM    H1T11215   3.583   0.972  10.693 -0.8492  1.1216  1.2481
  109OSM     NF11216   3.581   1.132  10.481  0.6338  0.3249 -0.3354
  109OSM    HNF11217   3.499   1.101  10.435  0.5952 -0.4099  0.1966
  109OSM    C2S11218   3.671   1.025  10.497 -0.7174  0.3499 -0.3153
  109OSM    H2S11219   3.776   1.054  10.475 -0.7830  0.6538 -0.2274
  109OSM    C3S11220   3.638   0.896  10.412  0.0801  0.1015 -0.1939
  109OSM    H3S11221   3.534   0.868  10.439  0.2531 -0.4842 -0.1058
  109OSM     O311222   3.727   0.791  10.438  0.0426  0.0809 -0.3158
  109OSM    HO311223   3.780   0.813  10.515  0.5927 -0.8117 -0.4288
  109OSM    C4S11224   3.630   0.925  10.258  0.8775  0.5243  0.4400
  109OSM    H4S11225   3.531   0.923  10.210  0.7928 -2.2614  0.5873
  109OSM    C5S11226   3.729   0.946  10.179 -0.2682 -0.2162 -0.1256
  109OSM    H5S11227   3.829   0.940  10.224 -0.4139 -1.0522  0.0991
  109OSM    C6S11228   3.722   0.972  10.035 -0.7172  0.2915  0.2214
  109OSM    H6S11229   3.794   0.902   9.988  0.3353 -0.4022  2.6774
  109OSM    H6T11230   3.777   1.066  10.014 -2.2785  2.1193  3.5605
  109OSM    C7S11231   3.596   0.960   9.958 -0.0810  0.1076 -0.7000
  109OSM    H7S11232   3.530   1.035  10.006  1.3808  1.0788 -0.1292
  109OSM    H7T11233   3.553   0.860   9.981  0.6398 -0.2355 -0.7972
  109OSM    C8S11234   3.611   0.996   9.815 -0.1659 -0.3923 -0.7114
  109OSM    H8S11235   3.668   1.090   9.805 -1.2110  0.1008 -2.4022
  109OSM    H8T11236   3.509   1.017   9.777 -0.2843  1.2558  0.4036
  109OSM    C9S11237   3.678   0.895   9.723  0.5268  0.1662 -0.5301
  109OSM    H9S11238   3.630   0.796   9.735  0.2000  0.6048  2.5221
  109OSM    H9T11239   3.786   0.875   9.744  0.2116 -1.2428 -0.1490
  109OSM   C10S11240   3.662   0.947   9.579  0.1690 -0.3355 -0.1111
  109OSM   H10S11241   3.713   1.045   9.561 -0.2617  0.0074  0.4959
  109OSM   H10T11242   3.557   0.966   9.549  0.7762  0.8920 -1.6346
  109OSM   C11S11243   3.732   0.847   9.486 -0.6351  0.2401  1.5310
  109OSM   H11S11244   3.687   0.748   9.509  0.7646 -0.7789  0.0847
  109OSM   H11T11245   3.840   0.854   9.511  0.0801 -0.6985 -1.0296
  109OSM   C12S11246   3.707   0.873   9.336  0.1693 -0.2534 -0.8913
  109OSM   H12S11247   3.596   0.879   9.331  0.1653  1.1313  0.1867
  109OSM   H12T11248   3.740   0.786   9.276  0.8750 -0.6442  0.0423
  109OSM   C13S11249   3.779   1.001   9.280  0.0761  0.5278 -1.0254
  109OSM   H13S11250   3.884   0.988   9.311 -0.6787 -2.5885  0.6013
  109OSM   H13T11251   3.737   1.100   9.310  1.1112  1.5066 -2.6049
  109OSM   C14S11252   3.793   0.994   9.123  0.3293 -1.0356 -0.1579
  109OSM   H14S11253   3.709   0.979   9.052  0.9984 -0.6833 -1.0409
  109OSM   H14T11254   3.858   0.905   9.111 -0.5289 -1.7884  0.6460
  109OSM   C15S11255   3.855   1.130   9.063  0.3428  0.3959 -1.0032
  109OSM   H15S11256   3.963   1.129   9.089  0.1692 -0.7481 -0.2256
  109OSM   H15T11257   3.814   1.209   9.130 -1.1503  0.2365 -1.6976
  109OSM   C16S11258   3.821   1.161   8.920  0.4069  0.2621  0.0227
  109OSM   H16S11259   3.834   1.271   8.914 -2.0714  0.5743 -0.9815
  109OSM   H16T11260   3.715   1.153   8.886  1.1848 -0.1165 -2.5379
  109OSM   C17S11261   3.889   1.092   8.798 -0.2620  0.1134 -0.4963
  109OSM   H17S11262   3.881   0.981   8.808  0.8064  0.0502 -0.1782
  109OSM   H17T11263   3.999   1.100   8.814 -0.5138 -0.2715  1.8309
  109OSM   C18S11264   3.844   1.146   8.661 -1.0388 -0.0419 -0.1611
  109OSM   H18S11265   3.906   1.097   8.584 -0.0948  1.7169 -0.5717
  109OSM   H18T11266   3.869   1.254   8.660  0.4473 -0.3186  1.6974
  109OSM   H18U11267   3.734   1.132   8.648 -1.0206  1.4412 -2.3674
  109OSM    C1F11268   3.610   1.260  10.505  0.3864  0.0094 -0.2869
  109OSM     OF11269   3.711   1.283  10.576  0.3964 -0.1982 -0.0780
  109OSM    C2F11270   3.506   1.377  10.470  0.0421  0.2371  0.5951
  109OSM    H2F11271   3.481   1.429  10.565  0.7590  1.8385 -0.0593
  109OSM    H2G11272   3.414   1.335  10.423 -0.8318 -1.4086  3.5318
  109OSM    C3F11273   3.567   1.479  10.370 -0.3790  0.1555 -0.0924
  109OSM    H3F11274   3.644   1.535  10.428 -1.6724  0.2172  1.6754
  109OSM    H3G11275   3.493   1.558  10.345 -0.2844  0.3975  0.3833
  109OSM    C4F11276   3.618   1.419  10.238 -0.6712  0.4385  0.0373
  109OSM    H4F11277   3.699   1.345  10.254 -2.1492 -0.8016  2.1456
  109OSM    H4G11278   3.652   1.503  10.174  3.7854 -0.2172  1.2271
  109OSM    C5F11279   3.517   1.342  10.149 -0.4341 -0.6056  0.3543
  109OSM    H5F11280   3.507   1.249  10.210 -0.7701 -0.3923  0.6219
  109OSM    H5G11281   3.550   1.312  10.047  1.3793 -1.6167  1.1902
  109OSM    C6F11282   3.373   1.392  10.146  0.4758  0.0447 -0.0645
  109OSM    H6F11283   3.334   1.412  10.248  2.0858  2.0820  0.2143
  109OSM    H6G11284   3.309   1.309  10.108 -1.2795 -0.2390  3.1555
  109OSM    C7F11285   3.348   1.511  10.051 -0.4964 -0.2489  0.1089
  109OSM    H7F11286   3.431   1.580  10.079  0.9617 -1.0141 -1.9968
  109OSM    H7G11287   3.246   1.545  10.077 -0.5300 -1.0434  1.0566
  109OSM    C8F11288   3.354   1.494   9.897  0.1479  0.3408 -0.7145
  109OSM    H8F11289   3.316   1.584   9.844 -2.6369 -0.8900 -0.9425
  109OSM    H8G11290   3.288   1.406   9.883  0.5891 -0.1280  0.0755
  109OSM    C9F11291   3.493   1.465   9.850  0.6529 -0.0780  0.0137
  109OSM    H9F11292   3.575   1.483   9.921  0.7092 -1.4355  0.3295
  109OSM   C10F11293   3.521   1.398   9.740 -0.0896  0.4483 -0.2223
  109OSM   H10F11294   3.627   1.378   9.718  0.0504  1.2743 -0.3351
  109OSM   C11F11295   3.430   1.340   9.630 -0.7837  0.1238  0.3521
  109OSM   H11F11296   3.323   1.369   9.632 -1.7917 -1.8877 -5.4010
  109OSM   H11G11297   3.422   1.231   9.649 -1.7186  0.4976  2.3854
  109OSM   C12F11298   3.486   1.376   9.493  0.3310 -0.0387 -0.0149
  109OSM   H12F11299   3.594   1.353   9.493 -0.0116 -1.8342 -1.4047
  109OSM   H12G11300   3.482   1.485   9.472  0.9960 -0.0907 -0.4522
  109OSM   C13F11301   3.421   1.303   9.376 -0.0257  0.5282  0.0458
  109OSM   H13F11302   3.315   1.337   9.374 -0.3148 -0.1730  1.6322
  109OSM   H13G11303   3.424   1.193   9.388 -1.3051  0.4723 -0.0362
  109OSM   C14F11304   3.499   1.345   9.248  0.1703  0.6687 -0.3053
  109OSM   H14F11305   3.597   1.295   9.250  0.0819  0.5239  1.0125
  109OSM   H14G11306   3.509   1.455   9.260 -1.4363  0.5931  2.4073
  109OSM   C15F11307   3.428   1.326   9.111 -0.2071  0.0644  0.2018
  109OSM   H15F11308   3.427   1.216   9.093 -0.1870  0.3966 -2.2329
  109OSM   H15G11309   3.492   1.376   9.036 -0.6820  1.7288  0.8699
  109OSM   C16F11310   3.279   1.366   9.118 -0.8452 -0.5384 -0.1802
  109OSM   H16F11311   3.271   1.474   9.142  0.8878  0.4006 -3.2893
  109OSM   H16G11312   3.226   1.297   9.188  1.2406 -1.9017  0.1579
  109OSM   C17F11313   3.197   1.341   8.993  0.3688 -0.1808  0.2517
  109OSM   H17F11314   3.097   1.324   9.038  0.5214  1.2536  1.2423
  109OSM   H17G11315   3.240   1.251   8.945  0.7507 -0.7781  1.6612
  109OSM   C18F11316   3.188   1.467   8.893  0.2969  0.4347 -0.3294
  109OSM   H18F11317   3.174   1.560   8.952 -1.7414 -0.7448  1.1855
  109OSM   H18G11318   3.109   1.469   8.815  1.3861  0.3236 -1.4686
  109OSM   H18H11319   3.282   1.482   8.836  0.4198  1.0798  0.0363
  110OSM      N11320   5.443   6.301  11.106  0.4241  0.7541  0.3418
  110OSM    C1511321   5.488   6.443  11.105  0.5790 -0.6015 -0.4567
  110OSM   H15A11322   5.448   6.488  11.016 -0.2750  1.1466  0.7475
  110OSM   H15B11323   5.594   6.455  11.092  0.2546  1.2675 -1.7735
  110OSM   H15C11324   5.454   6.502  11.189  1.5662 -1.6735  0.7531
  110OSM    C1411325   5.530   6.223  11.201 -0.1579  0.3240  0.4285
  110OSM   H14A11326   5.635   6.247  11.197  0.2073 -1.1028  0.8024
  110OSM   H14B11327   5.524   6.117  11.183  1.0037  0.1582  0.8826
  110OSM   H14C11328   5.499   6.241  11.303 -3.4965 -0.7181 -0.2925
  110OSM    C1311329   5.295   6.299  11.146 -0.0071  0.8418  0.0073
  110OSM   H13A11330   5.232   6.359  11.083 -2.4634  0.4145  1.9011
  110OSM   H13B11331   5.279   6.346  11.242 -0.2466  1.2050 -0.2071
  110OSM   H13C11332   5.259   6.197  11.147  0.1174  0.7688 -1.0822
  110OSM    C1211333   5.458   6.252  10.959  0.4589 -0.1299  0.6739
  110OSM   H12A11334   5.404   6.314  10.889 -0.2773 -0.9366  0.5043
  110OSM   H12B11335   5.401   6.161  10.953 -3.0877  1.8956  0.5397
  110OSM    C1111336   5.607   6.235  10.914  0.0130  0.5526 -0.2129
  110OSM   H11A11337   5.608   6.190  10.812 -1.2294 -1.5619  0.6604
  110OSM   H11B11338   5.645   6.159  10.986  0.6916  0.6264 -0.4809
  110OSM      P11339   5.727   6.452  10.800  0.4680  0.2779  0.0523
  110OSM    O1311340   5.615   6.482  10.714  0.6087  0.2405 -0.1968
  110OSM    O1411341   5.787   6.570  10.864 -0.2244 -0.0999 -0.4141
  110OSM    O1111342   5.837   6.376  10.715  0.4279  0.0270 -0.1450
  110OSM    O1211343   5.681   6.353  10.918 -0.2283 -0.2922  0.0445
  110OSM    C1S11344   5.805   6.329  10.587  0.0342 -0.3497  0.8059
  110OSM    H1S11345   5.773   6.411  10.520  1.2077 -0.8478 -0.4327
  110OSM    H1T11346   5.720   6.258  10.580  0.1630 -0.4158 -0.4304
  110OSM     NF11347   5.907   6.232  10.388 -0.2335 -0.3188  0.1395
  110OSM    HNF11348   5.901   6.137  10.359  3.9464 -0.5716 -0.6279
  110OSM    C2S11349   5.928   6.259  10.529 -0.4168 -0.2231  0.0118
  110OSM    H2S11350   6.018   6.323  10.540  1.6658 -2.7996 -1.1673
  110OSM    C3S11351   5.948   6.131  10.615  0.4397  0.5539 -0.3060
  110OSM    H3S11352   5.854   6.072  10.610 -0.8751  2.6313 -2.7487
  110OSM     O311353   5.965   6.151  10.757  0.3452  0.5349  0.0729
  110OSM    HO311354   5.929   6.239  10.772 -0.0638  0.5331 -0.8204
  110OSM    C4S11355   6.067   6.050  10.566 -0.5695 -0.1166 -0.2993
  110OSM    H4S11356   6.036   5.972  10.495 -4.8766 -0.2210  1.4236
  110OSM    C5S11357   6.197   6.060  10.601 -0.0651 -0.7166  0.6595
  110OSM    H5S11358   6.213   6.141  10.673 -3.4798 -0.0764  0.9096
  110OSM    C6S11359   6.317   5.993  10.540 -0.6211  0.4623  0.9837
  110OSM    H6S11360   6.365   5.926  10.615  1.6343 -0.3245 -1.0289
  110OSM    H6T11361   6.405   6.058  10.519 -2.1932  2.5041  0.3751
  110OSM    C7S11362   6.293   5.899  10.419  0.1032  0.5842 -0.3205
  110OSM    H7S11363   6.199   5.843  10.438  0.2827  0.4408  0.1556
  110OSM    H7T11364   6.382   5.832  10.427  0.0779  0.7188  1.7981
  110OSM    C8S11365   6.292   5.968  10.279  0.1609  0.0830 -0.5985
  110OSM    H8S11366   6.395   6.009  10.276  0.0670  0.3703  0.0211
  110OSM    H8T11367   6.218   6.051  10.280  0.8972  0.7551  0.8799
  110OSM    C9S11368   6.271   5.876  10.164 -0.2900 -0.3757 -0.2030
  110OSM    H9S11369   6.163   5.876  10.138 -0.0381  1.8795 -1.5109
  110OSM    H9T11370   6.304   5.774  10.193  0.1018 -0.8001 -2.0015
  110OSM   C10S11371   6.348   5.925  10.034 -0.2179 -0.6596  0.1436
  110OSM   H10S11372   6.457   5.926  10.057  0.0067  0.5896 -0.8758
  110OSM   H10T11373   6.316   6.026   9.999 -2.5548 -2.0293 -1.9589
  110OSM   C11S11374   6.335   5.823   9.918 -0.4883  0.0685 -0.1342
  110OSM   H11S11375   6.229   5.792   9.913  0.2702 -2.6922 -0.9147
  110OSM   H11T11376   6.393   5.730   9.935  0.2623  0.5344 -0.0699
  110OSM   C12S11377   6.378   5.873   9.773 -0.1144  0.8168 -0.1324
  110OSM   H12S11378   6.487   5.895   9.775  0.6350 -2.3691 -0.3279
  110OSM   H12T11379   6.332   5.970   9.748 -0.0776  0.2446 -2.6137
  110OSM   C13S11380   6.367   5.761   9.670 -0.2211  0.1671 -0.8260
  110OSM   H13S11381   6.259   5.739   9.653 -0.1894  0.3679 -1.2918
  110OSM   H13T11382   6.422   5.672   9.708 -0.6247  0.9467  1.7752
  110OSM   C14S11383   6.430   5.800   9.534 -0.6159 -0.4736 -0.0465
  110OSM   H14S11384   6.534   5.837   9.537 -0.0656 -1.7494 -1.8031
  110OSM   H14T11385   6.370   5.884   9.490  0.2152  0.8064  1.1712
  110OSM   C15S11386   6.447   5.677   9.440  0.1731 -0.4647  0.6249
  110OSM   H15S11387   6.345   5.633   9.437  0.4161 -0.9744 -1.2570
  110OSM   H15T11388   6.521   5.606   9.483  2.6322  2.5555  1.8002
  110OSM   C16S11389   6.488   5.713   9.299 -0.3506 -0.7625  0.0002
  110OSM   H16S11390   6.581   5.774   9.296 -0.9276  0.1205 -0.2818
  110OSM   H16T11391   6.416   5.775   9.241 -0.7313 -1.1644  0.0385
  110OSM   C17S11392   6.515   5.595   9.212  0.3953  0.8491 -0.1426
  110OSM   H17S11393   6.555   5.506   9.266 -0.1623  0.4364 -0.4028
  110OSM   H17T11394   6.598   5.613   9.140  2.2505  0.4810  1.8000
  110OSM   C18S11395   6.395   5.566   9.121  0.5222  0.7760  0.5163
  110OSM   H18S11396   6.418   5.480   9.054 -0.5764  1.1054 -0.3206
  110OSM   H18T11397   6.390   5.655   9.054  2.5736  0.6448  0.0977
  110OSM   H18U11398   6.297   5.556   9.171  1.0133  0.2806  1.4092
  110OSM    C1F11399   5.921   6.329  10.300 -0.4437 -0.7124 -0.3926
  110OSM     OF11400   5.952   6.446  10.333 -0.5544  0.4703 -0.6074
  110OSM    C2F11401   5.920   6.285  10.159  0.6023 -0.0352 -0.2554
  110OSM    H2F11402   5.839   6.212  10.137 -0.1010 -0.1676  2.4577
  110OSM    H2G11403   6.007   6.219  10.142  0.2767 -0.5660  0.0919
  110OSM    C3F11404   5.908   6.405  10.066 -0.2204 -0.4106  0.9689
  110OSM    H3F11405   6.000   6.467  10.074  0.5815 -1.4113 -0.0810
  110OSM    H3G11406   5.827   6.471  10.103  0.3410  1.7766 -1.4175
  110OSM    C4F11407   5.890   6.371   9.918  0.7016  0.0811 -0.3598
  110OSM    H4F11408   5.855   6.458   9.860  1.4495  1.6516  1.4487
  110OSM    H4G11409   5.810   6.294   9.908  1.5992 -0.6827 -2.0748
  110OSM    C5F11410   6.013   6.320   9.845  0.2470 -0.2510 -0.6714
  110OSM    H5F11411   6.059   6.239   9.905 -0.5825 -0.9455 -0.9506
  110OSM    H5G11412   6.096   6.394   9.849  0.1431 -0.1465 -0.3692
  110OSM    C6F11413   5.990   6.273   9.697 -0.3992 -1.2208 -0.8555
  110OSM    H6F11414   5.944   6.353   9.636  0.9050 -0.4086 -0.8159
  110OSM    H6G11415   5.931   6.179   9.698 -1.1252 -0.8017 -2.3338
  110OSM    C7F11416   6.119   6.228   9.621  0.4334 -0.1291 -0.4637
  110OSM    H7F11417   6.149   6.125   9.648  0.9762  0.1049 -0.1691
  110OSM    H7G11418   6.188   6.311   9.647 -1.8799  1.4548  1.0021
  110OSM    C8F11419   6.090   6.243   9.467  0.2610  0.0732 -0.2285
  110OSM    H8F11420   6.172   6.203   9.404 -0.6491 -0.0384 -1.3907
  110OSM    H8G11421   6.071   6.351   9.452  0.3400 -0.0621 -1.4368
  110OSM    C9F11422   5.962   6.174   9.435  0.5410  0.5610  0.2185
  110OSM    H9F11423   5.958   6.072   9.476  2.5160  0.5363  0.4341
  110OSM   C10F11424   5.861   6.227   9.369 -0.1383 -0.4591 -0.3950
  110OSM   H10F11425   5.767   6.173   9.350  0.1427 -1.4098  0.7915
  110OSM   C11F11426   5.845   6.374   9.325  0.0493 -0.0175 -0.3279
  110OSM   H11F11427   5.904   6.442   9.391 -0.3086  0.0368 -0.0609
  110OSM   H11G11428   5.738   6.397   9.344  0.0314  0.0731 -0.5436
  110OSM   C12F11429   5.881   6.385   9.173  0.0525 -0.1088 -0.6137
  110OSM   H12F11430   5.823   6.459   9.115 -1.1016  0.0839  0.7259
  110OSM   H12G11431   5.877   6.284   9.127  0.8418 -1.0125  1.2175
  110OSM   C13F11432   6.031   6.421   9.166  0.4845 -0.0109  0.6587
  110OSM   H13F11433   6.080   6.329   9.204 -3.9416 -3.3644 -0.8111
  110OSM   H13G11434   6.040   6.504   9.238  1.4437 -0.5664  1.1983
  110OSM   C14F11435   6.077   6.469   9.023  0.3515 -1.0832  0.3186
  110OSM   H14F11436   6.180   6.510   9.031  1.1162 -3.0223  1.0472
  110OSM   H14G11437   5.996   6.538   8.990 -0.4009 -2.0286  0.1197
  110OSM   C15F11438   6.089   6.348   8.929  0.0146 -0.2459  0.2693
  110OSM   H15F11439   5.986   6.308   8.914  0.1821 -0.1624 -1.1909
  110OSM   H15G11440   6.155   6.272   8.977 -0.2184 -0.7255 -0.1631
  110OSM   C16F11441   6.149   6.407   8.798 -0.2112  0.4718  0.2435
  110OSM   H16F11442   6.239   6.472   8.809  0.6841  0.3333 -4.2440
  110OSM   H16G11443   6.069   6.466   8.749 -2.0743 -1.0298  1.3500
  110OSM   C17F11444   6.199   6.297   8.700  0.9072  0.4747 -0.4192
  110OSM   H17F11445   6.114   6.246   8.648 -0.6372  0.1903  2.2209
  110OSM   H17G11446   6.259   6.220   8.752 -0.0170  0.6640  0.9896
  110OSM   C18F11447   6.286   6.359   8.595 -0.6869  0.0040 -0.4793
  110OSM   H18F11448   6.319   6.285   8.519 -0.8548 -0.4474 -0.1212
  110OSM   H18G11449   6.367   6.414   8.647 -0.9970 -0.2678  0.3163
  110OSM   H18H11450   6.219   6.434   8.547 -0.5742  1.3970  1.4057
  111OSM      N11451   0.261   2.113  11.119 -0.7359 -0.2576  0.5691
  111OSM    C1511452   0.198   2.174  10.998 -1.3000 -0.2583 -0.0630
  111OSM   H15A11453   0.166   2.276  11.013 -1.7846 -0.4418  0.1739
  111OSM   H15B11454   0.109   2.115  10.977  0.2059 -2.7627  0.2373
  111OSM   H15C11455   0.268   2.186  10.917 -0.5896  1.2177  0.7350
  111OSM    C1411456   0.144   2.089  11.215  0.2268 -0.4204 -0.1843
  111OSM   H14A11457   0.068   2.016  11.192 -1.0611  0.8890 -0.2157
  111OSM   H14B11458   0.097   2.186  11.214 -2.1605 -1.5211 -0.8522
  111OSM   H14C11459   0.173   2.063  11.316 -0.0023 -1.2716 -0.3315
  111OSM    C1311460   0.324   1.972  11.091 -0.2626  0.6515  0.1970
  111OSM   H13A11461   0.247   1.900  11.070 -3.1595  2.8554  2.4014
  111OSM   H13B11462   0.368   1.943  11.184 -0.3675 -1.2494 -0.3152
  111OSM   H13C11463   0.406   1.977  11.020 -0.0527  0.8800  0.4543
  111OSM    C1211464   0.363   2.197  11.188  0.4994  0.3325 -0.1558
  111OSM   H12A11465   0.404   2.150  11.276 -1.4598  3.3105  2.5745
  111OSM   H12B11466   0.318   2.283  11.236  2.4607  0.6738  1.1833
  111OSM    C1111467   0.475   2.256  11.104 -0.1551  0.2926 -0.0719
  111OSM   H11A11468   0.550   2.303  11.170  0.1706  0.7657 -0.7693
  111OSM   H11B11469   0.436   2.329  11.030 -1.2495 -3.0815 -3.1414
  111OSM      P11470   0.568   2.163  10.876 -0.0943  0.2170  0.2563
  111OSM    O1311471   0.671   2.271  10.857 -0.4908  0.4770  0.3118
  111OSM    O1411472   0.598   2.026  10.837 -0.4126  0.0704 -0.2255
  111OSM    O1111473   0.432   2.203  10.804 -1.2950 -0.2885 -0.0143
  111OSM    O1211474   0.544   2.158  11.031  0.7737 -0.1115  0.2271
  111OSM    C1S11475   0.428   2.200  10.661 -0.3255 -0.2002 -0.5938
  111OSM    H1S11476   0.466   2.107  10.615 -0.5484 -0.2368 -0.7048
  111OSM    H1T11477   0.495   2.278  10.619  0.2440 -0.9736 -1.1317
  111OSM     NF11478   0.266   2.190  10.483 -0.1662  0.5835  0.0447
  111OSM    HNF11479   0.257   2.246  10.401 -0.0573  0.4749 -0.0414
  111OSM    C2S11480   0.282   2.237  10.624  0.0993  0.0695  0.6129
  111OSM    H2S11481   0.221   2.171  10.689 -1.4680  0.7114 -0.1497
  111OSM    C3S11482   0.264   2.393  10.661  0.4660 -0.6240  0.8788
  111OSM    H3S11483   0.330   2.441  10.585 -0.2122 -1.0522  0.0052
  111OSM     O311484   0.316   2.439  10.787  0.2562 -0.3745  0.2110
  111OSM    HO311485   0.376   2.373  10.821 -1.0142 -0.1648  3.1168
  111OSM    C4S11486   0.115   2.430  10.647 -0.8334  0.2123  0.0022
  111OSM    H4S11487   0.110   2.478  10.548  1.1249  1.2758  0.3703
  111OSM    C5S11488   0.006   2.421  10.722 -0.1860  0.1456  0.1722
  111OSM    H5S11489   0.014   2.386  10.826 -1.0653 -1.0446 -0.1335
  111OSM    C6S11490  -0.127   2.475  10.680  0.3337  0.0857 -0.2683
  111OSM    H6S11491  -0.146   2.562  10.746 -0.3441 -0.7330  0.6390
  111OSM    H6T11492  -0.198   2.394  10.706  0.0146 -0.1041 -1.6330
  111OSM    C7S11493  -0.148   2.509  10.532 -0.1532 -0.4247  0.2925
  111OSM    H7S11494  -0.090   2.451  10.457  0.9623  4.3954 -3.0749
  111OSM    H7T11495  -0.110   2.613  10.521 -2.2096  0.3442  0.1493
  111OSM    C8S11496  -0.299   2.513  10.479 -0.5250 -0.5317 -0.0841
  111OSM    H8S11497  -0.353   2.589  10.540  1.7102  1.1080 -0.0336
  111OSM    H8T11498  -0.339   2.414  10.510 -1.0213 -0.2231  0.2825
  111OSM    C9S11499  -0.322   2.536  10.331  0.0649  0.0604 -0.0604
  111OSM    H9S11500  -0.268   2.460  10.272 -0.4126 -0.6526  0.4146
  111OSM    H9T11501  -0.285   2.635  10.296 -3.6575  0.9787 -2.0111
  111OSM   C10S11502  -0.464   2.521  10.284 -0.6596  0.7429 -0.0068
  111OSM   H10S11503  -0.542   2.585  10.330 -0.8543  2.6132 -2.7053
  111OSM   H10T11504  -0.487   2.414  10.304  0.7295  0.2594 -0.8578
  111OSM   C11S11505  -0.487   2.552  10.131 -0.1351  0.2151  0.3025
  111OSM   H11S11506  -0.433   2.479  10.067 -1.2471  0.2783 -0.7487
  111OSM   H11T11507  -0.464   2.656  10.101 -0.3307  0.7476  1.8979
  111OSM   C12S11508  -0.631   2.535  10.082  0.7302  0.0162 -0.6532
  111OSM   H12S11509  -0.676   2.623  10.132  1.2704 -0.4918  0.7811
  111OSM   H12T11510  -0.672   2.446  10.135  0.9998  1.3319  1.9000
  111OSM   C13S11511  -0.649   2.525   9.926 -0.2140 -0.0319 -0.9418
  111OSM   H13S11512  -0.758   2.520   9.907 -0.4530  0.5474  0.1723
  111OSM   H13T11513  -0.604   2.426   9.902 -0.8208 -0.5375 -0.0644
  111OSM   C14S11514  -0.570   2.631   9.847 -0.3084 -1.0400 -0.3722
  111OSM   H14S11515  -0.460   2.625   9.863  0.1178  1.2638 -1.9821
  111OSM   H14T11516  -0.602   2.735   9.873 -0.1897 -0.3950 -2.5993
  111OSM   C15S11517  -0.591   2.636   9.690  0.8345  0.8810  0.0430
  111OSM   H15S11518  -0.526   2.708   9.636  2.5073 -1.7461 -1.6932
  111OSM   H15T11519  -0.696   2.658   9.664  0.8053  1.1394  0.3591
  111OSM   C16S11520  -0.538   2.509   9.625  0.8516  0.0345 -0.9347
  111OSM   H16S11521  -0.623   2.441   9.647 -0.8865  1.9951 -1.3101
  111OSM   H16T11522  -0.451   2.481   9.689  0.7879 -0.3559 -1.0184
  111OSM   C17S11523  -0.505   2.534   9.481 -0.5284  0.2394  0.2154
  111OSM   H17S11524  -0.453   2.443   9.443 -0.4269  1.2120 -2.1810
  111OSM   H17T11525  -0.433   2.618   9.484  1.9424 -1.6487 -1.6830
  111OSM   C18S11526  -0.620   2.589   9.390  0.1794  0.5963 -0.2053
  111OSM   H18S11527  -0.677   2.659   9.455 -2.2022 -2.2308  0.9944
  111OSM   H18T11528  -0.691   2.512   9.353  2.1819  0.2874 -3.8325
  111OSM   H18U11529  -0.582   2.655   9.308  0.6103  1.0227  0.3252
  111OSM    C1F11530   0.264   2.061  10.467 -0.7928 -0.1210 -0.4382
  111OSM     OF11531   0.264   1.986  10.569 -0.7225 -0.5926  0.1426
  111OSM    C2F11532   0.276   2.007  10.332  0.2866 -0.0958 -0.0473
  111OSM    H2F11533   0.191   2.056  10.280 -0.3122 -0.0811  0.9218
  111OSM    H2G11534   0.257   1.899  10.317 -0.8372  0.4016 -2.9525
  111OSM    C3F11535   0.411   2.042  10.253 -0.1006  0.0164 -0.0569
  111OSM    H3F11536   0.500   2.010  10.311  0.2696  1.4791  0.2203
  111OSM    H3G11537   0.418   2.153  10.251 -0.6221  0.1170  1.8868
  111OSM    C4F11538   0.427   1.981  10.115 -0.0849 -0.4416  0.5557
  111OSM    H4F11539   0.430   1.870  10.114  1.3208 -0.4148 -0.5689
  111OSM    H4G11540   0.516   2.025  10.066 -0.3857 -0.0653  0.3338
  111OSM    C5F11541   0.309   2.021  10.019 -0.0922  0.1809 -0.0230
  111OSM    H5F11542   0.302   2.132  10.029  0.8580  0.2577 -0.0980
  111OSM    H5G11543   0.210   1.984  10.053  0.7047 -0.3718  1.8040
  111OSM    C6F11544   0.326   1.979   9.882 -0.5382 -1.2467  0.3281
  111OSM    H6F11545   0.337   1.869   9.877  0.6488 -1.0890 -0.9174
  111OSM    H6G11546   0.414   2.028   9.836 -1.7461 -1.9481 -3.0579
  111OSM    C7F11547   0.204   2.022   9.798 -0.1279  0.1264 -1.0875
  111OSM    H7F11548   0.197   2.131   9.819 -0.6025  0.4813 -2.8962
  111OSM    H7G11549   0.118   1.966   9.840  0.8270 -1.1928 -0.8451
  111OSM    C8F11550   0.191   2.001   9.646  0.7014 -0.0559 -0.1883
  111OSM    H8F11551   0.099   2.055   9.614  0.7978  0.3102  0.1599
  111OSM    H8G11552   0.168   1.892   9.647  0.6425 -0.0438 -0.2229
  111OSM    C9F11553   0.310   2.032   9.564 -0.6087  0.4762 -0.6162
  111OSM    H9F11554   0.402   1.994   9.613 -0.4542  0.1495 -1.1529
  111OSM   C10F11555   0.322   2.114   9.458 -0.2016  0.0994 -0.3789
  111OSM   H10F11556   0.419   2.153   9.423  0.1627  1.0470  1.5341
  111OSM   C11F11557   0.209   2.189   9.393 -0.6067  0.3521 -0.4287
  111OSM   H11F11558   0.245   2.290   9.365 -1.9089  0.7466 -0.7441
  111OSM   H11G11559   0.129   2.216   9.466  0.1463 -1.4300  1.1434
  111OSM   C12F11560   0.128   2.122   9.275  0.8032 -0.4274  0.6966
  111OSM   H12F11561   0.024   2.160   9.281  0.4613 -1.3509  0.7600
  111OSM   H12G11562   0.103   2.014   9.283 -2.9538  0.0630 -1.8787
  111OSM   C13F11563   0.184   2.142   9.136 -0.4671  0.4249 -0.9298
  111OSM   H13F11564   0.281   2.088   9.137 -1.0501 -0.6996 -2.2820
  111OSM   H13G11565   0.208   2.250   9.125 -0.1985  0.3248 -1.3518
  111OSM   C14F11566   0.084   2.109   9.030  0.2673  0.3225 -0.3749
  111OSM   H14F11567  -0.011   2.162   9.053  0.1997  0.5369 -1.1072
  111OSM   H14G11568   0.070   1.999   9.037  1.4418  0.1730 -0.2007
  111OSM   C15F11569   0.125   2.163   8.890  0.6284  0.1653 -0.2119
  111OSM   H15F11570   0.081   2.265   8.883 -2.0885 -0.9010  0.1809
  111OSM   H15G11571   0.074   2.100   8.814  0.9559  1.3453 -1.4472
  111OSM   C16F11572   0.273   2.156   8.858 -0.2714 -0.1396  0.3732
  111OSM   H16F11573   0.314   2.054   8.876  2.5728  0.5048 -1.7502
  111OSM   H16G11574   0.332   2.221   8.926  1.3254 -2.0724  0.9377
  111OSM   C17F11575   0.306   2.204   8.712 -0.6437 -0.4247 -0.0774
  111OSM   H17F11576   0.283   2.312   8.702 -3.1512 -1.0940 -2.7654
  111OSM   H17G11577   0.229   2.163   8.644 -0.8830  1.9051 -1.3196
  111OSM   C18F11578   0.446   2.181   8.663 -0.3577 -0.7358  0.2825
  111OSM   H18F11579   0.499   2.237   8.743 -1.6096  0.2204  0.4799
  111OSM   H18G11580   0.450   2.223   8.560 -1.3107 -0.3102  0.4059
  111OSM   H18H11581   0.481   2.076   8.667  1.8574 -0.0229  1.7639
  112OSM      N11582   1.183   0.580  11.130 -0.2574  0.1368  0.0420
  112OSM    C1511583   1.296   0.484  11.131  0.3292  0.1109  0.3815
  112OSM   H15A11584   1.392   0.523  11.102  1.1013 -2.1343 -0.3100
  112OSM   H15B11585   1.268   0.408  11.059  0.6408  0.4612 -0.1236
  112OSM   H15C11586   1.309   0.437  11.227 -0.3169 -0.1188  0.3658
  112OSM    C1411587   1.056   0.524  11.193 -0.5121 -0.7370 -0.3486
  112OSM   H14A11588   0.981   0.601  11.200  0.5758  0.4102 -0.9535
  112OSM   H14B11589   1.070   0.503  11.299 -2.2951  2.9668  0.7718
  112OSM   H14C11590   1.019   0.446  11.129 -0.7541 -1.1483  0.2747
  112OSM    C1311591   1.227   0.702  11.212  0.8817 -0.1867 -0.8805
  112OSM   H13A11592   1.306   0.755  11.162  2.1002 -0.1778  0.9398
  112OSM   H13B11593   1.260   0.674  11.311  1.2164  0.0834 -0.9127
  112OSM   H13C11594   1.149   0.776  11.223 -0.1568 -1.5027  1.2073
  112OSM    C1211595   1.154   0.625  10.996 -0.7992  0.6010  0.4129
  112OSM   H12A11596   1.241   0.660  10.943 -0.8651  0.7907  0.4295
  112OSM   H12B11597   1.092   0.714  11.001 -1.2999  0.3692 -1.1610
  112OSM    C1111598   1.072   0.526  10.899 -0.6927 -0.1339 -0.6578
  112OSM   H11A11599   1.113   0.423  10.907 -0.6816 -0.1823 -1.2639
  112OSM   H11B11600   1.088   0.571  10.798 -0.1629  0.8572 -0.1419
  112OSM      P11601   0.842   0.642  10.901  0.2559 -0.4798  0.0080
  112OSM    O1311602   0.711   0.624  10.964 -0.4440 -0.5605 -0.2037
  112OSM    O1411603   0.914   0.769  10.937 -0.1693  0.4382 -0.0834
  112OSM    O1111604   0.833   0.642  10.742 -0.1472 -0.0716 -0.5090
  112OSM    O1211605   0.937   0.519  10.933  0.3656  0.4640  0.1444
  112OSM    C1S11606   0.770   0.531  10.685 -0.3022  0.9030 -0.7736
  112OSM    H1S11607   0.675   0.512  10.738  0.8294  0.5327  1.2434
  112OSM    H1T11608   0.841   0.447  10.699 -1.8624 -0.1984  0.9242
  112OSM     NF11609   0.626   0.462  10.503 -0.5803  0.4041 -0.5604
  112OSM    HNF11610   0.659   0.380  10.456 -0.0793 -0.2274  0.8267
  112OSM    C2S11611   0.726   0.560  10.544 -0.3440 -0.5612 -0.2525
  112OSM    H2S11612   0.676   0.659  10.545  0.3297 -0.2042  1.1123
  112OSM    C3S11613   0.851   0.568  10.454  0.3747 -0.2562  0.3309
  112OSM    H3S11614   0.907   0.472  10.459  1.0081  0.1621  1.6140
  112OSM     O311615   0.935   0.676  10.485 -0.1342  1.0472 -0.2982
  112OSM    HO311616   0.912   0.688  10.577 -0.1559 -2.1513  0.2494
  112OSM    C4S11617   0.812   0.580  10.306  0.2434 -0.5174  0.5743
  112OSM    H4S11618   0.784   0.485  10.258  0.0557 -0.0140 -0.3202
  112OSM    C5S11619   0.790   0.693  10.231 -0.9431 -0.2262 -0.8729
  112OSM    H5S11620   0.801   0.790  10.281  3.1105 -0.5581 -0.8069
  112OSM    C6S11621   0.738   0.698  10.090 -0.2044 -0.1833  0.4215
  112OSM    H6S11622   0.820   0.696  10.015 -0.6328  2.5355 -0.2438
  112OSM    H6T11623   0.687   0.795  10.070 -2.0874 -0.7642  2.0984
  112OSM    C7S11624   0.630   0.587  10.049 -0.0143  0.1876  0.0378
  112OSM    H7S11625   0.532   0.616  10.094 -0.9370  2.7571 -3.2070
  112OSM    H7T11626   0.664   0.488  10.086  1.8661  0.6984 -0.2347
  112OSM    C8S11627   0.587   0.568   9.899  0.3518 -0.2951 -0.1895
  112OSM    H8S11628   0.535   0.663   9.871  3.0414  1.6810  1.0941
  112OSM    H8T11629   0.507   0.492   9.888  0.5923 -0.7086  0.8589
  112OSM    C9S11630   0.699   0.535   9.795  0.0494  0.2861 -0.4224
  112OSM    H9S11631   0.748   0.436   9.808 -0.6028  0.0184  0.0499
  112OSM    H9T11632   0.777   0.614   9.808  2.0950 -1.6653 -0.3548
  112OSM   C10S11633   0.630   0.540   9.662 -0.2895  0.3518 -0.0029
  112OSM   H10S11634   0.598   0.644   9.640 -2.8976 -0.5833 -0.9921
  112OSM   H10T11635   0.541   0.475   9.671  1.3269 -1.6966  2.6855
  112OSM   C11S11636   0.721   0.515   9.537  0.2238  0.3490  0.3194
  112OSM   H11S11637   0.766   0.414   9.549 -0.4756 -0.2557 -1.7661
  112OSM   H11T11638   0.806   0.583   9.514  0.1586 -0.6355 -3.4063
  112OSM   C12S11639   0.643   0.518   9.402  0.0002 -0.5448 -0.3825
  112OSM   H12S11640   0.613   0.618   9.363  1.5535  0.3601  0.6012
  112OSM   H12T11641   0.548   0.461   9.400 -0.5976  0.4032  0.3321
  112OSM   C13S11642   0.748   0.471   9.293 -0.0181 -0.2996 -0.4726
  112OSM   H13S11643   0.795   0.374   9.321  1.1554  0.7747  1.5234
  112OSM   H13T11644   0.833   0.542   9.296  0.4044 -0.8025 -0.4822
  112OSM   C14S11645   0.694   0.467   9.154 -0.2414  0.6842 -0.3583
  112OSM   H14S11646   0.682   0.574   9.126  2.5732  1.6348  1.6180
  112OSM   H14T11647   0.599   0.410   9.143  0.7050 -0.8025 -1.1851
  112OSM   C15S11648   0.810   0.408   9.069  1.1098 -0.5112  0.5509
  112OSM   H15S11649   0.828   0.303   9.101  2.3062 -0.7142 -0.6828
  112OSM   H15T11650   0.903   0.467   9.081  0.1899  0.6977  2.2008
  112OSM   C16S11651   0.781   0.416   8.918  0.2477 -0.3738 -0.2791
  112OSM   H16S11652   0.805   0.520   8.886 -0.0595  0.2629  1.4057
  112OSM   H16T11653   0.671   0.418   8.903  0.1551 -2.2428 -0.0152
  112OSM   C17S11654   0.853   0.309   8.834  0.3577 -0.4331  0.2656
  112OSM   H17S11655   0.835   0.219   8.897  0.2235  0.0058  0.8682
  112OSM   H17T11656   0.964   0.322   8.832  0.5754 -2.0703  0.4202
  112OSM   C18S11657   0.812   0.307   8.684 -0.4286  0.0803  0.3026
  112OSM   H18S11658   0.849   0.397   8.629 -0.0193 -0.6644 -0.6785
  112OSM   H18T11659   0.702   0.291   8.690 -0.4744  0.8293  2.7542
  112OSM   H18U11660   0.858   0.222   8.628  1.0137 -0.1527  1.7415
  112OSM    C1F11661   0.500   0.451  10.540 -0.3096 -0.4530 -0.1401
  112OSM     OF11662   0.462   0.517  10.634 -0.1794 -0.2334  0.3425
  112OSM    C2F11663   0.413   0.353  10.465 -0.5810  0.0380 -0.3403
  112OSM    H2F11664   0.313   0.355  10.515 -1.4943 -2.4099 -1.8733
  112OSM    H2G11665   0.451   0.250  10.485  0.6117  0.3832 -0.7511
  112OSM    C3F11666   0.404   0.396  10.317  0.2107  0.6127 -0.3188
  112OSM    H3F11667   0.502   0.404  10.266 -0.4171 -1.5477 -1.9947
  112OSM    H3G11668   0.361   0.498  10.321 -1.6120 -0.1435  0.4476
  112OSM    C4F11669   0.319   0.292  10.241  0.0834  0.2260  0.3758
  112OSM    H4F11670   0.214   0.290  10.278 -0.5262  2.7429 -0.9810
  112OSM    H4G11671   0.372   0.194  10.242 -0.2312  0.0497 -0.0514
  112OSM    C5F11672   0.315   0.337  10.094  0.1387 -0.4133  0.8526
  112OSM    H5F11673   0.418   0.316  10.058 -0.3533 -2.8062  0.6269
  112OSM    H5G11674   0.287   0.442  10.073  0.7118 -0.7023 -1.7616
  112OSM    C6F11675   0.228   0.240  10.017 -0.7024 -1.1653 -0.7262
  112OSM    H6F11676   0.127   0.227  10.063  0.4283 -1.0608  1.9695
  112OSM    H6G11677   0.265   0.135  10.009 -1.3038 -1.2830 -2.2974
  112OSM    C7F11678   0.216   0.277   9.868 -0.2131 -0.0134  0.0398
  112OSM    H7F11679   0.134   0.213   9.829  0.3202 -1.5292  1.3069
  112OSM    H7G11680   0.310   0.251   9.814  0.5574 -0.0843  1.3694
  112OSM    C8F11681   0.183   0.420   9.823  1.6544 -0.1067 -0.0295
  112OSM    H8F11682   0.267   0.488   9.853 -0.3255  3.2374 -1.5219
  112OSM    H8G11683   0.097   0.472   9.869  4.0158  2.4909  1.7916
  112OSM    C9F11684   0.165   0.432   9.677  0.3430 -0.6181  0.0853
  112OSM    H9F11685   0.250   0.468   9.619 -1.1217 -0.2274 -1.9189
  112OSM   C10F11686   0.044   0.416   9.617  0.8312  0.5086 -0.7252
  112OSM   H10F11687   0.036   0.427   9.508  0.9158 -2.1515 -1.0560
  112OSM   C11F11688  -0.087   0.369   9.679 -0.1029 -0.2437 -0.3983
  112OSM   H11F11689  -0.140   0.463   9.707 -2.2765 -1.5070  0.0014
  112OSM   H11G11690  -0.079   0.323   9.780  0.0527  3.2978  1.3505
  112OSM   C12F11691  -0.174   0.286   9.586  0.1531 -0.8105 -0.0071
  112OSM   H12F11692  -0.135   0.183   9.567  2.8952 -0.0565  1.0330
  112OSM   H12G11693  -0.186   0.338   9.489  0.3245 -0.5354  0.1172
  112OSM   C13F11694  -0.311   0.271   9.646 -0.0831  0.4343 -0.2744
  112OSM   H13F11695  -0.299   0.229   9.749  0.1254 -0.2177 -0.5623
  112OSM   H13G11696  -0.363   0.188   9.593  0.0492  1.0602 -1.4008
  112OSM   C14F11697  -0.399   0.388   9.642 -0.9933 -0.1424 -0.5182
  112OSM   H14F11698  -0.424   0.413   9.537  2.0446  0.6478 -1.1604
  112OSM   H14G11699  -0.366   0.484   9.688 -2.2699  0.7823 -1.4509
  112OSM   C15F11700  -0.527   0.359   9.729  0.4814 -0.1267  0.2490
  112OSM   H15F11701  -0.591   0.450   9.734 -1.0513 -1.0994 -0.8160
  112OSM   H15G11702  -0.485   0.344   9.831  1.4700 -0.3804 -0.1855
  112OSM   C16F11703  -0.613   0.245   9.689 -0.0319  0.0784 -0.2629
  112OSM   H16F11704  -0.696   0.226   9.760  0.1036 -1.2383 -0.4324
  112OSM   H16G11705  -0.555   0.150   9.699 -0.4361  0.0131  1.9832
  112OSM   C17F11706  -0.660   0.263   9.544 -0.7100  0.5006 -0.1245
  112OSM   H17F11707  -0.574   0.270   9.473  0.6687  1.0392  1.5286
  112OSM   H17G11708  -0.716   0.358   9.538  0.3422  1.1306 -0.1504
  112OSM   C18F11709  -0.745   0.149   9.484 -0.1391 -0.0554 -0.5449
  112OSM   H18F11710  -0.688   0.056   9.499 -1.0188 -0.7852 -1.5677
  112OSM   H18G11711  -0.753   0.174   9.376  0.4205  0.1494 -0.5419
  112OSM   H18H11712  -0.846   0.139   9.531 -1.3164  0.9234 -2.7280
  113OSM      N11713   1.557   3.905  11.016  0.3739 -0.2482  0.5982
  113OSM    C1511714   1.478   4.030  10.988 -0.2310  0.7013 -0.2738
  113OSM   H15A11715   1.474   4.054  10.883 -0.6953  3.0880  0.2259
  113OSM   H15B11716   1.520   4.121  11.028  0.3700 -0.1961  1.2211
  113OSM   H15C11717   1.377   4.020  11.025  1.0780  1.1944  4.0300
  113OSM    C1411718   1.541   3.810  10.896 -0.3004  0.2219 -0.4088
  113OSM   H14A11719   1.621   3.737  10.900 -1.2678 -0.8348  2.1939
  113OSM   H14B11720   1.537   3.858  10.800 -1.2908 -1.4161 -1.2216
  113OSM   H14C11721   1.447   3.757  10.898  0.6290 -1.4809  1.6405
  113OSM    C1311722   1.704   3.936  11.029 -0.3072  0.4721  0.5049
  113OSM   H13A11723   1.757   3.850  11.067 -1.0974 -1.1840 -1.8455
  113OSM   H13B11724   1.726   4.030  11.078 -1.3338  0.4435  1.0589
  113OSM   H13C11725   1.756   3.949  10.935  0.3086  0.8655  0.8939
  113OSM    C1211726   1.502   3.843  11.141  0.0165  0.0087  0.0057
  113OSM   H12A11727   1.526   3.908  11.224  0.6923 -0.0824 -0.1096
  113OSM   H12B11728   1.565   3.756  11.151  0.5454 -0.0447 -2.7463
  113OSM    C1111729   1.354   3.800  11.147 -0.3416 -0.4289  0.6618
  113OSM   H11A11730   1.283   3.874  11.104 -1.4271 -2.1003 -0.5413
  113OSM   H11B11731   1.337   3.771  11.253  1.4860 -0.2320  1.0362
  113OSM      P11732   1.367   3.544  11.091  0.1452  0.1352  0.0474
  113OSM    O1311733   1.506   3.519  11.057 -0.1921 -0.0335 -0.4269
  113OSM    O1411734   1.333   3.529  11.235  0.0544  0.3307  0.1509
  113OSM    O1111735   1.263   3.460  11.007 -0.1756 -0.2660 -0.5575
  113OSM    O1211736   1.328   3.688  11.060 -0.6277  0.1128  0.0281
  113OSM    C1S11737   1.203   3.527  10.894  0.6064  0.6121 -0.0679
  113OSM    H1S11738   1.278   3.582  10.833  0.3231  1.2564  0.1609
  113OSM    H1T11739   1.126   3.602  10.920 -1.6380 -1.3004 -0.8523
  113OSM     NF11740   1.101   3.448  10.680  0.6456  0.2111 -0.2690
  113OSM    HNF11741   1.021   3.500  10.653 -0.3395  0.0275  2.1225
  113OSM    C2S11742   1.119   3.418  10.822  0.2416 -0.3739 -0.7172
  113OSM    H2S11743   1.180   3.325  10.831 -0.2351 -0.5686  0.8748
  113OSM    C3S11744   0.992   3.393  10.907 -0.3224 -0.8078 -0.4900
  113OSM    H3S11745   0.941   3.491  10.920 -0.3185 -0.9327  0.5266
  113OSM     O311746   1.020   3.339  11.035  0.2178  0.1823 -0.1187
  113OSM    HO311747   1.110   3.368  11.054 -0.1012  1.5994 -0.6657
  113OSM    C4S11748   0.896   3.295  10.835  0.0160  0.7122 -0.3031
  113OSM    H4S11749   0.915   3.188  10.853 -0.6710  0.7842  0.9711
  113OSM    C5S11750   0.787   3.325  10.766  0.1065 -0.9949  0.2388
  113OSM    H5S11751   0.758   3.430  10.753  0.6152 -0.9909 -0.9442
  113OSM    C6S11752   0.700   3.226  10.702 -0.7216 -0.2726 -0.5866
  113OSM    H6S11753   0.597   3.265  10.717 -0.3297  1.2494 -1.6328
  113OSM    H6T11754   0.690   3.131  10.759  1.8965 -0.7122 -0.7586
  113OSM    C7S11755   0.733   3.175  10.561  0.1440 -0.0207  0.5060
  113OSM    H7S11756   0.669   3.087  10.538 -0.9627  0.3511  1.9990
  113OSM    H7T11757   0.832   3.123  10.567 -0.5864 -1.6000 -0.4532
  113OSM    C8S11758   0.726   3.288  10.462 -0.3808  0.3968  0.2418
  113OSM    H8S11759   0.801   3.368  10.480  0.6313  0.6275 -3.9045
  113OSM    H8T11760   0.629   3.340  10.475 -0.6314  0.1577 -0.5699
  113OSM    C9S11761   0.739   3.244  10.313  0.6184  0.8814 -0.1850
  113OSM    H9S11762   0.653   3.181  10.282 -0.0396  2.3176 -1.3989
  113OSM    H9T11763   0.835   3.188  10.320  0.8126  1.3367  1.1047
  113OSM   C10S11764   0.744   3.355  10.211  0.7712  0.2253  0.4978
  113OSM   H10S11765   0.828   3.424  10.234  1.6737 -0.3029 -1.0568
  113OSM   H10T11766   0.654   3.420  10.209  1.1289  0.7285  0.5601
  113OSM   C11S11767   0.761   3.301  10.065 -0.5171 -0.3496  0.6032
  113OSM   H11S11768   0.682   3.229  10.039 -0.0662 -0.4521 -0.5555
  113OSM   H11T11769   0.844   3.227  10.066 -0.4017 -0.2221  0.5214
  113OSM   C12S11770   0.773   3.411   9.954 -0.1166  0.2044  0.2820
  113OSM   H12S11771   0.864   3.471   9.976 -0.1141  0.4925 -0.4795
  113OSM   H12T11772   0.687   3.481   9.966 -1.3916 -0.9304 -1.6704
  113OSM   C13S11773   0.794   3.351   9.806  0.3626  0.6690 -0.3464
  113OSM   H13S11774   0.710   3.280   9.790  0.4807  0.3524  0.3997
  113OSM   H13T11775   0.885   3.289   9.820 -0.7990 -1.2827 -0.9975
  113OSM   C14S11776   0.809   3.452   9.697 -0.2553  0.2338 -0.4930
  113OSM   H14S11777   0.871   3.537   9.733  0.6161 -1.0338  1.1401
  113OSM   H14T11778   0.708   3.496   9.678 -1.3073 -1.1506  1.5302
  113OSM   C15S11779   0.859   3.394   9.568  0.1915 -0.4694  0.1599
  113OSM   H15S11780   0.777   3.326   9.534  0.4618 -0.8054  0.1776
  113OSM   H15T11781   0.942   3.324   9.589  0.2603 -0.9214 -1.4751
  113OSM   C16S11782   0.884   3.489   9.450 -0.8255  0.5094  0.2337
  113OSM   H16S11783   0.782   3.527   9.429 -1.1583  0.3436  1.4774
  113OSM   H16T11784   0.924   3.418   9.374 -2.3195 -0.2357  0.1028
  113OSM   C17S11785   0.965   3.609   9.465 -0.6491 -0.9336 -0.4743
  113OSM   H17S11786   1.067   3.579   9.497 -0.6398  0.8892  1.3835
  113OSM   H17T11787   0.923   3.672   9.547  0.4791  2.7769 -2.5023
  113OSM   C18S11788   0.975   3.693   9.338  0.1358 -0.8147 -0.0600
  113OSM   H18S11789   0.878   3.734   9.304 -0.4405  0.5304  2.8213
  113OSM   H18T11790   1.023   3.644   9.251  1.2000 -0.0976  0.1033
  113OSM   H18U11791   1.040   3.780   9.364  0.4204 -1.3596  1.1527
  113OSM    C1F11792   1.206   3.452  10.598 -0.7679  0.3391 -0.2583
  113OSM     OF11793   1.315   3.419  10.639  0.1562  0.5996 -0.4290
  113OSM    C2F11794   1.180   3.471  10.461  0.2070 -0.0070  0.5697
  113OSM    H2F11795   1.178   3.580  10.439  0.6567 -0.0782  0.1686
  113OSM    H2G11796   1.080   3.430  10.437 -0.0179  0.7992  0.0852
  113OSM    C3F11797   1.271   3.399  10.357 -0.1826 -0.3778  0.3309
  113OSM    H3F11798   1.301   3.296  10.387  0.7042 -0.5829 -1.1745
  113OSM    H3G11799   1.363   3.460  10.357 -1.0720  1.0085  0.4553
  113OSM    C4F11800   1.214   3.389  10.212 -0.1808 -0.6868  0.0963
  113OSM    H4F11801   1.181   3.492  10.189  0.4743 -0.4667  0.1206
  113OSM    H4G11802   1.125   3.323  10.203 -1.1440  0.5070  0.5484
  113OSM    C5F11803   1.317   3.354  10.109 -0.2275  0.1663  0.5771
  113OSM    H5F11804   1.352   3.249  10.100 -2.1811 -0.3777 -2.5177
  113OSM    H5G11805   1.406   3.419  10.116 -0.1832 -0.0503  2.5833
  113OSM    C6F11806   1.260   3.365   9.964 -0.5799  1.0388 -0.0326
  113OSM    H6F11807   1.197   3.456   9.962 -0.3630  1.1921 -1.6510
  113OSM    H6G11808   1.188   3.283   9.943 -0.5687  0.7863  0.8703
  113OSM    C7F11809   1.368   3.373   9.848 -0.5026 -0.5488 -0.2416
  113OSM    H7F11810   1.409   3.270   9.836 -0.3974 -0.5961  0.4679
  113OSM    H7G11811   1.446   3.447   9.877 -0.1937 -0.3762 -1.4832
  113OSM    C8F11812   1.320   3.418   9.714  0.6434  0.6970 -0.0184
  113OSM    H8F11813   1.403   3.452   9.648 -1.4089 -0.6773 -3.6412
  113OSM    H8G11814   1.249   3.502   9.728  0.9372  0.7050  1.6586
  113OSM    C9F11815   1.230   3.315   9.643  0.1516 -0.1719 -0.2672
  113OSM    H9F11816   1.162   3.257   9.708  1.1635 -2.0390 -0.7947
  113OSM   C10F11817   1.231   3.295   9.509  0.3211 -0.5395 -0.1883
  113OSM   H10F11818   1.170   3.210   9.474  0.7685 -1.7240  1.7702
  113OSM   C11F11819   1.315   3.377   9.411 -0.1119  0.1554  0.4745
  113OSM   H11F11820   1.409   3.327   9.380 -0.1077  0.3251  0.2079
  113OSM   H11G11821   1.334   3.483   9.440  0.5805  0.2174 -0.1600
  113OSM   C12F11822   1.231   3.394   9.281  0.3287 -0.7552 -0.2466
  113OSM   H12F11823   1.154   3.471   9.300 -0.7848 -2.3716  2.4410
  113OSM   H12G11824   1.173   3.304   9.251  0.4523 -0.2209 -2.2075
  113OSM   C13F11825   1.325   3.425   9.157  0.0823  0.6562 -0.6065
  113OSM   H13F11826   1.383   3.332   9.141 -2.4889 -0.8544 -1.6459
  113OSM   H13G11827   1.389   3.516   9.167 -0.2073  1.0435 -2.0094
  113OSM   C14F11828   1.254   3.446   9.021  0.0226 -0.0103  0.6009
  113OSM   H14F11829   1.160   3.389   9.005  0.7895 -0.8866 -1.0127
  113OSM   H14G11830   1.316   3.419   8.933  2.1818  1.8187  1.4494
  113OSM   C15F11831   1.208   3.594   8.996 -0.2290  0.6519  0.1525
  113OSM   H15F11832   1.288   3.668   9.014  0.3006  0.4901 -1.3784
  113OSM   H15G11833   1.121   3.626   9.058  1.2571  3.9360  0.7300
  113OSM   C16F11834   1.156   3.602   8.849  0.0508 -0.0181  0.6006
  113OSM   H16F11835   1.080   3.522   8.841  0.3863 -0.7068  3.3055
  113OSM   H16G11836   1.235   3.583   8.772 -0.3998  0.1767  0.0839
  113OSM   C17F11837   1.080   3.729   8.809 -0.4305 -0.3896  0.5475
  113OSM   H17F11838   1.145   3.819   8.807 -0.1084 -0.6358 -1.6745
  113OSM   H17G11839   0.993   3.754   8.874  1.0367 -0.3567  2.6111
  113OSM   C18F11840   1.012   3.717   8.666  0.0005  0.7380 -1.1505
  113OSM   H18F11841   0.989   3.822   8.636  0.7912  1.3217  0.1611
  113OSM   H18G11842   0.917   3.661   8.678  0.5009 -0.5917 -3.0517
  113OSM   H18H11843   1.080   3.665   8.596 -0.4591 -2.9119  0.8752
  114OSM      N11844   4.751   3.147  11.192  0.1793 -0.4965 -0.3431
  114OSM    C1511845   4.873   3.227  11.223 -0.1868 -0.2540 -0.0130
  114OSM   H15A11846   4.853   3.331  11.243  0.8387  0.2050 -1.1853
  114OSM   H15B11847   4.929   3.220  11.130 -2.1197  1.6940 -1.4312
  114OSM   H15C11848   4.921   3.179  11.307 -2.3635  1.0384  2.0988
  114OSM    C1411849   4.791   3.007  11.156  0.9066 -0.7867  0.2284
  114OSM   H14A11850   4.860   2.973  11.232  1.5911  0.3875  0.1529
  114OSM   H14B11851   4.840   3.021  11.061  0.8312  1.9473  0.5094
  114OSM   H14C11852   4.698   2.954  11.140 -0.8651  2.4555 -1.1372
  114OSM    C1311853   4.665   3.149  11.312  0.3500 -0.6306  0.4874
  114OSM   H13A11854   4.645   3.250  11.344 -4.5942 -1.6627  1.5386
  114OSM   H13B11855   4.710   3.098  11.395  0.6548 -1.6051 -0.2629
  114OSM   H13C11856   4.564   3.117  11.292 -0.4029  1.7112  0.1518
  114OSM    C1211857   4.677   3.222  11.081 -0.2859  0.4271  0.5779
  114OSM   H12A11858   4.676   3.329  11.100  1.2234  1.0255 -2.1948
  114OSM   H12B11859   4.577   3.182  11.089  0.0694 -0.7138 -0.4342
  114OSM    C1111860   4.725   3.207  10.939 -0.2664  0.3121  0.2546
  114OSM   H11A11861   4.833   3.233  10.942  0.4372 -2.0304 -1.5722
  114OSM   H11B11862   4.663   3.284  10.888 -0.6497  0.1098  0.4191
  114OSM      P11863   4.585   3.032  10.828  0.3028  0.1120 -0.1534
  114OSM    O1311864   4.573   2.886  10.825  0.2250  0.4095  0.3031
  114OSM    O1411865   4.474   3.104  10.895 -0.2549 -0.3836  0.3962
  114OSM    O1111866   4.593   3.090  10.684 -0.1692 -0.1420 -0.4083
  114OSM    O1211867   4.725   3.068  10.892  0.8280 -0.1701  0.1346
  114OSM    C1S11868   4.665   3.021  10.586 -0.3541 -0.3195 -0.1899
  114OSM    H1S11869   4.651   2.911  10.591  0.9578 -0.4389  2.7342
  114OSM    H1T11870   4.772   3.046  10.597 -0.7883  1.2572  0.8882
  114OSM     NF11871   4.664   2.968  10.340  0.4991  0.1195 -0.1733
  114OSM    HNF11872   4.747   2.997  10.293  1.9825 -2.7876  0.4453
  114OSM    C2S11873   4.616   3.062  10.441  0.3167  0.4283 -0.0645
  114OSM    H2S11874   4.505   3.053  10.443  0.4456 -3.5346  3.0784
  114OSM    C3S11875   4.653   3.205  10.406 -0.3121  0.3183 -0.6509
  114OSM    H3S11876   4.763   3.214  10.416 -0.2904  0.8892 -1.3006
  114OSM     O311877   4.591   3.305  10.496 -0.1756 -0.0539 -0.0956
  114OSM    HO311878   4.586   3.250  10.575  2.3703 -0.8721 -0.3954
  114OSM    C4S11879   4.627   3.236  10.264  0.2036  0.2213  0.7787
  114OSM    H4S11880   4.718   3.222  10.203  0.0119 -1.2662  0.7962
  114OSM    C5S11881   4.511   3.273  10.197  0.6744 -0.4632  0.1799
  114OSM    H5S11882   4.416   3.285  10.251  1.6742 -0.2982  1.9693
  114OSM    C6S11883   4.500   3.295  10.050  0.8950  0.1024 -0.2357
  114OSM    H6S11884   4.443   3.390  10.040 -0.7686 -0.9027 -0.6658
  114OSM    H6T11885   4.438   3.217  10.000 -0.2659  1.8518 -1.6966
  114OSM    C7S11886   4.616   3.322   9.961 -0.2310  0.1540 -0.1074
  114OSM    H7S11887   4.698   3.249   9.982 -0.7181 -0.9844 -1.9037
  114OSM    H7T11888   4.651   3.423   9.990  3.1572 -1.1355  0.8399
  114OSM    C8S11889   4.581   3.327   9.814 -0.0607  0.1272  0.3124
  114OSM    H8S11890   4.499   3.401   9.802  0.6945  1.3862  2.2480
  114OSM    H8T11891   4.544   3.233   9.768  1.0373  0.0210 -0.4073
  114OSM    C9S11892   4.700   3.368   9.728 -0.7186  0.4529 -0.0369
  114OSM    H9S11893   4.780   3.292   9.743  0.2710  1.5361  0.3468
  114OSM    H9T11894   4.744   3.456   9.779 -0.5371  0.8753 -0.9105
  114OSM   C10S11895   4.668   3.374   9.580 -0.2134 -0.1722  0.7795
  114OSM   H10S11896   4.745   3.448   9.548  0.6567  0.5396  4.1897
  114OSM   H10T11897   4.572   3.427   9.560  0.0892  1.1517  2.5624
  114OSM   C11S11898   4.661   3.244   9.496 -0.3226 -0.1648 -0.0526
  114OSM   H11S11899   4.587   3.174   9.539  0.5209 -0.4634  0.9476
  114OSM   H11T11900   4.756   3.186   9.501 -0.3357 -0.8550 -4.2175
  114OSM   C12S11901   4.630   3.279   9.347 -0.1878 -0.0777  0.1484
  114OSM   H12S11902   4.719   3.323   9.297 -0.3594  0.2493  0.1329
  114OSM   H12T11903   4.543   3.349   9.347  0.5034  0.8309 -1.1953
  114OSM   C13S11904   4.586   3.155   9.267 -0.2794 -0.6833  0.6151
  114OSM   H13S11905   4.545   3.200   9.174  0.6173  1.7521  1.3245
  114OSM   H13T11906   4.510   3.097   9.322 -0.4573 -0.4868  0.5776
  114OSM   C14S11907   4.697   3.054   9.229  0.3863 -0.5261 -0.0021
  114OSM   H14S11908   4.713   2.978   9.309 -0.2200  0.5617  1.1894
  114OSM   H14T11909   4.794   3.107   9.229  1.2803 -2.1003 -0.3171
  114OSM   C15S11910   4.665   2.988   9.095  0.2434 -0.6238 -0.9600
  114OSM   H15S11911   4.632   3.070   9.028  1.3810  0.9061  0.2772
  114OSM   H15T11912   4.567   2.941   9.116  1.1396 -1.5121  1.5509
  114OSM   C16S11913   4.780   2.907   9.033  0.1976  0.1174 -0.0023
  114OSM   H16S11914   4.779   2.803   9.072  0.1110  0.3782  0.7041
  114OSM   H16T11915   4.881   2.935   9.068  1.1060 -1.7410 -1.0050
  114OSM   C17S11916   4.783   2.913   8.878  0.3992 -0.3456 -0.3264
  114OSM   H17S11917   4.814   3.018   8.857  0.9761 -0.5873 -0.7045
  114OSM   H17T11918   4.681   2.895   8.836  1.0767 -0.6524 -1.9316
  114OSM   C18S11919   4.883   2.822   8.810  0.1480 -0.7731 -0.2028
  114OSM   H18S11920   4.839   2.723   8.832  0.0515 -0.5724  0.5405
  114OSM   H18T11921   4.988   2.826   8.848 -0.4948 -0.3635  1.6376
  114OSM   H18U11922   4.885   2.833   8.699 -1.0577 -0.5543 -0.2179
  114OSM    C1F11923   4.622   2.843  10.333 -0.1167  0.4174 -0.1527
  114OSM     OF11924   4.535   2.797  10.405  0.4312  0.1529  0.2144
  114OSM    C2F11925   4.689   2.763  10.237  0.7646 -0.0604  0.4623
  114OSM    H2F11926   4.799   2.771  10.236  0.7876  0.2768 -2.1771
  114OSM    H2G11927   4.665   2.804  10.137  0.2549  0.7305  0.8945
  114OSM    C3F11928   4.631   2.620  10.219 -0.5278 -0.3371  0.7662
  114OSM    H3F11929   4.523   2.625  10.193 -0.2088  0.5966 -0.4894
  114OSM    H3G11930   4.643   2.564  10.314  0.8041 -0.2952  0.6459
  114OSM    C4F11931   4.704   2.551  10.104  0.2171  0.0893  0.1618
  114OSM    H4F11932   4.685   2.442  10.115  0.0033  0.0361 -0.7183
  114OSM    H4G11933   4.815   2.563  10.104  0.4018 -0.4713 -3.8846
  114OSM    C5F11934   4.651   2.597   9.969  0.4269 -0.6805 -0.1215
  114OSM    H5F11935   4.679   2.702   9.946  1.5465 -1.0121 -0.3305
  114OSM    H5G11936   4.540   2.605   9.965  0.2410 -2.1158  1.2136
  114OSM    C6F11937   4.704   2.522   9.839 -0.0299  0.8332 -0.3948
  114OSM    H6F11938   4.673   2.416   9.845 -2.3994  1.4594 -0.6014
  114OSM    H6G11939   4.815   2.528   9.847  0.1306 -1.0178 -0.7781
  114OSM    C7F11940   4.663   2.573   9.705 -0.1177 -0.1754 -0.4237
  114OSM    H7F11941   4.701   2.521   9.615 -2.1884 -0.9793 -0.8894
  114OSM    H7G11942   4.705   2.674   9.685 -0.2456 -0.2602 -1.1547
  114OSM    C8F11943   4.511   2.575   9.676 -0.7267 -0.2080 -0.9552
  114OSM    H8F11944   4.495   2.621   9.576  1.1765 -0.6253 -1.4785
  114OSM    H8G11945   4.468   2.646   9.750 -0.7312 -1.5697  0.4099
  114OSM    C9F11946   4.433   2.448   9.691 -0.7584  0.7598  0.2132
  114OSM    H9F11947   4.426   2.399   9.789  0.8325 -2.7650 -1.2660
  114OSM   C10F11948   4.367   2.379   9.595  0.1013  0.2177 -0.2347
  114OSM   H10F11949   4.313   2.285   9.615  0.8545 -0.9048 -2.9298
  114OSM   C11F11950   4.361   2.420   9.449  0.3638 -0.6032 -0.0314
  114OSM   H11F11951   4.357   2.530   9.433  1.2787 -0.7592 -1.4649
  114OSM   H11G11952   4.270   2.380   9.401  0.4251  0.2273 -0.8696
  114OSM   C12F11953   4.485   2.367   9.360  0.4551  0.2866 -0.2707
  114OSM   H12F11954   4.491   2.259   9.386 -1.1454  0.3719  0.5641
  114OSM   H12G11955   4.572   2.426   9.395 -0.7421  0.4977  2.6653
  114OSM   C13F11956   4.471   2.390   9.207 -0.2504 -0.4302  0.8181
  114OSM   H13F11957   4.488   2.499   9.189  1.6986 -0.8113  0.1125
  114OSM   H13G11958   4.369   2.365   9.172 -0.1985 -0.5137  0.7256
  114OSM   C14F11959   4.567   2.306   9.115  0.0543 -0.1973 -0.2613
  114OSM   H14F11960   4.525   2.203   9.122 -5.3441  1.7323  0.7235
  114OSM   H14G11961   4.666   2.301   9.164  0.1811 -0.4953 -0.5390
  114OSM   C15F11962   4.577   2.358   8.975 -0.6780  0.5396  0.2569
  114OSM   H15F11963   4.592   2.468   8.961 -0.0267  0.3816 -0.3788
  114OSM   H15G11964   4.487   2.351   8.911 -1.2825  2.0048  0.8958
  114OSM   C16F11965   4.684   2.284   8.898  0.0170  0.4011 -0.2609
  114OSM   H16F11966   4.646   2.189   8.855  3.0613 -0.5278 -1.1870
  114OSM   H16G11967   4.770   2.253   8.961 -0.5100 -0.5603 -0.0103
  114OSM   C17F11968   4.750   2.369   8.781  0.7614 -0.1856  0.5938
  114OSM   H17F11969   4.823   2.294   8.741 -1.7867 -1.1929 -2.6114
  114OSM   H17G11970   4.783   2.465   8.824 -0.5988  1.5717 -2.0375
  114OSM   C18F11971   4.654   2.408   8.660 -0.5533 -0.5596 -0.1139
  114OSM   H18F11972   4.565   2.465   8.693 -0.9897 -1.2289 -0.1019
  114OSM   H18G11973   4.617   2.314   8.613 -0.1563 -0.5012 -0.5527
  114OSM   H18H11974   4.702   2.463   8.576 -1.1627 -1.2715 -0.9435
  115OSM      N11975   2.408   0.412  10.905  0.2691 -0.0456  0.7107
  115OSM    C1511976   2.505   0.502  10.973 -0.4203  0.2229 -0.0323
  115OSM   H15A11977   2.532   0.457  11.067  0.9011  0.5324 -0.2421
  115OSM   H15B11978   2.464   0.598  11.003 -0.8728 -0.4669  1.6246
  115OSM   H15C11979   2.594   0.509  10.912 -0.6428 -0.3584 -0.4292
  115OSM    C1411980   2.303   0.384  11.010  0.8001  0.7374 -0.4448
  115OSM   H14A11981   2.235   0.468  11.020  1.8090  1.5369 -0.1200
  115OSM   H14B11982   2.347   0.357  11.105 -0.6591 -0.5608 -0.0879
  115OSM   H14C11983   2.236   0.303  10.982  2.8150 -2.3714  2.8288
  115OSM    C1311984   2.343   0.482  10.788 -0.0677 -0.2284 -0.0168
  115OSM   H13A11985   2.301   0.578  10.814  1.2807 -0.1321  2.0792
  115OSM   H13B11986   2.264   0.431  10.734  0.9310 -0.5284 -1.2273
  115OSM   H13C11987   2.404   0.512  10.705 -0.1573  0.0204  0.0062
  115OSM    C1211988   2.470   0.287  10.854 -0.2840 -0.0414 -0.0652
  115OSM   H12A11989   2.535   0.248  10.931  0.1590 -1.3157 -1.0397
  115OSM   H12B11990   2.545   0.315  10.781  0.9566  1.6139  1.7417
  115OSM    C1111991   2.379   0.172  10.788 -0.0028 -0.2226  0.0708
  115OSM   H11A11992   2.447   0.100  10.737 -0.9370 -1.6167  0.7090
  115OSM   H11B11993   2.315   0.216  10.709  1.5526 -2.5771 -2.7210
  115OSM      P11994   2.157   0.079  10.859 -0.0696  0.4121 -0.0279
  115OSM    O1311995   2.103  -0.044  10.931 -0.2491  0.1596  0.0601
  115OSM    O1411996   2.073   0.199  10.865  0.1526  0.4230 -0.3016
  115OSM    O1111997   2.159   0.030  10.709  0.0891  0.3981  0.1996
  115OSM    O1211998   2.306   0.106  10.892 -0.2546 -0.5477 -0.9418
  115OSM    C1S11999   2.060   0.065  10.602  0.0074  0.2701 -0.1356
  115OSM    H1S12000   2.028   0.171  10.612 -1.9635 -0.2811 -0.1131
  115OSM    H1T12001   1.965   0.007  10.614  0.0788 -0.2649 -1.8706
  115OSM     NF12002   2.020   0.040  10.365  0.1401 -0.1800 -0.8877
  115OSM    HNF12003   1.964  -0.042  10.355 -0.3577  0.0182  0.1718
  115OSM    C2S12004   2.122   0.028  10.463 -0.0141  1.1287 -0.3331
  115OSM    H2S12005   2.203   0.101  10.440 -0.1733  0.7509 -2.2709
  115OSM    C3S12006   2.172  -0.117  10.459  0.3594 -0.9572 -0.1354
  115OSM    H3S12007   2.088  -0.188  10.471 -0.6120  0.1297 -0.2942
  115OSM     O312008   2.270  -0.139  10.558 -0.0754  0.0985 -0.0028
  115OSM    HO312009   2.267  -0.050  10.594 -3.3825  0.3879 -0.7147
  115OSM    C4S12010   2.239  -0.142  10.318  0.5519 -0.8666 -0.6115
  115OSM    H4S12011   2.298  -0.062  10.272 -0.6379  1.3554  1.5007
  115OSM    C5S12012   2.212  -0.249  10.243  0.4931  0.3293  0.2708
  115OSM    H5S12013   2.142  -0.330  10.272 -1.4109  0.8180 -2.5463
  115OSM    C6S12014   2.276  -0.268  10.105 -0.2932 -0.0859 -0.2234
  115OSM    H6S12015   2.370  -0.324  10.127 -0.6650  0.1452  2.2921
  115OSM    H6T12016   2.312  -0.171  10.065 -0.3163 -0.0877 -0.2477
  115OSM    C7S12017   2.178  -0.333  10.010 -0.0355 -0.0233 -0.0458
  115OSM    H7S12018   2.105  -0.250  10.002 -0.2538  0.0858  2.2737
  115OSM    H7T12019   2.114  -0.410  10.059 -1.5701  2.6229  2.4780
  115OSM    C8S12020   2.244  -0.362   9.871  0.2554 -0.6500  0.7235
  115OSM    H8S12021   2.329  -0.434   9.868 -1.0452 -2.2066 -0.1516
  115OSM    H8T12022   2.287  -0.270   9.826  2.2020 -1.2637  1.2386
  115OSM    C9S12023   2.136  -0.409   9.772 -0.6111  0.0693 -0.0155
  115OSM    H9S12024   2.056  -0.333   9.759 -2.1570 -1.5366 -0.3707
  115OSM    H9T12025   2.083  -0.499   9.813  0.0651 -0.8353 -1.0791
  115OSM   C10S12026   2.194  -0.445   9.636 -0.0438 -0.3475  0.4128
  115OSM   H10S12027   2.261  -0.533   9.642  0.0669 -0.2232  1.0920
  115OSM   H10T12028   2.246  -0.350   9.608 -0.9777  0.0737  0.0638
  115OSM   C11S12029   2.090  -0.467   9.517 -0.0577  0.9824 -0.7607
  115OSM   H11S12030   2.011  -0.389   9.523  0.1721  1.1888 -0.4402
  115OSM   H11T12031   2.034  -0.561   9.538 -1.4770  1.5504 -1.8113
  115OSM   C12S12032   2.153  -0.466   9.385  0.1154  0.6396  0.2434
  115OSM   H12S12033   2.235  -0.541   9.378 -0.8061 -0.3225 -0.6638
  115OSM   H12T12034   2.194  -0.366   9.362  0.8250  0.2116 -0.4081
  115OSM   C13S12035   2.058  -0.489   9.273  0.3975 -0.4825 -0.1393
  115OSM   H13S12036   1.997  -0.398   9.253  0.6098 -0.3465 -0.1793
  115OSM   H13T12037   1.986  -0.570   9.294 -1.6063  0.9398 -1.2153
  115OSM   C14S12038   2.121  -0.529   9.141 -0.4928  0.4479 -0.0825
  115OSM   H14S12039   2.190  -0.616   9.143 -0.7014  0.2873  1.6921
  115OSM   H14T12040   2.176  -0.437   9.110 -2.2017  1.6564  0.3570
  115OSM   C15S12041   2.019  -0.561   9.031 -0.2342  0.3040 -0.5743
  115OSM   H15S12042   1.955  -0.471   9.043  1.9637  1.9023 -0.2831
  115OSM   H15T12043   1.964  -0.653   9.060  2.2757 -1.3381 -0.6540
  115OSM   C16S12044   2.079  -0.575   8.895 -0.0803 -0.0995 -0.1657
  115OSM   H16S12045   2.119  -0.476   8.864  0.6868 -0.9018 -1.8719
  115OSM   H16T12046   1.998  -0.585   8.820 -1.2687 -0.1350  1.0891
  115OSM   C17S12047   2.173  -0.695   8.870 -0.2132  0.0405 -0.6821
  115OSM   H17S12048   2.126  -0.789   8.906  2.0263 -0.1936  1.9517
  115OSM   H17T12049   2.260  -0.677   8.937  1.0706 -2.2214 -1.5978
  115OSM   C18S12050   2.231  -0.718   8.731 -0.0284 -0.2039  0.1916
  115OSM   H18S12051   2.166  -0.787   8.673 -0.6131 -0.0845  0.6990
  115OSM   H18T12052   2.330  -0.768   8.736  0.0403  0.0688  3.1230
  115OSM   H18U12053   2.224  -0.620   8.679  0.4438  1.6938  3.4567
  115OSM    C1F12054   1.975   0.158  10.321 -0.2190 -0.3331  0.7215
  115OSM     OF12055   2.042   0.260  10.346  0.0862  0.2708 -0.2117
  115OSM    C2F12056   1.843   0.169  10.247  0.0555  0.2078  0.0626
  115OSM    H2F12057   1.779   0.255  10.274 -1.3046  0.0057 -2.2515
  115OSM    H2G12058   1.787   0.074  10.256  0.7165 -0.2803 -0.7995
  115OSM    C3F12059   1.866   0.174  10.096 -0.2049 -1.0393  1.0409
  115OSM    H3F12060   1.917   0.080  10.065  1.0810 -0.5399  1.5703
  115OSM    H3G12061   1.926   0.265  10.076  0.1919 -1.5806 -0.3518
  115OSM    C4F12062   1.740   0.176  10.012  0.1511  0.1437 -0.4481
  115OSM    H4F12063   1.687   0.270  10.039  0.4295  0.2114 -0.1365
  115OSM    H4G12064   1.676   0.090  10.044 -1.4767 -0.0579 -3.7840
  115OSM    C5F12065   1.765   0.170   9.858 -0.6177  0.5265 -0.4487
  115OSM    H5F12066   1.811   0.070   9.840  0.6118  0.7328  1.2222
  115OSM    H5G12067   1.835   0.252   9.834  0.8604 -0.0793  1.4833
  115OSM    C6F12068   1.639   0.181   9.771 -0.1891 -0.3721  0.7941
  115OSM    H6F12069   1.591   0.273   9.811 -0.5766  0.1743 -0.8378
  115OSM    H6G12070   1.567   0.098   9.784 -0.1497 -0.6084 -0.3834
  115OSM    C7F12071   1.668   0.200   9.618 -0.2668  0.6905 -0.1986
  115OSM    H7F12072   1.698   0.100   9.581  0.8828 -0.4376  3.3549
  115OSM    H7G12073   1.761   0.261   9.612 -1.4734  2.9084  1.7115
  115OSM    C8F12074   1.560   0.258   9.530  0.0450 -0.9049  0.3086
  115OSM    H8F12075   1.457   0.230   9.559 -0.6251  2.3550  1.5154
  115OSM    H8G12076   1.576   0.237   9.422 -1.0024  0.8883 -0.2323
  115OSM    C9F12077   1.565   0.408   9.556 -0.2278 -0.7585 -0.5732
  115OSM    H9F12078   1.508   0.449   9.640  0.7829 -1.1483  0.3275
  115OSM   C10F12079   1.637   0.493   9.479  0.5182  0.0054  0.0196
  115OSM   H10F12080   1.629   0.601   9.501 -0.1927 -0.1467  0.5426
  115OSM   C11F12081   1.729   0.465   9.366  0.3798 -0.1607  0.3001
  115OSM   H11F12082   1.725   0.539   9.283  0.1440 -2.2105 -1.6415
  115OSM   H11G12083   1.702   0.375   9.306 -2.7718 -0.3198  1.7263
  115OSM   C12F12084   1.875   0.459   9.409  0.6085 -0.4385 -0.4893
  115OSM   H12F12085   1.893   0.375   9.480 -1.7290 -0.4022  0.2334
  115OSM   H12G12086   1.894   0.558   9.456 -1.5075  0.2665 -1.0282
  115OSM   C13F12087   1.965   0.446   9.286  0.4360  0.0552  0.6411
  115OSM   H13F12088   1.943   0.534   9.222 -2.3007 -1.0778 -0.1230
  115OSM   H13G12089   1.940   0.354   9.228 -1.8853  1.5718 -0.9257
  115OSM   C14F12090   2.109   0.415   9.331 -0.4244  0.1017  0.3469
  115OSM   H14F12091   2.121   0.314   9.377  3.9294  0.1859 -0.1192
  115OSM   H14G12092   2.135   0.502   9.395  1.7575  0.9072 -1.5021
  115OSM   C15F12093   2.203   0.408   9.216 -0.1894 -0.5079  0.6510
  115OSM   H15F12094   2.206   0.502   9.157  2.3912 -2.3933 -2.5655
  115OSM   H15G12095   2.172   0.320   9.156 -2.2551 -1.7946  3.3806
  115OSM   C16F12096   2.347   0.390   9.275  0.9534  0.4112 -0.2756
  115OSM   H16F12097   2.340   0.307   9.349 -0.5014  1.2992  0.6401
  115OSM   H16G12098   2.382   0.479   9.331  1.2855 -0.9053  1.7093
  115OSM   C17F12099   2.455   0.355   9.171  0.2293 -0.4451 -0.5625
  115OSM   H17F12100   2.557   0.365   9.215  0.3283 -1.5802 -0.4992
  115OSM   H17G12101   2.438   0.427   9.088 -1.7938 -1.6206 -1.2561
  115OSM   C18F12102   2.443   0.216   9.101 -0.3973  0.2207  0.0990
  115OSM   H18F12103   2.547   0.183   9.079  0.9421  1.1864  4.0635
  115OSM   H18G12104   2.375   0.212   9.014  0.1023 -1.0232 -0.2648
  115OSM   H18H12105   2.409   0.141   9.177 -0.0381 -1.4015 -1.2760
  116OSM      N12106   0.313   1.267  10.847  0.0164  0.2544  0.0950
  116OSM    C1512107   0.338   1.136  10.904  0.1345  0.4571  0.2670
  116OSM   H15A12108   0.346   1.058  10.830 -0.3190  0.0890  0.5987
  116OSM   H15B12109   0.253   1.100  10.962  0.3367  0.5714  0.6338
  116OSM   H15C12110   0.426   1.129  10.966  0.8435 -0.2504 -0.7955
  116OSM    C1412111   0.419   1.295  10.741  0.5865 -0.4308  0.2604
  116OSM   H14A12112   0.515   1.270  10.784  1.3338 -0.4732 -1.3631
  116OSM   H14B12113   0.412   1.399  10.713  0.2360 -0.5352 -0.0462
  116OSM   H14C12114   0.405   1.235  10.652 -1.5230  1.9137 -1.0895
  116OSM    C1312115   0.173   1.265  10.784 -0.2427 -0.2150 -0.4856
  116OSM   H13A12116   0.167   1.192  10.705 -0.9784  0.0397 -0.6628
  116OSM   H13B12117   0.154   1.359  10.736  0.6107  0.7414  0.9592
  116OSM   H13C12118   0.100   1.241  10.860  1.7250 -0.9331  1.3217
  116OSM    C1212119   0.331   1.377  10.951  0.1170 -0.4208 -1.1169
  116OSM   H12A12120   0.335   1.475  10.907 -0.7481  0.4580  0.6674
  116OSM   H12B12121   0.427   1.362  10.999 -1.2572 -1.9103  1.4304
  116OSM    C1112122   0.223   1.393  11.056 -0.4978 -0.5468  0.2213
  116OSM   H11A12123   0.274   1.446  11.140  0.0981  0.2519 -0.6195
  116OSM   H11B12124   0.203   1.297  11.108  0.1468 -0.3937  0.7687
  116OSM      P12125   0.044   1.568  11.061 -0.4722 -0.4879  0.2107
  116OSM    O1312126  -0.080   1.595  10.991  0.6353 -0.5825 -0.7073
  116OSM    O1412127   0.046   1.567  11.211  0.3681  0.3298  0.1570
  116OSM    O1112128   0.139   1.689  11.019 -0.3738 -0.2998 -0.1189
  116OSM    O1212129   0.104   1.440  11.003 -0.3424 -0.3993  0.5044
  116OSM    C1S12130   0.183   1.714  10.885 -0.6876 -0.4208 -0.3950
  116OSM    H1S12131   0.230   1.621  10.845 -2.3520 -1.5869  0.2188
  116OSM    H1T12132   0.274   1.778  10.887 -0.1546 -1.1637 -0.4008
  116OSM     NF12133   0.115   1.752  10.648  0.5611 -0.1647  0.1270
  116OSM    HNF12134   0.158   1.834  10.611 -1.0823  0.6183 -0.1579
  116OSM    C2S12135   0.071   1.760  10.786 -0.2921  0.0537 -0.0226
  116OSM    H2S12136  -0.022   1.701  10.794 -0.8130  0.7566 -0.7064
  116OSM    C3S12137   0.028   1.901  10.827  0.6211 -0.7180  0.2514
  116OSM    H3S12138   0.111   1.972  10.809  0.8517 -1.3219 -1.2671
  116OSM     O312139  -0.006   1.906  10.961 -0.1911  0.6287 -0.5178
  116OSM    HO312140   0.039   1.831  11.000  0.9717  1.8470  0.5973
  116OSM    C4S12141  -0.094   1.956  10.744 -0.0399  0.7242 -0.2471
  116OSM    H4S12142  -0.185   1.900  10.771  0.8395 -2.7202 -3.4594
  116OSM    C5S12143  -0.097   2.058  10.655 -0.1743  0.4786  0.6742
  116OSM    H5S12144  -0.013   2.127  10.640 -1.3114  1.7318 -0.1199
  116OSM    C6S12145  -0.217   2.103  10.577  0.1618  0.0692 -0.3012
  116OSM    H6S12146  -0.243   2.202  10.621  0.5002  0.7172 -1.5212
  116OSM    H6T12147  -0.310   2.043  10.588  0.3262 -0.3163 -1.0109
  116OSM    C7S12148  -0.182   2.124  10.425 -0.2862  0.0224  0.1257
  116OSM    H7S12149  -0.093   2.186  10.400  0.3475 -1.0726 -0.4166
  116OSM    H7T12150  -0.269   2.181  10.385 -0.1707  0.0591 -0.0746
  116OSM    C8S12151  -0.151   1.991  10.360 -0.0731  0.3913  0.2855
  116OSM    H8S12152  -0.224   1.916  10.396 -0.6097  0.5301 -0.5068
  116OSM    H8T12153  -0.050   1.959  10.394 -0.3312 -3.3467 -1.9927
  116OSM    C9S12154  -0.141   2.000  10.209 -1.1340 -0.2336  0.1229
  116OSM    H9S12155  -0.093   1.919  10.150  3.2801  3.7255 -2.4465
  116OSM    H9T12156  -0.073   2.085  10.183 -0.5100 -0.9724 -0.7359
  116OSM   C10S12157  -0.271   2.019  10.139 -0.2818  0.6579  0.1023
  116OSM   H10S12158  -0.301   2.125  10.148  1.3439  1.2973 -1.5139
  116OSM   H10T12159  -0.353   1.958  10.183 -0.4126 -0.0164 -1.0427
  116OSM   C11S12160  -0.270   1.992   9.990 -0.7177  0.4015  0.0340
  116OSM   H11S12161  -0.375   2.001   9.953 -0.7251 -0.1622 -0.1017
  116OSM   H11T12162  -0.239   1.886   9.973 -1.1203  0.1109  1.0368
  116OSM   C12S12163  -0.185   2.088   9.911  0.5567 -1.2037 -0.1210
  116OSM   H12S12164  -0.080   2.094   9.945  0.8581 -0.5196 -1.1154
  116OSM   H12T12165  -0.212   2.194   9.929 -0.4774 -1.6137  0.8484
  116OSM   C13S12166  -0.211   2.065   9.765 -0.4967  0.1684  0.6132
  116OSM   H13S12167  -0.320   2.067   9.745 -0.3039  1.8258 -0.5299
  116OSM   H13T12168  -0.165   1.969   9.734 -2.0858 -0.0590 -1.2514
  116OSM   C14S12169  -0.165   2.177   9.665  0.3770  0.4244 -0.2281
  116OSM   H14S12170  -0.062   2.211   9.686  1.5787 -2.3600 -1.2383
  116OSM   H14T12171  -0.224   2.268   9.692  0.3496  0.5809 -0.8024
  116OSM   C15S12172  -0.181   2.148   9.516 -0.2156  0.5804  0.5955
  116OSM   H15S12173  -0.269   2.081   9.503  1.3130 -1.2657 -0.7938
  116OSM   H15T12174  -0.096   2.091   9.474 -0.0702  0.9884  0.3285
  116OSM   C16S12175  -0.197   2.273   9.437  0.6006 -0.1970 -0.5841
  116OSM   H16S12176  -0.097   2.320   9.421  2.1680 -2.8428  0.6966
  116OSM   H16T12177  -0.270   2.342   9.485  0.5294 -0.6433 -0.0481
  116OSM   C17S12178  -0.265   2.238   9.303  0.0943  0.1730  0.1722
  116OSM   H17S12179  -0.375   2.233   9.320  0.4353 -0.5791  2.4838
  116OSM   H17T12180  -0.223   2.143   9.262 -1.7587 -0.1902 -1.0375
  116OSM   C18S12181  -0.236   2.345   9.201 -0.0656 -0.4510 -0.0062
  116OSM   H18S12182  -0.258   2.441   9.252 -0.0101 -0.3877 -0.1027
  116OSM   H18T12183  -0.293   2.322   9.109  3.0602 -0.5306 -2.0856
  116OSM   H18U12184  -0.127   2.343   9.178  0.4206 -0.3247  2.0926
  116OSM    C1F12185   0.136   1.640  10.584 -0.0663  0.6993  0.2221
  116OSM     OF12186   0.105   1.532  10.634 -0.3241 -1.1804  0.6398
  116OSM    C2F12187   0.212   1.656  10.458  0.2516 -0.1410 -0.5740
  116OSM    H2F12188   0.285   1.575  10.438  1.7093  1.2300 -1.0233
  116OSM    H2G12189   0.275   1.747  10.451 -1.1363  0.7879 -1.9747
  116OSM    C3F12190   0.125   1.673  10.330  0.0058  0.9854  0.0316
  116OSM    H3F12191   0.193   1.692  10.244 -2.6177 -0.3286 -2.4753
  116OSM    H3G12192   0.054   1.759  10.331 -0.8000  0.3661 -1.3225
  116OSM    C4F12193   0.040   1.543  10.297 -0.3225  0.5734  0.4638
  116OSM    H4F12194  -0.012   1.503  10.387 -2.2937  2.0958  0.0647
  116OSM    H4G12195   0.103   1.456  10.268 -1.7581 -0.2421 -0.3901
  116OSM    C5F12196  -0.088   1.569  10.216 -0.2062 -0.2775 -0.0337
  116OSM    H5F12197  -0.148   1.654  10.255  0.2323 -0.7137  1.6448
  116OSM    H5G12198  -0.154   1.481  10.219 -0.6450  0.0477 -0.0506
  116OSM    C6F12199  -0.061   1.608  10.069 -0.2705  0.3054 -0.2060
  116OSM    H6F12200   0.005   1.533  10.019  0.6486  1.0289 -0.1049
  116OSM    H6G12201  -0.021   1.711  10.070  0.1950  0.2410 -3.0796
  116OSM    C7F12202  -0.182   1.613   9.982  0.4329  0.2734  0.1462
  116OSM    H7F12203  -0.246   1.698  10.014  0.2172  0.1164  0.1314
  116OSM    H7G12204  -0.237   1.517   9.979  1.9685 -0.6091 -1.3215
  116OSM    C8F12205  -0.132   1.616   9.832 -0.5505 -0.2753 -0.5585
  116OSM    H8F12206  -0.053   1.540   9.815  1.0723  1.0613  0.6056
  116OSM    H8G12207  -0.069   1.707   9.820 -0.0476 -0.6715 -0.9254
  116OSM    C9F12208  -0.227   1.582   9.724 -0.6935 -0.8586  0.2276
  116OSM    H9F12209  -0.299   1.503   9.748 -0.7474 -1.0306 -0.4645
  116OSM   C10F12210  -0.224   1.630   9.599  0.4581 -0.2837  0.6382
  116OSM   H10F12211  -0.302   1.601   9.527  0.1698  1.6096  0.1295
  116OSM   C11F12212  -0.123   1.722   9.542 -0.2888 -0.0096 -0.3602
  116OSM   H11F12213  -0.046   1.755   9.616 -0.6791  0.4177 -0.1357
  116OSM   H11G12214  -0.170   1.819   9.514  0.1323  0.8709  1.7540
  116OSM   C12F12215  -0.036   1.655   9.431  0.5956 -0.4868  0.1826
  116OSM   H12F12216   0.009   1.563   9.474 -0.2495 -1.4174 -0.8683
  116OSM   H12G12217   0.045   1.728   9.411 -0.2093 -0.0666 -1.8114
  116OSM   C13F12218  -0.105   1.634   9.300 -0.1534 -0.1229  0.2197
  116OSM   H13F12219  -0.167   1.717   9.260 -0.6264 -0.9422 -0.7940
  116OSM   H13G12220  -0.176   1.548   9.305 -0.3805 -0.1056 -2.0053
  116OSM   C14F12221   0.001   1.590   9.187 -0.0640  0.3658  0.2793
  116OSM   H14F12222  -0.064   1.524   9.126  0.1660 -0.2176  0.6610
  116OSM   H14G12223   0.078   1.521   9.228  0.3352 -0.4134 -1.6524
  116OSM   C15F12224   0.077   1.702   9.120 -0.1714 -0.5442 -0.0542
  116OSM   H15F12225   0.150   1.746   9.191 -0.7862  0.9525 -0.3069
  116OSM   H15G12226   0.002   1.776   9.083  1.3817  0.6810 -0.8892
  116OSM   C16F12227   0.157   1.646   9.001  0.2918  0.3950  0.1618
  116OSM   H16F12228   0.093   1.595   8.925  1.7365 -1.1810 -0.0515
  116OSM   H16G12229   0.221   1.560   9.030 -0.0845  0.0656  0.0369
  116OSM   C17F12230   0.251   1.744   8.933 -0.5794 -0.7733 -0.2184
  116OSM   H17F12231   0.191   1.831   8.899  0.1874 -0.0543  0.2315
  116OSM   H17G12232   0.291   1.698   8.840 -0.0412 -1.9902  0.5913
  116OSM   C18F12233   0.371   1.796   9.013 -0.2125 -0.2030 -0.2765
  116OSM   H18F12234   0.435   1.848   8.939  0.1884 -0.5817 -0.2058
  116OSM   H18G12235   0.421   1.705   9.054 -3.0276 -1.0709  1.4957
  116OSM   H18H12236   0.353   1.858   9.104 -2.7354 -2.9420  1.2759
  117OSM      N12237   1.273   3.074  11.265 -0.5210 -0.0906 -0.1080
  117OSM    C1512238   1.177   3.004  11.358  0.4836  0.3903  0.0402
  117OSM   H15A12239   1.198   3.046  11.455  3.0514  1.0479 -0.7085
  117OSM   H15B12240   1.193   2.898  11.360 -0.1480  0.1595 -2.9227
  117OSM   H15C12241   1.072   3.013  11.333 -0.6862 -2.3980  3.2763
  117OSM    C1412242   1.240   3.028  11.130 -0.4292  0.5164  0.7332
  117OSM   H14A12243   1.312   3.062  11.056 -0.4344 -0.0325  0.4764
  117OSM   H14B12244   1.135   3.038  11.108  0.0321 -0.7057 -2.5474
  117OSM   H14C12245   1.242   2.921  11.116  2.2464  0.7308 -1.3641
  117OSM    C1312246   1.255   3.223  11.259 -0.1465 -0.1635  0.0113
  117OSM   H13A12247   1.260   3.269  11.356 -0.1729 -0.2875  0.0725
  117OSM   H13B12248   1.159   3.250  11.217 -1.5720 -1.6950  2.0947
  117OSM   H13C12249   1.330   3.255  11.189  1.2152 -2.4320  0.3320
  117OSM    C1212250   1.416   3.045  11.310  0.1404 -0.0536  0.2307
  117OSM   H12A12251   1.443   2.945  11.278  0.3638  0.3218 -0.8196
  117OSM   H12B12252   1.424   3.054  11.417  2.1251  2.6767 -0.0366
  117OSM    C1112253   1.524   3.144  11.254 -0.5806 -0.1639 -0.3402
  117OSM   H11A12254   1.623   3.122  11.301  0.5493 -0.7006 -2.7615
  117OSM   H11B12255   1.497   3.245  11.290  0.0941  0.3041 -1.1113
  117OSM      P12256   1.612   3.014  11.050  0.2818 -0.1116  0.0895
  117OSM    O1312257   1.753   3.057  11.045  0.4335 -0.0951  0.6790
  117OSM    O1412258   1.591   2.889  11.121  0.2844 -0.3606 -0.2062
  117OSM    O1112259   1.548   3.003  10.906  0.1360 -0.4568  0.2792
  117OSM    O1212260   1.525   3.136  11.112  0.2760 -0.1189 -0.4453
  117OSM    C1S12261   1.516   3.126  10.836 -0.0623 -0.7923  1.2309
  117OSM    H1S12262   1.610   3.183  10.820 -0.9694  0.0737 -1.6833
  117OSM    H1T12263   1.452   3.196  10.894 -1.8086 -0.3844 -1.0376
  117OSM     NF12264   1.468   3.193  10.609 -0.5071  0.2394  0.7840
  117OSM    HNF12265   1.396   3.261  10.601 -0.6059 -0.1231 -3.2215
  117OSM    C2S12266   1.447   3.088  10.706 -0.9962  0.7720  0.1118
  117OSM    H2S12267   1.506   3.005  10.662 -0.6566  0.4547  1.1435
  117OSM    C3S12268   1.307   3.032  10.727 -0.5110 -0.4489 -0.7520
  117OSM    H3S12269   1.240   3.115  10.759 -1.0607 -1.1438 -0.0509
  117OSM     O312270   1.299   2.939  10.831  0.0905  0.5476  0.5427
  117OSM    HO312271   1.391   2.941  10.860  0.5275  1.1595 -0.7705
  117OSM    C4S12272   1.262   2.968  10.602 -0.6097 -0.0366  0.1381
  117OSM    H4S12273   1.317   2.879  10.568 -0.0744  0.1735  0.4394
  117OSM    C5S12274   1.143   3.002  10.548 -0.4990 -0.6312 -0.1543
  117OSM    H5S12275   1.076   3.082  10.581  0.2337 -0.7312  1.6737
  117OSM    C6S12276   1.090   2.938  10.425  0.3651  0.4097  0.2115
  117OSM    H6S12277   0.979   2.942  10.422  0.3319  2.2243  2.0732
  117OSM    H6T12278   1.119   2.832  10.407 -1.9359  0.0105 -1.5558
  117OSM    C7S12279   1.129   3.042  10.314 -1.5348 -0.0269 -0.1965
  117OSM    H7S12280   1.239   3.052  10.312 -1.3691 -1.6810 -1.1446
  117OSM    H7T12281   1.074   3.138  10.327  0.7918  1.6168 -1.7796
  117OSM    C8S12282   1.092   2.978  10.178 -0.1996 -0.3842 -0.1747
  117OSM    H8S12283   1.170   2.904  10.153  0.0534  0.1485 -1.0229
  117OSM    H8T12284   1.100   3.062  10.105 -0.9672  0.1738  0.3570
  117OSM    C9S12285   0.944   2.930  10.155  0.4963 -0.5014 -0.2199
  117OSM    H9S12286   0.864   3.003  10.182  1.9925  0.7743  0.9933
  117OSM    H9T12287   0.921   2.840  10.217  0.8798  0.7494  1.8352
  117OSM   C10S12288   0.916   2.865  10.022 -0.2952  0.0174 -0.1108
  117OSM   H10S12289   0.822   2.806  10.015 -1.3957  1.8643 -1.9261
  117OSM   H10T12290   0.998   2.795   9.998  0.7069  0.3935  1.9700
  117OSM   C11S12291   0.888   2.963   9.908 -0.5502  0.1794  0.3206
  117OSM   H11S12292   0.945   3.057   9.924  1.6714 -1.1879  0.8167
  117OSM   H11T12293   0.780   2.989   9.904 -0.8581 -1.0091 -3.4166
  117OSM   C12S12294   0.941   2.903   9.779  0.5813 -0.0527 -0.2132
  117OSM   H12S12295   0.904   2.800   9.755  1.3572 -0.0432 -1.5683
  117OSM   H12T12296   1.052   2.899   9.780  0.5491 -1.7446  1.1640
  117OSM   C13S12297   0.901   2.981   9.653 -0.0463 -0.0184 -0.4157
  117OSM   H13S12298   0.962   3.073   9.641 -0.4887  0.6559  1.9755
  117OSM   H13T12299   0.799   3.027   9.654 -0.4607 -0.9018  1.1913
  117OSM   C14S12300   0.904   2.893   9.525 -0.3595 -0.6669  1.2001
  117OSM   H14S12301   0.843   2.944   9.447 -1.0719  0.6316  2.5510
  117OSM   H14T12302   0.852   2.797   9.545 -2.0446 -0.1498 -0.4302
  117OSM   C15S12303   1.045   2.858   9.466 -0.2275  0.2321  0.1300
  117OSM   H15S12304   1.109   2.816   9.547 -0.9346  0.4872  0.8343
  117OSM   H15T12305   1.092   2.947   9.420  0.5339  0.3751  1.1485
  117OSM   C16S12306   1.021   2.755   9.359 -0.4282  0.6028  0.5088
  117OSM   H16S12307   0.957   2.670   9.390  1.4295 -1.4264 -0.9159
  117OSM   H16T12308   1.121   2.715   9.331 -0.1357  0.3391  1.8614
  117OSM   C17S12309   0.962   2.815   9.231  0.2076  0.1182  0.2408
  117OSM   H17S12310   1.010   2.912   9.208  1.6748  0.5684  4.2791
  117OSM   H17T12311   0.854   2.838   9.241  0.1330 -0.5580  1.1925
  117OSM   C18S12312   0.976   2.716   9.114 -0.6935 -0.6921  0.6605
  117OSM   H18S12313   1.076   2.669   9.098 -0.2145  0.7439 -0.8316
  117OSM   H18T12314   0.945   2.755   9.016  0.2050  0.0978  0.6760
  117OSM   H18U12315   0.914   2.627   9.141  0.7747 -1.7091  0.8300
  117OSM    C1F12316   1.597   3.222  10.568  0.0051  0.3063 -0.3187
  117OSM     OF12317   1.704   3.170  10.609  0.5523  0.4085  0.4429
  117OSM    C2F12318   1.616   3.327  10.470 -0.2099 -0.8409 -0.3002
  117OSM    H2F12319   1.714   3.375  10.492 -0.9292  0.5463 -0.0106
  117OSM    H2G12320   1.537   3.401  10.492 -1.4985 -2.0062 -0.8917
  117OSM    C3F12321   1.633   3.284  10.321  0.0050  0.3727 -0.4457
  117OSM    H3F12322   1.656   3.380  10.269 -1.1462 -0.5587 -2.8356
  117OSM    H3G12323   1.543   3.230  10.287 -0.8992  0.1919  2.0146
  117OSM    C4F12324   1.764   3.197  10.300 -0.3213 -0.2705  0.1384
  117OSM    H4F12325   1.770   3.104  10.360  1.1656 -2.4291 -3.0690
  117OSM    H4G12326   1.855   3.258  10.318 -1.1951  0.4410  2.5928
  117OSM    C5F12327   1.769   3.154  10.157 -1.1356  0.1488  0.3983
  117OSM    H5F12328   1.689   3.081  10.129 -0.5042 -2.2303  4.0422
  117OSM    H5G12329   1.871   3.113  10.141 -1.1832  1.2489 -4.0334
  117OSM    C6F12330   1.778   3.267  10.058  0.7255  0.1649  0.1692
  117OSM    H6F12331   1.866   3.328  10.087  0.6547  0.3460  0.0032
  117OSM    H6G12332   1.688   3.332  10.051 -0.6983 -1.8012 -0.9630
  117OSM    C7F12333   1.804   3.201   9.917  0.8942  0.0989  0.2862
  117OSM    H7F12334   1.711   3.149   9.884  0.9685  0.3211 -0.2880
  117OSM    H7G12335   1.890   3.131   9.929  0.3181 -0.9268 -1.2229
  117OSM    C8F12336   1.843   3.304   9.805 -0.2144  0.3725  0.2235
  117OSM    H8F12337   1.914   3.253   9.737 -0.5507 -2.9669  2.1983
  117OSM    H8G12338   1.907   3.383   9.850  2.1051 -1.4203  0.2510
  117OSM    C9F12339   1.734   3.369   9.723  0.0831 -0.2538 -0.2768
  117OSM    H9F12340   1.683   3.455   9.768  1.6865 -0.1254  1.3953
  117OSM   C10F12341   1.691   3.331   9.602  0.2334 -0.0744  0.5691
  117OSM   H10F12342   1.612   3.387   9.550 -1.6172 -0.6716  2.6237
  117OSM   C11F12343   1.752   3.224   9.519 -0.2584 -0.0969  0.0289
  117OSM   H11F12344   1.701   3.126   9.531 -0.6945 -0.0448 -1.2059
  117OSM   H11G12345   1.862   3.212   9.528 -0.1462  0.2813 -0.7463
  117OSM   C12F12346   1.732   3.241   9.361 -0.1946 -0.5685 -0.2568
  117OSM   H12F12347   1.625   3.260   9.337 -0.2952  0.0387  0.6129
  117OSM   H12G12348   1.772   3.149   9.314  2.4529 -0.5039  1.6351
  117OSM   C13F12349   1.796   3.364   9.296  0.0329 -0.2431 -0.1117
  117OSM   H13F12350   1.907   3.366   9.296  0.0804 -0.3978 -2.0219
  117OSM   H13G12351   1.763   3.449   9.360 -4.0250 -0.6741 -1.3548
  117OSM   C14F12352   1.749   3.388   9.148  1.0508  0.1912  0.7664
  117OSM   H14F12353   1.759   3.490   9.107 -0.5130 -0.3307 -1.0826
  117OSM   H14G12354   1.642   3.358   9.143  1.2288 -0.3831  0.3015
  117OSM   C15F12355   1.821   3.297   9.046  0.6228  0.1064  0.0409
  117OSM   H15F12356   1.811   3.189   9.072 -0.8262 -0.0496 -1.0173
  117OSM   H15G12357   1.924   3.339   9.037  0.5456  0.3814  0.4255
  117OSM   C16F12358   1.764   3.302   8.908 -0.2780 -0.1327  0.2867
  117OSM   H16F12359   1.830   3.274   8.823 -2.4168 -1.1829 -1.1480
  117OSM   H16G12360   1.741   3.409   8.887 -2.3081 -0.6483 -0.3648
  117OSM   C17F12361   1.626   3.238   8.889  0.4101 -0.3729 -0.7878
  117OSM   H17F12362   1.546   3.256   8.964  1.9493  1.2411  0.5680
  117OSM   H17G12363   1.647   3.129   8.891 -1.1147 -0.6821  1.0978
  117OSM   C18F12364   1.559   3.270   8.755 -0.4823  0.0644 -0.2441
  117OSM   H18F12365   1.550   3.381   8.744 -2.3881  0.5174  3.9192
  117OSM   H18G12366   1.462   3.217   8.751 -0.4605  0.0662 -0.9702
  117OSM   H18H12367   1.616   3.232   8.667 -2.1531 -1.5658 -0.6738
  118OSM      N12368   2.299   6.427  11.050 -0.3731  0.1499  0.7556
  118OSM    C1512369   2.384   6.345  11.139  0.4365  0.1487 -0.8271
  118OSM   H15A12370   2.487   6.376  11.149  1.1495 -1.8995 -1.3374
  118OSM   H15B12371   2.382   6.243  11.105  1.0338 -0.0383 -0.3215
  118OSM   H15C12372   2.356   6.335  11.243  0.8021 -1.0699 -0.8303
  118OSM    C1412373   2.346   6.393  10.911 -0.1344  0.1724  0.3162
  118OSM   H14A12374   2.357   6.289  10.886 -2.0214  0.6271 -3.0380
  118OSM   H14B12375   2.442   6.444  10.907 -0.2583  0.4075  0.3157
  118OSM   H14C12376   2.282   6.446  10.842  0.1264  2.0093  1.3960
  118OSM    C1312377   2.156   6.373  11.069  0.1132 -0.5750 -0.9334
  118OSM   H13A12378   2.117   6.411  11.163 -0.7747 -0.4777 -1.3326
  118OSM   H13B12379   2.150   6.266  11.062 -1.4906 -0.6296  0.5075
  118OSM   H13C12380   2.099   6.419  10.990 -1.2693  1.2108  0.9627
  118OSM    C1212381   2.309   6.572  11.090  0.5699 -0.2322 -0.0634
  118OSM   H12A12382   2.299   6.576  11.197 -1.4694 -1.4200 -0.1506
  118OSM   H12B12383   2.226   6.627  11.047  0.0472  0.2056  1.4499
  118OSM    C1112384   2.440   6.642  11.039 -0.3376  0.5349  0.1920
  118OSM   H11A12385   2.441   6.750  11.065 -1.2302  0.6214 -0.0992
  118OSM   H11B12386   2.439   6.634  10.928 -0.0179  0.3147  0.2051
  118OSM      P12387   2.684   6.559  11.031 -0.0095 -0.0104  0.5037
  118OSM    O1312388   2.766   6.681  11.059  0.4381  0.0654 -0.5102
  118OSM    O1412389   2.748   6.428  11.071 -0.1392 -0.1170  0.4522
  118OSM    O1112390   2.639   6.561  10.875 -0.8131  1.0643  0.3540
  118OSM    O1212391   2.548   6.572  11.104 -0.4270 -0.4475  0.2584
  118OSM    C1S12392   2.692   6.465  10.782  0.3704  0.2689  0.2828
  118OSM    H1S12393   2.679   6.359  10.812 -0.4372 -0.1228 -1.3142
  118OSM    H1T12394   2.800   6.487  10.767 -0.2943  3.9382 -0.2439
  118OSM     NF12395   2.652   6.360  10.543 -0.3160 -0.9348 -0.0520
  118OSM    HNF12396   2.722   6.359  10.472  1.1465 -1.6301  1.3221
  118OSM    C2S12397   2.636   6.479  10.632  0.8850  0.5466 -0.1647
  118OSM    H2S12398   2.526   6.490  10.646  0.8007  0.1913 -0.5308
  118OSM    C3S12399   2.696   6.613  10.570  0.2179 -0.0276 -0.5469
  118OSM    H3S12400   2.806   6.598  10.568  0.0018 -1.7964 -0.6199
  118OSM     O312401   2.670   6.722  10.659  0.1019  0.1987 -0.3938
  118OSM    HO312402   2.651   6.685  10.745 -2.9057 -2.5447 -2.0142
  118OSM    C4S12403   2.629   6.635  10.440 -0.2687 -0.4243 -0.2717
  118OSM    H4S12404   2.521   6.641  10.459 -0.0314  2.3033  0.7389
  118OSM    C5S12405   2.697   6.662  10.327  0.4686  0.0741  0.5578
  118OSM    H5S12406   2.806   6.670  10.315  0.3895  1.6222  0.6674
  118OSM    C6S12407   2.638   6.687  10.187 -0.1979  0.0162 -0.4987
  118OSM    H6S12408   2.680   6.780  10.142  3.1256 -0.9846  0.2712
  118OSM    H6T12409   2.528   6.697  10.191 -0.1636 -0.1142  1.7960
  118OSM    C7S12410   2.680   6.576  10.085 -0.0873 -0.3321  0.2473
  118OSM    H7S12411   2.640   6.488  10.140  1.3313 -1.6424 -0.7410
  118OSM    H7T12412   2.791   6.574  10.087 -0.0344  1.4607  1.3741
  118OSM    C8S12413   2.613   6.581   9.949 -0.3278 -0.2504 -0.0766
  118OSM    H8S12414   2.628   6.675   9.893 -3.8687  0.1388 -0.6212
  118OSM    H8T12415   2.502   6.574   9.959 -0.4206  1.2477  0.0803
  118OSM    C9S12416   2.672   6.471   9.854  0.2538  0.5437  0.3192
  118OSM    H9S12417   2.691   6.381   9.916  0.0173  0.7995  0.7733
  118OSM    H9T12418   2.768   6.508   9.813  1.5714 -1.6378  1.2888
  118OSM   C10S12419   2.584   6.432   9.735  0.7115 -0.4767  0.1082
  118OSM   H10S12420   2.516   6.514   9.703  2.2006 -0.0939 -2.4155
  118OSM   H10T12421   2.509   6.354   9.761 -0.7348  1.4451  2.0833
  118OSM   C11S12422   2.658   6.390   9.610  0.2706 -0.1131  0.0313
  118OSM   H11S12423   2.717   6.298   9.630 -0.0612  0.0182  1.7654
  118OSM   H11T12424   2.738   6.464   9.586  0.2655  0.4614  1.6492
  118OSM   C12S12425   2.573   6.381   9.473  0.0012 -0.0742 -0.0084
  118OSM   H12S12426   2.547   6.485   9.445 -2.5100 -1.0593 -1.6805
  118OSM   H12T12427   2.474   6.333   9.484 -1.3743  1.2401 -4.5322
  118OSM   C13S12428   2.638   6.299   9.360  0.1817 -0.0494 -0.8189
  118OSM   H13S12429   2.649   6.193   9.392  0.9535 -0.2257 -1.6299
  118OSM   H13T12430   2.742   6.337   9.347  0.7107 -0.7416  1.0744
  118OSM   C14S12431   2.559   6.288   9.231 -1.0604  0.7379 -0.0219
  118OSM   H14S12432   2.459   6.242   9.249  0.7188 -3.5539  0.1796
  118OSM   H14T12433   2.611   6.209   9.173 -0.2468  0.5546  0.9373
  118OSM   C15S12434   2.563   6.418   9.149 -0.4935 -0.3319 -0.6052
  118OSM   H15S12435   2.663   6.459   9.123 -0.9569  1.0549 -0.2752
  118OSM   H15T12436   2.508   6.493   9.209  1.8883  0.8112  0.2823
  118OSM   C16S12437   2.493   6.388   9.017  0.0461  0.0856  0.0620
  118OSM   H16S12438   2.400   6.327   9.025  1.1156 -1.7512 -0.8939
  118OSM   H16T12439   2.561   6.314   8.969  1.4026  0.4304  1.3865
  118OSM   C17S12440   2.483   6.506   8.911  0.0510  0.1519 -0.3915
  118OSM   H17S12441   2.585   6.550   8.906 -0.4707  1.2821 -1.8721
  118OSM   H17T12442   2.405   6.577   8.946 -0.3077 -1.4697  2.3967
  118OSM   C18S12443   2.441   6.464   8.767 -0.0375 -0.0354  0.5025
  118OSM   H18S12444   2.502   6.381   8.725 -1.4723 -0.5069 -0.7259
  118OSM   H18T12445   2.425   6.542   8.690 -0.9529 -1.2790 -0.6067
  118OSM   H18U12446   2.342   6.421   8.797  0.3964  0.2606  2.5314
  118OSM    C1F12447   2.589   6.250  10.565  0.1360  1.1789 -0.0082
  118OSM     OF12448   2.512   6.237  10.661 -0.3724  0.5971 -0.0947
  118OSM    C2F12449   2.611   6.144  10.457 -0.5287 -0.6177 -0.4954
  118OSM    H2F12450   2.653   6.059  10.515  1.1277  1.0386  0.8666
  118OSM    H2G12451   2.680   6.185  10.380 -1.3205  1.0569 -0.3521
  118OSM    C3F12452   2.476   6.097  10.395 -0.2492 -0.1309 -0.3099
  118OSM    H3F12453   2.417   6.034  10.465  0.8198 -0.3294  0.4232
  118OSM    H3G12454   2.516   6.023  10.322 -0.2816  1.9118 -2.5576
  118OSM    C4F12455   2.407   6.216  10.326 -0.8127  0.1916 -0.1123
  118OSM    H4F12456   2.477   6.257  10.249 -0.8303  1.2760  0.4343
  118OSM    H4G12457   2.374   6.301  10.390  3.6580  1.1226  1.3433
  118OSM    C5F12458   2.284   6.166  10.248 -0.2453 -0.2959 -1.3967
  118OSM    H5F12459   2.253   6.253  10.185 -0.6331  0.1678 -0.5824
  118OSM    H5G12460   2.199   6.154  10.319  1.4948 -0.9889  0.6476
  118OSM    C6F12461   2.304   6.041  10.160  0.0047  0.5724  0.5757
  118OSM    H6F12462   2.208   6.005  10.116 -1.1302  0.3761  3.0935
  118OSM    H6G12463   2.323   5.958  10.231  3.0020  0.8995  0.2825
  118OSM    C7F12464   2.416   6.038  10.049 -0.5500  0.2323  0.0080
  118OSM    H7F12465   2.510   6.056  10.106 -0.0337 -2.5304  0.1612
  118OSM    H7G12466   2.404   6.117   9.972  0.5078 -1.2723 -1.7724
  118OSM    C8F12467   2.432   5.897   9.981  0.8286  0.5052  0.0330
  118OSM    H8F12468   2.420   5.817  10.058 -0.6793  2.0597  1.4821
  118OSM    H8G12469   2.533   5.885   9.937  0.3998  0.2228 -0.9055
  118OSM    C9F12470   2.327   5.891   9.869 -0.0177  0.7322  0.0859
  118OSM    H9F12471   2.223   5.869   9.899 -0.0177  1.8143  0.9283
  118OSM   C10F12472   2.344   5.900   9.735  0.0939  0.1961  0.1463
  118OSM   H10F12473   2.258   5.921   9.670  0.2355  0.3693  0.0152
  118OSM   C11F12474   2.477   5.918   9.667 -0.9674 -1.0329  0.5114
  118OSM   H11F12475   2.542   5.833   9.699 -1.4869 -0.6457  2.7432
  118OSM   H11G12476   2.531   6.009   9.701 -0.6656 -1.4985  1.3357
  118OSM   C12F12477   2.461   5.915   9.517  0.0171 -1.0921  0.3255
  118OSM   H12F12478   2.551   5.963   9.471 -0.3269 -1.6301 -0.9575
  118OSM   H12G12479   2.380   5.978   9.475  0.9913  0.3004  0.4489
  118OSM   C13F12480   2.452   5.777   9.458  0.5028  0.5273 -0.2575
  118OSM   H13F12481   2.386   5.706   9.512  0.3720 -0.9010 -2.1778
  118OSM   H13G12482   2.551   5.730   9.441  0.5132  0.6104 -0.4310
  118OSM   C14F12483   2.388   5.774   9.316  0.1263  0.1850  0.2035
  118OSM   H14F12484   2.431   5.688   9.260  0.1170  0.2399  0.1122
  118OSM   H14G12485   2.419   5.868   9.265 -0.3094  1.2694  1.8502
  118OSM   C15F12486   2.241   5.771   9.321  0.4409  0.3224  0.0539
  118OSM   H15F12487   2.209   5.827   9.411 -1.0579 -1.5697  0.7558
  118OSM   H15G12488   2.197   5.669   9.330  1.0025 -0.0192 -0.8826
  118OSM   C16F12489   2.182   5.849   9.206  0.3569  0.0360 -0.1420
  118OSM   H16F12490   2.211   5.805   9.108 -2.3760 -2.2367 -0.0724
  118OSM   H16G12491   2.219   5.953   9.201 -1.7136  0.7945 -0.6607
  118OSM   C17F12492   2.028   5.856   9.221  0.2107  0.3867 -0.5359
  118OSM   H17F12493   1.992   5.928   9.144 -0.8097  2.6205  1.8752
  118OSM   H17G12494   2.015   5.898   9.323 -1.7802 -2.0871  0.3266
  118OSM   C18F12495   1.945   5.726   9.216  0.4818  0.3312 -0.4935
  118OSM   H18F12496   1.960   5.682   9.116 -0.7681 -0.3256 -0.4098
  118OSM   H18G12497   1.835   5.744   9.211  0.2349 -0.1853  1.6882
  118OSM   H18H12498   1.969   5.654   9.298 -1.8103  0.9698  0.8470
  119OSM      N12499   3.422   4.378  10.995 -0.0357 -0.0416  0.3521
  119OSM    C1512500   3.574   4.371  10.997 -0.8487 -0.1617 -0.1991
  119OSM   H15A12501   3.600   4.305  11.080 -0.0556 -0.1741 -0.4475
  119OSM   H15B12502   3.618   4.469  11.004 -1.9529  0.2554  1.4314
  119OSM   H15C12503   3.608   4.321  10.908 -0.6468  2.0288 -1.4137
  119OSM    C1412504   3.371   4.236  10.999  0.7288  0.5901  0.3887
  119OSM   H14A12505   3.395   4.178  11.087 -0.9567 -2.6361 -1.1067
  119OSM   H14B12506   3.412   4.173  10.922 -0.0235  0.4889  0.0668
  119OSM   H14C12507   3.264   4.232  11.012  0.7166 -1.0970 -0.1046
  119OSM    C1312508   3.380   4.454  11.121 -0.6712 -0.0827  0.0356
  119OSM   H13A12509   3.425   4.410  11.210 -0.2639  0.5246  0.1382
  119OSM   H13B12510   3.273   4.462  11.134 -0.6829  0.7593 -0.5237
  119OSM   H13C12511   3.412   4.556  11.106  0.0084 -0.5263 -1.6847
  119OSM    C1212512   3.375   4.452  10.868 -0.1459 -0.0053  0.3465
  119OSM   H12A12513   3.429   4.413  10.784  3.3895  1.0752  1.9345
  119OSM   H12B12514   3.410   4.554  10.875 -0.2220  0.1082 -0.8184
  119OSM    C1112515   3.221   4.485  10.843 -0.2274  0.3669 -0.2065
  119OSM   H11A12516   3.163   4.390  10.853  0.8384 -0.1269  1.8347
  119OSM   H11B12517   3.202   4.522  10.740  1.5372  0.2048 -0.6095
  119OSM      P12518   3.180   4.729  10.925 -0.0659  0.3556  0.2200
  119OSM    O1312519   3.099   4.800  11.024  0.3367 -0.1012  0.0518
  119OSM    O1412520   3.326   4.756  10.929  0.6040 -0.1670 -0.2878
  119OSM    O1112521   3.118   4.766  10.784  0.0996  0.0809  0.9410
  119OSM    O1212522   3.166   4.573  10.942 -0.1798 -0.0927 -0.2400
  119OSM    C1S12523   2.980   4.738  10.760 -0.2246 -0.6643 -0.8644
  119OSM    H1S12524   2.910   4.800  10.821 -2.2026 -1.3604 -2.3036
  119OSM    H1T12525   2.958   4.636  10.800  0.8766 -1.2850 -1.7998
  119OSM     NF12526   2.793   4.723  10.598  0.3603  0.0066 -0.3138
  119OSM    HNF12527   2.754   4.638  10.563 -1.6682  1.3722 -1.5232
  119OSM    C2S12528   2.936   4.741  10.612  0.0146 -0.1229  0.1646
  119OSM    H2S12529   2.954   4.843  10.574 -2.8627  0.6677  0.6739
  119OSM    C3S12530   3.021   4.644  10.519  0.2925 -0.5748 -0.7876
  119OSM    H3S12531   3.010   4.541  10.559 -1.1989  0.4131  1.5612
  119OSM     O312532   3.158   4.667  10.515  0.4014  0.3432 -0.6042
  119OSM    HO312533   3.176   4.730  10.585  0.1750 -0.4037  0.1323
  119OSM    C4S12534   2.966   4.650  10.380 -0.2467 -0.2054  0.0868
  119OSM    H4S12535   2.904   4.560  10.364 -2.8856  1.5082 -0.0993
  119OSM    C5S12536   2.980   4.741  10.282 -0.2773 -0.5002  0.8282
  119OSM    H5S12537   3.061   4.815  10.288  0.3285 -1.1237  0.4419
  119OSM    C6S12538   2.913   4.730  10.144  0.6617  0.4795 -0.3696
  119OSM    H6S12539   2.828   4.803  10.143  0.4701  0.2749  0.4116
  119OSM    H6T12540   2.868   4.630  10.126 -3.4708  2.6274 -3.9633
  119OSM    C7S12541   3.007   4.748  10.033  0.4492 -0.4645  0.6594
  119OSM    H7S12542   3.095   4.681  10.034  1.5877  0.9884  1.1039
  119OSM    H7T12543   3.052   4.848  10.022 -0.8251  0.1041  0.4048
  119OSM    C8S12544   2.939   4.722   9.894  0.1794 -0.3064 -0.1352
  119OSM    H8S12545   2.862   4.799   9.871 -0.7489 -0.4948  2.1207
  119OSM    H8T12546   2.891   4.622   9.902  3.3971 -2.0847 -1.0656
  119OSM    C9S12547   3.041   4.712   9.779  0.4790 -0.4171  0.1580
  119OSM    H9S12548   3.117   4.637   9.809  0.6142  0.7162  3.0255
  119OSM    H9T12549   3.097   4.808   9.780  2.0502 -1.2546  2.7374
  119OSM   C10S12550   2.996   4.694   9.631  0.6982 -0.5997  0.0773
  119OSM   H10S12551   2.950   4.789   9.596 -0.2838 -0.5264  1.4701
  119OSM   H10T12552   2.920   4.613   9.632  2.1205 -1.9837 -0.3416
  119OSM   C11S12553   3.114   4.661   9.541 -0.0050 -0.6305  0.7195
  119OSM   H11S12554   3.173   4.573   9.574 -1.2152 -1.4490  0.7639
  119OSM   H11T12555   3.184   4.746   9.531  1.1312 -1.7690 -1.9507
  119OSM   C12S12556   3.062   4.611   9.401 -0.0488  0.6399 -0.1494
  119OSM   H12S12557   2.994   4.680   9.348 -1.2509 -0.5528 -0.2222
  119OSM   H12T12558   3.008   4.514   9.414  1.6417 -0.5352 -1.3645
  119OSM   C13S12559   3.171   4.579   9.296  0.0376 -0.5025 -0.0883
  119OSM   H13S12560   3.117   4.539   9.208 -2.9283  0.6517  1.0930
  119OSM   H13T12561   3.242   4.509   9.347  0.3505 -0.0524  0.1003
  119OSM   C14S12562   3.273   4.690   9.263 -0.4723 -1.0276  0.1618
  119OSM   H14S12563   3.341   4.654   9.183 -0.6902 -0.0580 -0.4823
  119OSM   H14T12564   3.332   4.719   9.352  0.0655 -2.0680  0.1625
  119OSM   C15S12565   3.205   4.809   9.204  0.3953  0.0411  0.3512
  119OSM   H15S12566   3.283   4.887   9.190 -1.3513  1.5935 -1.2163
  119OSM   H15T12567   3.139   4.848   9.284 -0.6737 -0.7142 -0.1325
  119OSM   C16S12568   3.138   4.793   9.067  0.2561 -0.1201 -0.0567
  119OSM   H16S12569   3.096   4.893   9.039 -2.4058 -0.2008  3.0332
  119OSM   H16T12570   3.048   4.731   9.082 -1.3725  2.0104 -0.4730
  119OSM   C17S12571   3.227   4.729   8.951 -0.1550  0.1737 -0.7994
  119OSM   H17S12572   3.164   4.731   8.860  1.4095  1.0482 -1.9119
  119OSM   H17T12573   3.245   4.623   8.977 -1.4386  0.3510  0.9962
  119OSM   C18S12574   3.355   4.796   8.929 -0.9416 -0.1102  1.2389
  119OSM   H18S12575   3.334   4.902   8.902  0.4137 -0.2495 -0.5562
  119OSM   H18T12576   3.416   4.761   8.843  0.2308 -2.1104  2.8040
  119OSM   H18U12577   3.426   4.781   9.013  1.0422  1.2326 -0.1001
  119OSM    C1F12578   2.707   4.812  10.640  0.7505  0.5834 -0.4463
  119OSM     OF12579   2.735   4.929  10.644 -0.2626 -0.8927 -0.1253
  119OSM    C2F12580   2.574   4.762  10.685 -0.3025 -0.8117  0.5364
  119OSM    H2F12581   2.554   4.792  10.790 -1.6332 -0.3856  0.1726
  119OSM    H2G12582   2.576   4.651  10.685  1.6428 -0.8232  0.4342
  119OSM    C3F12583   2.466   4.805  10.580 -0.4231 -0.0085 -0.8655
  119OSM    H3F12584   2.496   4.769  10.480 -0.1648 -0.7011 -0.5457
  119OSM    H3G12585   2.449   4.914  10.593 -0.3290 -0.2934  2.7510
  119OSM    C4F12586   2.334   4.750  10.628  0.0319  0.4728  0.2014
  119OSM    H4F12587   2.316   4.789  10.730 -0.9328  0.7987 -0.0810
  119OSM    H4G12588   2.341   4.640  10.638  0.9844  0.6016  1.0397
  119OSM    C5F12589   2.208   4.797  10.545 -0.0361 -0.5130 -0.2626
  119OSM    H5F12590   2.194   4.906  10.562 -1.1277 -0.4337 -1.5005
  119OSM    H5G12591   2.122   4.751  10.599  1.4429 -0.7233  2.0488
  119OSM    C6F12592   2.206   4.769  10.395  0.0816  0.3293 -0.2847
  119OSM    H6F12593   2.196   4.660  10.380 -0.1563  0.5382 -1.7719
  119OSM    H6G12594   2.296   4.805  10.341 -0.6448 -0.4162 -2.0658
  119OSM    C7F12595   2.078   4.823  10.324  0.3073  0.1595  0.3048
  119OSM    H7F12596   2.081   4.933  10.342 -0.2019  0.3557 -0.6955
  119OSM    H7G12597   1.988   4.794  10.381 -0.4393  0.5214 -0.6555
  119OSM    C8F12598   2.069   4.785  10.175 -0.7009  0.2059 -0.7994
  119OSM    H8F12599   1.962   4.798  10.149 -1.1722 -2.9089 -0.8467
  119OSM    H8G12600   2.092   4.676  10.178 -1.9753 -0.0548  0.4532
  119OSM    C9F12601   2.169   4.861  10.093 -0.2478  0.1505  0.8928
  119OSM    H9F12602   2.265   4.895  10.136  0.8674 -1.4066 -0.2543
  119OSM   C10F12603   2.156   4.884   9.958 -0.1759 -0.0685  0.3930
  119OSM   H10F12604   2.231   4.941   9.902 -1.4576 -0.3763 -1.7883
  119OSM   C11F12605   2.040   4.844   9.871  0.3554  0.4777 -0.3045
  119OSM   H11F12606   1.951   4.901   9.906 -0.4089 -0.9458  0.1474
  119OSM   H11G12607   2.018   4.738   9.893 -0.0377  0.6426  0.1247
  119OSM   C12F12608   2.053   4.858   9.718  0.1883 -0.0717 -1.0465
  119OSM   H12F12609   2.108   4.951   9.693  2.1245 -1.2868 -1.5130
  119OSM   H12G12610   1.949   4.860   9.678 -1.4647 -1.0859  2.7461
  119OSM   C13F12611   2.128   4.755   9.632 -0.6123 -0.1452  0.1391
  119OSM   H13F12612   2.090   4.655   9.661  0.5251 -1.2329 -1.9032
  119OSM   H13G12613   2.235   4.749   9.660 -0.6942  1.3253  0.8624
  119OSM   C14F12614   2.117   4.790   9.482  0.2911  0.2670 -1.0438
  119OSM   H14F12615   2.153   4.894   9.469 -0.1510  0.7563  1.2282
  119OSM   H14G12616   2.011   4.795   9.450  0.1353 -1.6596 -0.9588
  119OSM   C15F12617   2.200   4.700   9.394 -0.5824 -0.8058  0.7908
  119OSM   H15F12618   2.212   4.597   9.433 -0.7926 -0.8073  0.8480
  119OSM   H15G12619   2.302   4.744   9.387 -0.8755  0.1552  2.1641
  119OSM   C16F12620   2.155   4.682   9.245  0.2274  0.1483 -0.2984
  119OSM   H16F12621   2.157   4.780   9.194 -0.2296  0.2556 -0.1151
  119OSM   H16G12622   2.050   4.648   9.258 -1.3182  3.8291 -1.8413
  119OSM   C17F12623   2.235   4.571   9.173  0.2416 -0.6352 -0.1987
  119OSM   H17F12624   2.222   4.474   9.225 -2.2413 -0.4373 -0.3521
  119OSM   H17G12625   2.344   4.589   9.189  0.1990  0.0840 -0.6678
  119OSM   C18F12626   2.197   4.565   9.020  0.1870 -0.0307 -0.2982
  119OSM   H18F12627   2.271   4.496   8.976 -0.3410 -1.0422  0.3721
  119OSM   H18G12628   2.205   4.670   8.984  2.4298  0.7961  2.2474
  119OSM   H18H12629   2.096   4.521   9.005  0.1597 -0.0886  0.0472
  120OSM      N12630   2.730   1.305  10.559 -0.6685 -0.7556  0.6056
  120OSM    C1512631   2.743   1.230  10.434 -0.6292  0.3216  0.5072
  120OSM   H15A12632   2.765   1.126  10.451 -0.6116  0.1530 -0.4822
  120OSM   H15B12633   2.827   1.266  10.376  0.3777  2.3705  3.0438
  120OSM   H15C12634   2.656   1.221  10.371  0.1772 -0.7576 -0.4929
  120OSM    C1412635   2.693   1.448  10.524 -0.5533  1.3343 -0.0556
  120OSM   H14A12636   2.686   1.517  10.607  1.7618  0.6864  0.7774
  120OSM   H14B12637   2.597   1.442  10.476  0.3955 -1.2880 -1.8999
  120OSM   H14C12638   2.774   1.490  10.466  0.2396  0.2951  0.2489
  120OSM    C1312639   2.617   1.249  10.641  0.4031  0.1097 -0.0078
  120OSM   H13A12640   2.608   1.312  10.729  0.9037 -0.0067  0.1279
  120OSM   H13B12641   2.646   1.154  10.682 -0.6026  0.9609  2.9718
  120OSM   H13C12642   2.532   1.252  10.575  0.1921 -0.0916  0.2542
  120OSM    C1212643   2.859   1.309  10.647  0.2834  0.4124  0.4152
  120OSM   H12A12644   2.847   1.389  10.718  0.0114  0.4213  0.3615
  120OSM   H12B12645   2.932   1.346  10.577 -1.3863 -1.4839 -2.5398
  120OSM    C1112646   2.915   1.179  10.710  0.1958 -0.0741  0.6675
  120OSM   H11A12647   2.840   1.135  10.778 -0.1065  1.3096  1.2584
  120OSM   H11B12648   2.997   1.207  10.778  1.1501  1.6921 -1.0987
  120OSM      P12649   2.982   0.939  10.659  0.0048  0.2513  0.1760
  120OSM    O1312650   3.069   0.955  10.779 -0.9265  0.1195  0.0312
  120OSM    O1412651   2.849   0.875  10.679 -0.2261  0.1284 -0.3821
  120OSM    O1112652   3.060   0.886  10.535  0.3461  0.1844  0.1835
  120OSM    O1212653   2.954   1.087  10.608  0.4080 -0.4315  0.2001
  120OSM    C1S12654   3.019   0.875  10.398 -0.6247  0.2272 -0.2583
  120OSM    H1S12655   3.047   0.968  10.344  3.2148 -1.2170 -1.0510
  120OSM    H1T12656   2.909   0.865  10.393 -0.5837 -1.2392  1.0798
  120OSM     NF12657   3.075   0.788  10.174 -0.2149 -0.2597 -0.0265
  120OSM    HNF12658   3.010   0.734  10.120  1.4611 -2.3869 -0.0711
  120OSM    C2S12659   3.098   0.761  10.317 -0.1647  0.1820 -0.8994
  120OSM    H2S12660   3.206   0.770  10.342 -0.5443  1.1415  0.5167
  120OSM    C3S12661   3.035   0.627  10.362 -0.1568 -0.5028 -0.2792
  120OSM    H3S12662   2.929   0.629  10.330 -0.2472 -2.8065 -0.2394
  120OSM     O312663   3.019   0.611  10.501  0.4598 -0.1198  0.4168
  120OSM    HO312664   3.038   0.700  10.531 -1.6308  0.4385  0.2224
  120OSM    C4S12665   3.100   0.507  10.306 -0.4228 -0.2982 -0.1862
  120OSM    H4S12666   3.051   0.483  10.210  1.7364  0.1035 -1.4344
  120OSM    C5S12667   3.204   0.429  10.349 -0.1336  0.1923 -0.4575
  120OSM    H5S12668   3.248   0.451  10.448 -1.5366 -3.9673  1.3145
  120OSM    C6S12669   3.245   0.298  10.279 -0.2610 -0.4892 -0.7702
  120OSM    H6S12670   3.278   0.223  10.355  1.4726  1.1795  0.2059
  120OSM    H6T12671   3.327   0.317  10.207 -0.2820 -0.7140 -0.8572
  120OSM    C7S12672   3.117   0.230  10.224 -0.4831  0.0719 -0.1477
  120OSM    H7S12673   3.095   0.273  10.124  2.0968  1.3176 -0.2766
  120OSM    H7T12674   3.033   0.244  10.296 -1.3148  1.2729 -1.3100
  120OSM    C8S12675   3.132   0.079  10.203  0.5737  0.2493  0.2863
  120OSM    H8S12676   3.139   0.019  10.296  1.3825 -0.5102 -0.2318
  120OSM    H8T12677   3.233   0.057  10.161  0.2355 -2.1757  0.6087
  120OSM    C9S12678   3.021   0.018  10.121 -0.0289 -0.1737 -0.0903
  120OSM    H9S12679   2.923   0.053  10.160  1.3352  2.7358  1.0628
  120OSM    H9T12680   3.028  -0.092  10.137  1.4286 -0.3930 -1.8891
  120OSM   C10S12681   3.030   0.038   9.966  0.3830 -0.2675 -0.1249
  120OSM   H10S12682   3.128   0.006   9.924  1.3528 -1.3479  2.6851
  120OSM   H10T12683   3.015   0.148   9.971 -0.1368 -0.3765  3.1555
  120OSM   C11S12684   2.922  -0.027   9.884  0.0174 -0.4458 -0.3577
  120OSM   H11S12685   2.825  -0.009   9.935  0.6986  0.3273  0.7043
  120OSM   H11T12686   2.933  -0.138   9.886 -0.4322 -0.5244 -1.4727
  120OSM   C12S12687   2.905   0.034   9.740 -0.4805  0.5466 -0.3546
  120OSM   H12S12688   3.009   0.036   9.699  0.1986 -1.0943  1.1756
  120OSM   H12T12689   2.865   0.137   9.751  0.2960  0.7307  0.9848
  120OSM   C13S12690   2.808  -0.033   9.638 -0.4654 -0.6788 -0.6155
  120OSM   H13S12691   2.706  -0.025   9.681  0.8934  1.6725  2.6012
  120OSM   H13T12692   2.838  -0.140   9.628  1.4571 -0.4469  1.6621
  120OSM   C14S12693   2.811   0.047   9.506 -1.3132 -0.3389  0.8680
  120OSM   H14S12694   2.916   0.069   9.475 -1.6201 -0.2009 -0.1037
  120OSM   H14T12695   2.767   0.148   9.505  1.1387  0.8132  0.8667
  120OSM   C15S12696   2.741  -0.028   9.393 -0.6873  0.4502 -0.0687
  120OSM   H15S12697   2.636  -0.047   9.423 -0.4709 -1.3664 -0.3356
  120OSM   H15T12698   2.797  -0.123   9.378  0.7590  1.5306 -2.0780
  120OSM   C16S12699   2.739   0.044   9.254  0.3388  1.1656 -0.1185
  120OSM   H16S12700   2.728   0.153   9.265  0.5048  0.9560  3.0354
  120OSM   H16T12701   2.645   0.014   9.202  0.3570  1.4503 -0.3134
  120OSM   C17S12702   2.859   0.025   9.164 -0.6196  0.4989  0.3363
  120OSM   H17S12703   2.945   0.059   9.225  0.5457 -1.7950  0.0756
  120OSM   H17T12704   2.839   0.090   9.076 -0.0529 -1.2122 -1.1252
  120OSM   C18S12705   2.887  -0.112   9.110  0.3898 -0.5528  0.3348
  120OSM   H18S12706   2.928  -0.183   9.185  1.4585 -1.1371 -0.7594
  120OSM   H18T12707   2.951  -0.116   9.019 -0.7509 -1.0236 -0.4823
  120OSM   H18U12708   2.792  -0.167   9.090 -0.2669  0.5309  0.4307
  120OSM    C1F12709   3.127   0.887  10.104 -0.2186 -0.2341  0.4579
  120OSM     OF12710   3.185   0.976  10.165 -0.1637  0.3763  0.6582
  120OSM    C2F12711   3.115   0.885   9.954 -0.3090 -0.1148  0.2072
  120OSM    H2F12712   3.031   0.955   9.934 -0.9335  0.1367  3.2407
  120OSM    H2G12713   3.076   0.783   9.933 -1.5107 -0.6141  4.0363
  120OSM    C3F12714   3.243   0.913   9.878  0.1798  0.0643 -0.5964
  120OSM    H3F12715   3.336   0.881   9.930  1.7265  0.5606 -2.9116
  120OSM    H3G12716   3.259   1.022   9.889 -0.7524  0.0351  1.4413
  120OSM    C4F12717   3.240   0.868   9.736  0.4680  0.0389 -0.4047
  120OSM    H4F12718   3.238   0.757   9.728 -1.6103 -0.0810  1.2183
  120OSM    H4G12719   3.341   0.891   9.693  0.0716 -0.8121 -1.8677
  120OSM    C5F12720   3.126   0.922   9.646 -0.5018  0.2372  0.3418
  120OSM    H5F12721   3.142   1.032   9.644  1.7282  0.0446  2.4223
  120OSM    H5G12722   3.029   0.888   9.689  0.0657 -1.9043  0.0348
  120OSM    C6F12723   3.129   0.863   9.503 -0.4560 -0.0357 -0.1823
  120OSM    H6F12724   3.027   0.861   9.459 -0.8990  1.7861  0.6829
  120OSM    H6G12725   3.155   0.755   9.508  3.3680  0.7417 -0.0815
  120OSM    C7F12726   3.233   0.923   9.402 -0.1012 -0.0602 -1.0346
  120OSM    H7F12727   3.339   0.923   9.435 -0.4005 -0.8728  0.0052
  120OSM    H7G12728   3.207   1.028   9.378 -0.9561 -0.1443 -0.5070
  120OSM    C8F12729   3.218   0.854   9.268 -0.0634  0.3298 -0.0687
  120OSM    H8F12730   3.108   0.853   9.250 -0.1277  0.7053  0.2927
  120OSM    H8G12731   3.258   0.752   9.290 -1.1921  0.0802  0.9151
  120OSM    C9F12732   3.291   0.910   9.158  0.0897  0.1714 -0.1440
  120OSM    H9F12733   3.367   0.981   9.194  1.5058 -1.0921 -0.5675
  120OSM   C10F12734   3.272   0.891   9.021  0.6572  0.3098 -0.5379
  120OSM   H10F12735   3.338   0.947   8.954 -0.1552  0.7502 -0.9799
  120OSM   C11F12736   3.180   0.792   8.959  0.2163  0.2699 -0.2377
  120OSM   H11F12737   3.146   0.728   9.043  1.5691 -0.2578 -0.0653
  120OSM   H11G12738   3.223   0.724   8.883 -0.5208  0.3293 -0.7125
  120OSM   C12F12739   3.058   0.869   8.904 -0.1331 -0.6009  0.2577
  120OSM   H12F12740   3.008   0.936   8.978 -0.5718  1.5284 -1.8362
  120OSM   H12G12741   2.980   0.802   8.862 -0.5493  0.1427 -0.1952
  120OSM   C13F12742   3.094   0.963   8.795  0.1205 -0.1801 -0.2161
  120OSM   H13F12743   3.132   0.900   8.712 -1.6737  1.0652 -2.1025
  120OSM   H13G12744   3.163   1.036   8.842 -1.0222  1.8017 -1.4716
  120OSM   C14F12745   2.977   1.048   8.748  0.3178  0.1869 -0.8167
  120OSM   H14F12746   3.014   1.123   8.675 -0.7103  0.1136 -1.4368
  120OSM   H14G12747   2.939   1.124   8.820  3.7543  1.5431 -0.2814
  120OSM   C15F12748   2.859   0.973   8.683  0.2372  0.8436  0.1314
  120OSM   H15F12749   2.803   0.910   8.755 -0.1634  2.8546  1.6705
  120OSM   H15G12750   2.901   0.900   8.611 -0.8203 -0.0729  0.4173
  120OSM   C16F12751   2.754   1.057   8.611 -0.7953  0.3404  0.6687
  120OSM   H16F12752   2.813   1.117   8.539  0.5193 -1.1795  0.4377
  120OSM   H16G12753   2.709   1.131   8.681  2.9571  1.0065  2.5976
  120OSM   C17F12754   2.644   0.971   8.537 -0.3089  0.5463 -0.6852
  120OSM   H17F12755   2.694   0.883   8.490 -1.7500 -0.9041  0.3469
  120OSM   H17G12756   2.592   1.037   8.464  2.4019  2.4995 -0.9794
  120OSM   C18F12757   2.545   0.907   8.635 -0.1920 -0.6584 -0.4358
  120OSM   H18F12758   2.456   0.860   8.586 -0.0847 -1.5712  0.2097
  120OSM   H18G12759   2.517   0.988   8.705  0.6414  2.4528 -3.4263
  120OSM   H18H12760   2.586   0.824   8.697 -0.4721 -0.9462 -0.6287
  121OSM      N12761   6.518   3.140  11.032  0.2199 -0.2446  0.1148
  121OSM    C1512762   6.440   3.266  11.048 -0.0219 -0.0893  0.4134
  121OSM   H15A12763   6.394   3.293  10.954 -1.5257 -0.4028  1.0426
  121OSM   H15B12764   6.508   3.343  11.082  1.3345 -0.5681 -1.1041
  121OSM   H15C12765   6.359   3.258  11.119  0.6668 -0.3498  1.1997
  121OSM    C1412766   6.569   3.090  11.163  0.6696 -0.4438  0.3945
  121OSM   H14A12767   6.610   2.994  11.138  0.0155 -0.5626 -0.2351
  121OSM   H14B12768   6.480   3.077  11.223  0.4346  1.6927  0.6143
  121OSM   H14C12769   6.633   3.161  11.214 -1.3060  1.3371  0.5305
  121OSM    C1312770   6.413   3.050  10.974  0.4537  0.4110  0.3910
  121OSM   H13A12771   6.448   2.948  10.979 -3.5205 -1.0678  3.0643
  121OSM   H13B12772   6.390   3.082  10.873 -1.9407  0.1094  0.7981
  121OSM   H13C12773   6.330   3.043  11.042  1.0869 -0.4635  1.1034
  121OSM    C1212774   6.628   3.174  10.939 -0.0204  0.0591  0.1802
  121OSM   H12A12775   6.705   3.231  10.989  2.0460  0.3345 -3.0292
  121OSM   H12B12776   6.595   3.241  10.862  3.1240  2.0322  0.3501
  121OSM    C1112777   6.693   3.060  10.858 -0.0049 -0.2095  0.0615
  121OSM   H11A12778   6.768   3.106  10.790 -0.0416 -0.4639 -0.1522
  121OSM   H11B12779   6.616   3.015  10.793  1.0744 -1.0799 -0.6454
  121OSM      P12780   6.750   2.816  10.932 -0.1663 -0.1261  0.0872
  121OSM    O1312781   6.860   2.764  11.020 -0.2772 -0.4908  0.1030
  121OSM    O1412782   6.610   2.774  10.961  0.1194  0.0577  0.2009
  121OSM    O1112783   6.777   2.781  10.777 -0.0981 -0.1252 -0.2764
  121OSM    O1212784   6.761   2.972  10.945 -0.0462  0.8070  0.0353
  121OSM    C1S12785   6.886   2.836  10.702 -0.2997 -0.5483  0.1994
  121OSM    H1S12786   6.977   2.774  10.720  0.2558  0.3089  0.4139
  121OSM    H1T12787   6.911   2.939  10.734 -2.8129  0.2614 -0.2362
  121OSM     NF12788   6.975   2.928  10.496  0.5200 -0.2791 -0.5122
  121OSM    HNF12789   6.944   3.022  10.498 -3.6649 -1.4403 -0.8187
  121OSM    C2S12790   6.863   2.855  10.551 -0.3344  0.4506 -0.0337
  121OSM    H2S12791   6.866   2.756  10.501  0.8427  0.2234  0.4412
  121OSM    C3S12792   6.719   2.926  10.523 -0.3279 -0.2220  0.1557
  121OSM    H3S12793   6.721   3.028  10.567  2.0827  0.4702 -1.3675
  121OSM     O312794   6.607   2.855  10.584 -0.0828  0.2805 -0.5340
  121OSM    HO312795   6.639   2.783  10.637 -0.9259  0.7794  0.6970
  121OSM    C4S12796   6.693   2.940  10.376  0.0614  0.8432 -0.0871
  121OSM    H4S12797   6.640   2.849  10.343  0.7816  0.0031  1.0061
  121OSM    C5S12798   6.707   3.047  10.294 -0.1474  0.1614 -0.1792
  121OSM    H5S12799   6.749   3.136  10.342 -0.8933  0.5186 -0.1768
  121OSM    C6S12800   6.684   3.052  10.139  0.1280 -0.5336  0.3120
  121OSM    H6S12801   6.627   3.143  10.110 -0.6641 -1.5931 -1.5822
  121OSM    H6T12802   6.623   2.963  10.115 -0.6447  0.2342 -0.6678
  121OSM    C7S12803   6.816   3.052  10.062  0.4364  0.2244  0.7066
  121OSM    H7S12804   6.870   2.959  10.087  2.5755  1.3215  0.3790
  121OSM    H7T12805   6.872   3.145  10.087  1.4303 -0.4010  0.8441
  121OSM    C8S12806   6.793   3.048   9.904 -0.3167  0.1028 -0.0423
  121OSM    H8S12807   6.763   2.948   9.867  2.5646 -1.6784  2.0618
  121OSM    H8T12808   6.897   3.060   9.869  0.9949 -3.7659  1.9902
  121OSM    C9S12809   6.694   3.160   9.856  0.7380 -0.5085  0.0970
  121OSM    H9S12810   6.729   3.260   9.890  0.0547 -0.0718 -0.4574
  121OSM    H9T12811   6.592   3.158   9.899  0.2241  1.6589 -0.8935
  121OSM   C10S12812   6.663   3.173   9.702  0.6817 -0.0650  0.1587
  121OSM   H10S12813   6.575   3.239   9.690 -1.4203 -2.5913  0.7803
  121OSM   H10T12814   6.636   3.070   9.670  0.4660 -0.0968  0.4450
  121OSM   C11S12815   6.784   3.223   9.624 -0.7747 -0.4743 -0.0474
  121OSM   H11S12816   6.867   3.150   9.622 -1.6600 -1.4858 -0.2093
  121OSM   H11T12817   6.814   3.324   9.659 -2.1962  0.5280 -1.5604
  121OSM   C12S12818   6.741   3.243   9.477  0.3811  0.0080 -0.7132
  121OSM   H12S12819   6.669   3.328   9.479  1.0185  0.5964  2.1795
  121OSM   H12T12820   6.713   3.143   9.438  1.1687 -0.4577 -0.1190
  121OSM   C13S12821   6.841   3.289   9.378 -0.0812 -0.5222  0.3629
  121OSM   H13S12822   6.925   3.218   9.384 -1.4262 -2.1951  0.1238
  121OSM   H13T12823   6.882   3.388   9.408  0.4666 -0.6224 -0.0439
  121OSM   C14S12824   6.797   3.297   9.233  0.1839  0.5040 -0.9561
  121OSM   H14S12825   6.740   3.392   9.224 -0.7564  0.3439  2.1908
  121OSM   H14T12826   6.746   3.208   9.192 -0.8156  0.3176  0.6078
  121OSM   C15S12827   6.925   3.300   9.145  0.0949  0.4143 -0.6226
  121OSM   H15S12828   6.988   3.211   9.167  0.9825  1.2373  0.2349
  121OSM   H15T12829   6.981   3.392   9.170  0.9316 -1.1482  4.2269
  121OSM   C16S12830   6.882   3.287   8.999  0.2261  0.5554 -0.4992
  121OSM   H16S12831   6.843   3.381   8.955  0.1807  1.2804  1.0011
  121OSM   H16T12832   6.803   3.209   8.997 -0.1015  0.8966 -1.6170
  121OSM   C17S12833   7.012   3.259   8.919 -0.1937 -0.6492 -0.1574
  121OSM   H17S12834   6.975   3.224   8.820 -0.6572 -1.0826  0.1611
  121OSM   H17T12835   7.061   3.166   8.955  1.9694  0.6433  0.3972
  121OSM   C18S12836   7.107   3.370   8.901 -1.0275  1.0915 -1.1740
  121OSM   H18S12837   7.117   3.437   8.989  0.7246  1.3883 -1.5647
  121OSM   H18T12838   7.068   3.447   8.831  1.8301  2.3266 -1.5447
  121OSM   H18U12839   7.205   3.336   8.859 -0.3019  1.3871  0.2341
  121OSM    C1F12840   7.097   2.883  10.478  0.1867  0.3103  0.6066
  121OSM     OF12841   7.124   2.764  10.484 -0.1315  0.8704  0.3387
  121OSM    C2F12842   7.205   2.982  10.441  0.5739  0.3883 -0.3998
  121OSM    H2F12843   7.225   3.047  10.529 -1.5846  1.5704 -0.7217
  121OSM    H2G12844   7.153   3.029  10.355  0.3721  1.8876  0.5181
  121OSM    C3F12845   7.320   2.914  10.376 -0.9413 -0.0325 -0.8536
  121OSM    H3F12846   7.352   2.836  10.449  1.0668  0.7935 -0.7743
  121OSM    H3G12847   7.406   2.983  10.367 -1.0609  0.6508  2.3513
  121OSM    C4F12848   7.293   2.853  10.238  0.3754  0.4619 -0.1720
  121OSM    H4F12849   7.196   2.798  10.231 -0.3726  1.6406  0.5912
  121OSM    H4G12850   7.365   2.770  10.222  0.1510 -0.7895  4.0393
  121OSM    C5F12851   7.287   2.947  10.119 -0.4460 -0.3690 -0.3665
  121OSM    H5F12852   7.386   2.996  10.112 -0.4230 -0.0902  1.4065
  121OSM    H5G12853   7.227   3.036  10.147  3.2217  2.3984 -0.5527
  121OSM    C6F12854   7.233   2.896   9.989  1.0044 -0.7021  1.0311
  121OSM    H6F12855   7.126   2.868   9.995  0.4062  0.8590 -1.1520
  121OSM    H6G12856   7.287   2.807   9.951  1.9566 -0.2711  1.3476
  121OSM    C7F12857   7.231   3.006   9.881  0.0025 -0.5541  0.2021
  121OSM    H7F12858   7.336   3.038   9.863  1.1319 -3.1354  1.6586
  121OSM    H7G12859   7.182   3.094   9.927  0.0248 -0.6445  0.4042
  121OSM    C8F12860   7.157   2.960   9.747  0.4350  0.0295  0.0236
  121OSM    H8F12861   7.132   3.050   9.687  2.1821  1.5633  1.4650
  121OSM    H8G12862   7.065   2.906   9.778 -0.4421  0.2816 -1.9827
  121OSM    C9F12863   7.238   2.862   9.665  0.0080 -0.6193  0.1366
  121OSM    H9F12864   7.238   2.758   9.700 -1.5400 -0.8463 -0.4453
  121OSM   C10F12865   7.306   2.890   9.552  0.2652  0.4142 -0.9155
  121OSM   H10F12866   7.345   2.809   9.488 -1.6945  0.7199 -2.6098
  121OSM   C11F12867   7.316   3.031   9.491  0.0010  0.0325 -0.7945
  121OSM   H11F12868   7.405   3.080   9.537  1.1287 -1.5344 -1.1808
  121OSM   H11G12869   7.220   3.085   9.503  1.4837  2.2473  2.6503
  121OSM   C12F12870   7.347   3.019   9.343  0.6552  0.3575 -0.1303
  121OSM   H12F12871   7.446   2.969   9.337  0.1350 -0.6299 -0.8349
  121OSM   H12G12872   7.370   3.117   9.297  0.3958 -0.4941 -2.2138
  121OSM   C13F12873   7.252   2.934   9.249 -0.0040  0.0527  0.1879
  121OSM   H13F12874   7.160   2.996   9.257  0.2190  0.3135  0.8895
  121OSM   H13G12875   7.238   2.828   9.279 -2.6214 -0.1604 -1.4733
  121OSM   C14F12876   7.278   2.946   9.091 -0.7346 -0.1846 -0.3351
  121OSM   H14F12877   7.266   3.049   9.052  0.8677 -0.6035 -2.1044
  121OSM   H14G12878   7.212   2.874   9.037 -2.2229  0.6673  0.2925
  121OSM   C15F12879   7.423   2.917   9.064 -0.5337 -0.3147 -0.2539
  121OSM   H15F12880   7.447   2.815   9.102 -0.9292 -1.1569 -2.1858
  121OSM   H15G12881   7.481   2.998   9.114  1.9945 -1.5940 -0.9179
  121OSM   C16F12882   7.460   2.922   8.915 -0.1482  0.5153  0.1302
  121OSM   H16F12883   7.428   2.830   8.861  0.6072  1.3159 -1.7579
  121OSM   H16G12884   7.571   2.929   8.917 -0.2113  2.8102  2.9063
  121OSM   C17F12885   7.411   3.046   8.850 -0.6395  0.2415 -0.0742
  121OSM   H17F12886   7.459   3.136   8.894  0.2335  0.2034 -0.9164
  121OSM   H17G12887   7.301   3.053   8.865 -0.6438  0.5387 -0.2335
  121OSM   C18F12888   7.422   3.053   8.696  0.4769 -0.3510  0.8964
  121OSM   H18F12889   7.367   2.969   8.649  4.0128 -2.0233 -0.6166
  121OSM   H18G12890   7.525   3.052   8.654 -0.0931 -1.8000 -0.5758
  121OSM   H18H12891   7.369   3.147   8.667  2.2762  0.1522 -1.0523
  122OSM      N12892   4.978   1.472  11.021 -0.2994 -0.8407  0.0667
  122OSM    C1512893   4.981   1.445  11.164 -0.9734  0.2686  0.2790
  122OSM   H15A12894   4.879   1.429  11.197 -2.0903  0.6850 -2.6915
  122OSM   H15B12895   5.018   1.532  11.217  0.2004 -0.4326  0.6315
  122OSM   H15C12896   5.049   1.370  11.201 -1.8806 -0.2204  1.0298
  122OSM    C1412897   5.119   1.487  10.973 -0.6092  0.3777  0.1021
  122OSM   H14A12898   5.121   1.515  10.869  0.6789  1.5470  0.4088
  122OSM   H14B12899   5.167   1.393  10.994 -2.2208 -0.1780  1.4352
  122OSM   H14C12900   5.172   1.564  11.027  0.7003  0.4995 -1.2935
  122OSM    C1312901   4.911   1.360  10.953  0.2904  0.0932  0.1851
  122OSM   H13A12902   4.962   1.266  10.970 -0.1020  0.3240  3.2826
  122OSM   H13B12903   4.905   1.379  10.847  0.2255  1.9857  0.4958
  122OSM   H13C12904   4.808   1.363  10.983 -0.1867  0.5851 -1.4519
  122OSM    C1212905   4.897   1.593  10.998  0.5277  0.0222 -0.1341
  122OSM   H12A12906   4.924   1.688  11.043 -0.1554  1.1713 -2.0241
  122OSM   H12B12907   4.795   1.589  11.032 -0.0669  2.8308 -1.2680
  122OSM    C1112908   4.893   1.643  10.848 -0.3680  0.7789 -0.0430
  122OSM   H11A12909   4.800   1.698  10.824 -0.5048  0.0614 -1.2376
  122OSM   H11B12910   4.875   1.553  10.785  0.9941 -0.4700  1.2630
  122OSM      P12911   5.055   1.843  10.833  0.0433 -0.2545  0.2522
  122OSM    O1312912   4.945   1.933  10.798 -0.2580  0.6823 -0.3680
  122OSM    O1412913   5.111   1.853  10.969 -0.0712 -0.0452 -0.4502
  122OSM    O1112914   5.159   1.871  10.719  0.5523 -0.3176 -0.6570
  122OSM    O1212915   5.017   1.700  10.802 -0.0389  0.4389  0.5312
  122OSM    C1S12916   5.280   1.794  10.711  0.6856 -0.1863 -0.1567
  122OSM    H1S12917   5.266   1.689  10.743  1.5471 -0.6350 -1.1769
  122OSM    H1T12918   5.360   1.835  10.777 -0.8812  1.4115  0.8658
  122OSM     NF12919   5.440   1.706  10.547 -0.0861  0.4662 -0.1006
  122OSM    HNF12920   5.534   1.737  10.535 -0.5143  2.0708  0.4348
  122OSM    C2S12921   5.330   1.795  10.563 -0.3857  0.2914  0.0788
  122OSM    H2S12922   5.248   1.759  10.496 -0.0103  1.5673 -1.1164
  122OSM    C3S12923   5.373   1.941  10.522 -0.2409  0.3082  0.0414
  122OSM    H3S12924   5.460   1.966  10.586 -0.9969  1.1744  0.7735
  122OSM     O312925   5.278   2.038  10.557 -1.3570  0.6274 -0.0256
  122OSM    HO312926   5.208   1.986  10.597 -0.4559 -0.8714 -0.3377
  122OSM    C4S12927   5.425   1.959  10.376  0.3985 -0.6610 -0.1194
  122OSM    H4S12928   5.532   1.941  10.361  0.2413 -0.7600 -1.2203
  122OSM    C5S12929   5.355   2.007  10.270 -0.1405 -0.2311 -0.9120
  122OSM    H5S12930   5.246   2.014  10.287 -0.0335 -1.4591  0.4737
  122OSM    C6S12931   5.400   2.023  10.126 -0.7055  0.3617 -0.8598
  122OSM    H6S12932   5.405   2.129  10.090 -0.2000 -0.6438 -4.1059
  122OSM    H6T12933   5.322   1.977  10.061 -1.2506 -0.6485  0.4719
  122OSM    C7S12934   5.547   1.978  10.098  0.6474 -0.4894  0.1898
  122OSM    H7S12935   5.567   1.874  10.131 -0.5119 -0.1124  2.2398
  122OSM    H7T12936   5.616   2.040  10.158 -2.1462  0.1410  3.0007
  122OSM    C8S12937   5.582   2.000   9.950 -0.0069 -0.2121  0.3421
  122OSM    H8S12938   5.571   2.106   9.921  0.4246 -0.0571  0.7423
  122OSM    H8T12939   5.515   1.938   9.886  0.7353 -0.4057 -0.2676
  122OSM    C9S12940   5.730   1.957   9.925  0.0010  0.0058 -0.1868
  122OSM    H9S12941   5.730   1.846   9.929 -3.4947 -0.1894 -1.9899
  122OSM    H9T12942   5.802   1.985  10.005 -1.6043 -1.3723  1.8407
  122OSM   C10S12943   5.776   1.987   9.789  0.4206 -1.4081 -0.8874
  122OSM   H10S12944   5.879   1.950   9.766 -0.0137 -0.7874 -4.5773
  122OSM   H10T12945   5.770   2.097   9.770  0.6931 -1.3937 -0.8987
  122OSM   C11S12946   5.695   1.930   9.671 -0.4424 -0.5672  0.6250
  122OSM   H11S12947   5.599   1.985   9.666 -0.1606 -0.1458 -0.3719
  122OSM   H11T12948   5.678   1.821   9.683  0.9383 -1.0105 -1.0295
  122OSM   C12S12949   5.770   1.961   9.537 -0.0604  0.5543  0.0279
  122OSM   H12S12950   5.879   1.938   9.544 -0.3330 -0.4203  1.6873
  122OSM   H12T12951   5.773   2.072   9.533 -1.3772  0.7216  2.1311
  122OSM   C13S12952   5.706   1.885   9.419 -0.2507  0.3938 -0.2061
  122OSM   H13S12953   5.601   1.922   9.421 -0.1680  0.6186  0.6539
  122OSM   H13T12954   5.711   1.777   9.441  2.4510  0.4685 -0.0884
  122OSM   C14S12955   5.768   1.917   9.286  0.1449  0.2012 -0.3733
  122OSM   H14S12956   5.743   1.827   9.225 -0.1723 -0.4360  0.6599
  122OSM   H14T12957   5.876   1.920   9.311 -0.0000  0.8712  0.2037
  122OSM   C15S12958   5.722   2.050   9.213 -0.8904 -0.5122  0.1775
  122OSM   H15S12959   5.801   2.076   9.139 -0.4768  0.6668  1.0026
  122OSM   H15T12960   5.728   2.132   9.287  1.8883 -0.1602 -0.3523
  122OSM   C16S12961   5.583   2.036   9.155 -0.1150 -0.5024 -0.1953
  122OSM   H16S12962   5.538   2.136   9.140 -0.6497 -0.5601  0.9429
  122OSM   H16T12963   5.506   1.996   9.225  0.5540  0.0274  0.8598
  122OSM   C17S12964   5.578   1.966   9.019  0.6578  0.2783  0.1614
  122OSM   H17S12965   5.609   1.860   9.027 -0.3498  0.0053  0.5736
  122OSM   H17T12966   5.640   2.023   8.945 -0.0647 -1.7573 -2.1352
  122OSM   C18S12967   5.431   1.972   8.974 -0.0038  0.4634  0.1466
  122OSM   H18S12968   5.387   2.074   8.975 -2.2543 -0.3379 -2.2637
  122OSM   H18T12969   5.371   1.923   9.054 -1.8772  0.4713 -1.1755
  122OSM   H18U12970   5.410   1.918   8.879 -0.8772 -1.2484  1.2654
  122OSM    C1F12971   5.424   1.571  10.541  0.1138 -0.0129 -0.4791
  122OSM     OF12972   5.321   1.510  10.583 -0.2375 -0.4103 -0.4114
  122OSM    C2F12973   5.539   1.495  10.485  0.2269  0.2108 -0.1151
  122OSM    H2F12974   5.578   1.431  10.567 -0.4718  1.2828  1.0838
  122OSM    H2G12975   5.620   1.565  10.454  1.4311 -1.5170 -1.0677
  122OSM    C3F12976   5.498   1.401  10.366 -0.6906 -0.0903 -0.1610
  122OSM    H3F12977   5.409   1.339  10.390 -0.5192 -0.2835 -0.0173
  122OSM    H3G12978   5.588   1.339  10.344 -0.4215 -0.1379  0.9639
  122OSM    C4F12979   5.456   1.480  10.243 -0.3958  0.4882  0.4777
  122OSM    H4F12980   5.354   1.523  10.249 -0.8773 -0.7188  1.4827
  122OSM    H4G12981   5.440   1.403  10.164 -0.2610 -0.1283  1.0364
  122OSM    C5F12982   5.564   1.562  10.176 -0.4117 -0.1647  1.2541
  122OSM    H5F12983   5.663   1.512  10.179 -0.2068  0.0905 -0.3868
  122OSM    H5G12984   5.576   1.658  10.231 -1.3765  0.1038  1.0044
  122OSM    C6F12985   5.530   1.597  10.030  0.4963  0.9533 -0.5750
  122OSM    H6F12986   5.561   1.521   9.955 -2.3862  1.3449 -2.3077
  122OSM    H6G12987   5.590   1.681   9.989 -0.4162  1.9908  0.1581
  122OSM    C7F12988   5.381   1.642  10.009  0.2453 -0.1726 -0.8973
  122OSM    H7F12989   5.351   1.738  10.056 -2.7764 -1.5474  0.1625
  122OSM    H7G12990   5.322   1.556  10.046  0.5121  0.0743  0.1238
  122OSM    C8F12991   5.346   1.649   9.862 -0.0858 -0.3436 -0.1509
  122OSM    H8F12992   5.370   1.555   9.807  0.2446  0.5832 -1.6409
  122OSM    H8G12993   5.402   1.727   9.808 -0.4332 -0.0198 -0.0494
  122OSM    C9F12994   5.197   1.661   9.829 -0.3061 -0.1954  0.3786
  122OSM    H9F12995   5.131   1.693   9.911  3.0128  1.7903  2.4763
  122OSM   C10F12996   5.148   1.667   9.705  0.0830 -0.0558 -0.3912
  122OSM   H10F12997   5.041   1.691   9.696 -0.6123 -2.0666  1.5228
  122OSM   C11F12998   5.223   1.648   9.580 -0.3018 -0.6232  0.4572
  122OSM   H11F12999   5.188   1.556   9.530 -1.1742 -0.9929  1.7145
  122OSM   H11G13000   5.333   1.654   9.598 -0.3575  1.7578  0.3057
  122OSM   C12F13001   5.191   1.766   9.480  0.2167 -0.2466  0.0338
  122OSM   H12F13002   5.083   1.777   9.459  0.6388  0.9883 -1.6865
  122OSM   H12G13003   5.233   1.734   9.382 -0.2356 -0.0606 -0.2214
  122OSM   C13F13004   5.256   1.900   9.508 -0.2288 -0.2332 -0.6512
  122OSM   H13F13005   5.364   1.875   9.503 -0.5362 -1.7739 -0.0879
  122OSM   H13G13006   5.234   1.936   9.610 -2.0220 -0.9540 -0.7458
  122OSM   C14F13007   5.215   2.006   9.402  0.4672 -0.2695 -0.2257
  122OSM   H14F13008   5.106   2.021   9.417  0.6112 -1.5129  2.7279
  122OSM   H14G13009   5.238   1.966   9.301 -1.0876 -0.6563 -0.4591
  122OSM   C15F13010   5.299   2.135   9.418 -0.0830 -0.7335  0.0237
  122OSM   H15F13011   5.298   2.197   9.326 -0.1613  0.8959  1.0658
  122OSM   H15G13012   5.404   2.099   9.418 -0.2708 -1.5350  2.7924
  122OSM   C16F13013   5.261   2.210   9.545 -0.5142 -0.9062 -0.4309
  122OSM   H16F13014   5.310   2.309   9.539 -0.3252 -0.7981  2.0028
  122OSM   H16G13015   5.300   2.169   9.640 -0.1378 -0.1042 -0.2342
  122OSM   C17F13016   5.111   2.253   9.552 -0.6042  0.0181  0.3250
  122OSM   H17F13017   5.100   2.334   9.627 -1.1803  1.6889 -1.4955
  122OSM   H17G13018   5.052   2.166   9.590  0.5004 -0.3498  1.2502
  122OSM   C18F13019   5.047   2.307   9.422  0.3131  0.2712  0.1035
  122OSM   H18F13020   5.113   2.389   9.386 -0.8111  1.5296  0.8289
  122OSM   H18G13021   4.943   2.340   9.444 -0.4340 -0.4857 -2.0116
  122OSM   H18H13022   5.035   2.225   9.347 -2.1923 -0.2467  0.9597
  123OSM      N13023   1.412   0.012   5.966 -0.6183 -0.1215 -0.8404
  123OSM    C1513024   1.490  -0.086   6.045 -0.2272  0.6162 -0.0858
  123OSM   H15A13025   1.552  -0.141   5.975 -1.1047 -0.0604 -0.3491
  123OSM   H15B13026   1.428  -0.157   6.097  1.7791 -1.2205 -0.0589
  123OSM   H15C13027   1.556  -0.047   6.122  0.1080 -0.3717  0.1432
  123OSM    C1413028   1.511   0.086   5.874  0.2850  0.0126  0.2938
  123OSM   H14A13029   1.469   0.174   5.827  0.3420  0.4759  1.0929
  123OSM   H14B13030   1.542   0.015   5.799 -2.1920 -0.0077 -0.8152
  123OSM   H14C13031   1.602   0.121   5.921 -0.3646  1.8623  0.2735
  123OSM    C1313032   1.316  -0.059   5.873 -0.1941  0.3744 -0.1192
  123OSM   H13A13033   1.269   0.004   5.800 -1.2545 -0.2807 -0.0228
  123OSM   H13B13034   1.237  -0.088   5.940  1.3426  1.9713  2.5415
  123OSM   H13C13035   1.361  -0.152   5.841  1.7176  2.3872 -4.1044
  123OSM    C1213036   1.350   0.117   6.057  1.0908 -0.7058 -0.7114
  123OSM   H12A13037   1.291   0.184   5.997  0.3408  0.1732  0.9397
  123OSM   H12B13038   1.430   0.170   6.106 -0.7902  0.9858  0.7288
  123OSM    C1113039   1.246   0.073   6.163 -0.4974 -0.1458 -1.2669
  123OSM   H11A13040   1.226   0.161   6.227  0.2715  1.0846 -2.6468
  123OSM   H11B13041   1.302  -0.002   6.224 -0.7455  0.3959 -0.3527
  123OSM      P13042   1.045  -0.107   6.161  0.1404 -0.1753 -0.0540
  123OSM    O1313043   0.905  -0.106   6.108  0.0815 -0.2292 -0.3729
  123OSM    O1413044   1.126  -0.222   6.132  0.6317 -0.1984 -0.6475
  123OSM    O1113045   1.047  -0.080   6.316 -0.8985 -0.1827  0.0962
  123OSM    O1213046   1.128   0.022   6.102 -0.2743  0.4487 -0.5414
  123OSM    C1S13047   0.928  -0.033   6.381 -0.2011 -0.7469  0.3898
  123OSM    H1S13048   0.845  -0.106   6.371 -0.4852 -0.7169  2.1923
  123OSM    H1T13049   0.891   0.065   6.343 -0.9784 -0.8741  0.8056
  123OSM     NF13050   0.817  -0.000   6.582  0.5743  0.2831 -0.5365
  123OSM    HNF13051   0.788   0.093   6.603  1.2011  0.8711 -2.1444
  123OSM    C2S13052   0.951  -0.016   6.531 -0.1260 -0.3681 -0.2407
  123OSM    H2S13053   0.997  -0.110   6.569  0.1175 -0.3228 -0.4200
  123OSM    C3S13054   1.050   0.096   6.575 -0.1795  0.0181  0.5517
  123OSM    H3S13055   1.019   0.188   6.522  0.8724  0.5787  0.8897
  123OSM     O313056   1.174   0.078   6.504 -0.0202 -0.5852  0.1334
  123OSM    HO313057   1.158   0.019   6.430 -0.7818  0.7464 -0.7980
  123OSM    C4S13058   1.078   0.097   6.721  0.3808 -1.0695  0.2398
  123OSM    H4S13059   1.142   0.014   6.755  1.8279 -0.1738 -0.1730
  123OSM    C5S13060   1.032   0.187   6.809 -0.1771  0.3911  0.2549
  123OSM    H5S13061   0.970   0.265   6.761  0.6257  0.9534  0.0898
  123OSM    C6S13062   1.055   0.189   6.959  0.6378  0.0283 -0.2548
  123OSM    H6S13063   1.084   0.293   6.983 -2.2620  0.8662  0.0765
  123OSM    H6T13064   1.139   0.120   6.980 -0.0971 -1.0037 -0.5960
  123OSM    C7S13065   0.936   0.141   7.043 -0.2663 -0.2544  0.3924
  123OSM    H7S13066   0.919   0.035   7.011 -1.1102 -0.0118  0.0093
  123OSM    H7T13067   0.847   0.198   7.009 -0.0356 -0.9643 -1.5701
  123OSM    C8S13068   0.943   0.161   7.197 -0.7666  0.3283  0.0833
  123OSM    H8S13069   1.016   0.087   7.236 -1.3717  0.0135  0.6339
  123OSM    H8T13070   0.845   0.135   7.242 -0.9569 -0.7332 -0.9135
  123OSM    C9S13071   1.000   0.299   7.243  0.0999  0.2848 -0.1074
  123OSM    H9S13072   0.949   0.386   7.196 -0.4838 -1.5180 -3.0258
  123OSM    H9T13073   1.104   0.303   7.203 -0.2795 -1.1844 -1.3293
  123OSM   C10S13074   1.015   0.317   7.396  0.2257  0.4198  0.0969
  123OSM   H10S13075   1.104   0.253   7.416  0.6701  0.3805 -1.8180
  123OSM   H10T13076   0.923   0.275   7.442  1.0771 -1.5276  0.1616
  123OSM   C11S13077   1.022   0.464   7.431 -0.0482  0.0104 -0.5266
  123OSM   H11S13078   0.927   0.512   7.399 -0.0007  0.2007 -0.3809
  123OSM   H11T13079   1.105   0.508   7.371  0.6768 -2.8234 -1.7998
  123OSM   C12S13080   1.048   0.477   7.581  0.7776  1.1079 -0.8123
  123OSM   H12S13081   0.952   0.458   7.634  1.8114  2.3972  1.6929
  123OSM   H12T13082   1.078   0.583   7.599 -2.7464  1.9158  1.2693
  123OSM   C13S13083   1.156   0.388   7.636 -0.6395  0.4678  0.0077
  123OSM   H13S13084   1.247   0.388   7.573  1.3524 -0.6347  2.6500
  123OSM   H13T13085   1.135   0.279   7.646 -0.7383  0.4990  0.1582
  123OSM   C14S13086   1.200   0.443   7.768 -0.5547  0.5311  0.2753
  123OSM   H14S13087   1.231   0.549   7.753  0.5956  0.2864  0.7390
  123OSM   H14T13088   1.286   0.377   7.797 -2.0142 -0.5510  2.4408
  123OSM   C15S13089   1.092   0.424   7.868  0.1575  0.5386 -0.4943
  123OSM   H15S13090   1.057   0.320   7.887 -5.3282  2.6383  3.7280
  123OSM   H15T13091   1.000   0.481   7.842  1.6757  3.0101 -0.7917
  123OSM   C16S13092   1.139   0.455   8.015 -0.4527 -0.1034 -0.1203
  123OSM   H16S13093   1.243   0.494   8.005 -0.4653  0.0612  0.3886
  123OSM   H16T13094   1.150   0.357   8.065  0.7135  0.9499  1.8261
  123OSM   C17S13095   1.055   0.539   8.092  0.0570 -0.1064 -0.1093
  123OSM   H17S13096   0.999   0.618   8.037 -0.6850 -0.2674  0.3958
  123OSM   H17T13097   1.108   0.604   8.165 -2.2923  3.3563 -1.1691
  123OSM   C18S13098   0.949   0.457   8.172  0.2898 -0.0783  0.3468
  123OSM   H18S13099   0.981   0.354   8.200 -2.4981 -1.2200 -0.3063
  123OSM   H18T13100   0.857   0.447   8.111 -0.3844 -0.2275  1.3620
  123OSM   H18U13101   0.913   0.509   8.264 -0.8757 -1.5199  0.7555
  123OSM    C1F13102   0.739  -0.107   6.607  0.7878 -0.2797 -0.3362
  123OSM     OF13103   0.781  -0.217   6.584  0.0271  0.4691  0.3615
  123OSM    C2F13104   0.598  -0.076   6.647 -0.5871  0.1169 -0.5474
  123OSM    H2F13105   0.543  -0.172   6.658 -1.2591  0.6777  1.3661
  123OSM    H2G13106   0.551  -0.010   6.571 -1.1308 -0.7775 -1.0039
  123OSM    C3F13107   0.582  -0.002   6.787 -0.0084  0.1453 -0.2118
  123OSM    H3F13108   0.473  -0.002   6.806 -0.0854  3.6965  0.0151
  123OSM    H3G13109   0.621   0.102   6.782 -1.9235  0.8793 -0.6676
  123OSM    C4F13110   0.650  -0.081   6.892 -0.1791  0.1432 -0.8940
  123OSM    H4F13111   0.759  -0.067   6.901 -0.5908  3.9579 -0.1226
  123OSM    H4G13112   0.638  -0.189   6.869 -2.1056 -0.4400  2.1722
  123OSM    C5F13113   0.592  -0.055   7.033 -0.3685 -0.8047 -0.2589
  123OSM    H5F13114   0.491  -0.103   7.038  1.2739 -4.5152  1.2129
  123OSM    H5G13115   0.579   0.052   7.057 -0.1775 -0.2388 -2.4521
  123OSM    C6F13116   0.675  -0.109   7.148 -0.2621  0.5975  0.2194
  123OSM    H6F13117   0.778  -0.067   7.151  1.3476 -2.9613  0.3907
  123OSM    H6G13118   0.683  -0.219   7.137  1.0886  0.7821 -0.8789
  123OSM    C7F13119   0.616  -0.101   7.297  0.1710  0.4000  0.6851
  123OSM    H7F13120   0.529  -0.170   7.302  0.0799  0.4772  0.2417
  123OSM    H7G13121   0.587   0.004   7.319  0.7931  0.5820  0.6647
  123OSM    C8F13122   0.728  -0.143   7.390 -0.7962 -0.1189  0.7731
  123OSM    H8F13123   0.803  -0.062   7.375 -0.9479 -0.0531  0.3325
  123OSM    H8G13124   0.775  -0.234   7.346 -0.3246  0.2502  0.5043
  123OSM    C9F13125   0.668  -0.155   7.526  0.4925  0.1242 -0.3131
  123OSM    H9F13126   0.617  -0.251   7.540  0.8077 -0.7537 -4.2302
  123OSM   C10F13127   0.670  -0.064   7.634 -0.6133 -0.2936  0.1534
  123OSM   H10F13128   0.605  -0.093   7.718  1.7557 -0.7187  1.9428
  123OSM   C11F13129   0.727   0.070   7.647  0.4275 -0.0248 -0.1030
  123OSM   H11F13130   0.647   0.141   7.677  1.1014 -0.2032  2.3994
  123OSM   H11G13131   0.786   0.110   7.563  3.5007  0.4361  2.0940
  123OSM   C12F13132   0.822   0.067   7.770  0.1042  0.3146 -0.2911
  123OSM   H12F13133   0.784   0.004   7.853 -1.6881  0.8579 -0.6392
  123OSM   H12G13134   0.819   0.167   7.818 -0.5798 -0.5796  1.6480
  123OSM   C13F13135   0.966   0.015   7.748  0.2875 -0.0740 -0.0942
  123OSM   H13F13136   1.036   0.089   7.706 -0.2965 -0.1861 -1.3124
  123OSM   H13G13137   0.948  -0.068   7.677 -1.5919  0.2032 -0.0137
  123OSM   C14F13138   1.037  -0.045   7.874 -0.2578  0.4442 -0.0711
  123OSM   H14F13139   1.139  -0.070   7.837 -0.1169 -0.0645  0.6244
  123OSM   H14G13140   0.991  -0.140   7.910 -4.2940  1.5737 -1.7605
  123OSM   C15F13141   1.053   0.055   7.992  0.7151 -0.8126 -0.4326
  123OSM   H15F13142   0.962   0.114   8.012  2.4613  2.1513 -0.6413
  123OSM   H15G13143   1.126   0.133   7.962 -0.4736  1.1012  1.4211
  123OSM   C16F13144   1.125  -0.016   8.105  0.6468 -0.4509  0.2778
  123OSM   H16F13145   1.228  -0.033   8.066  0.1199 -0.3579 -1.2513
  123OSM   H16G13146   1.060  -0.104   8.124 -0.7401  0.4575 -0.0601
  123OSM   C17F13147   1.124   0.057   8.238  0.5290  0.3767  0.5710
  123OSM   H17F13148   1.171   0.157   8.242 -0.3213  0.8385 -0.4335
  123OSM   H17G13149   1.184  -0.002   8.311  0.7660  0.3411  0.3478
  123OSM   C18F13150   0.993   0.072   8.311  0.0260  0.0260 -0.9497
  123OSM   H18F13151   1.006   0.124   8.408 -0.5350 -0.2563 -0.7207
  123OSM   H18G13152   0.941  -0.023   8.333 -0.6360  0.6027  0.0700
  123OSM   H18H13153   0.923   0.135   8.252  0.8679 -0.5235 -2.6146
  124OSM      N13154   4.944   4.642   6.273  0.2458 -0.3968  0.3499
  124OSM    C1513155   4.931   4.493   6.271 -0.0082  0.9078  0.0600
  124OSM   H15A13156   4.998   4.456   6.347  0.2881  1.8684  0.2749
  124OSM   H15B13157   4.973   4.454   6.179  0.4908  0.4314  0.4830
  124OSM   H15C13158   4.832   4.452   6.285  1.0961 -2.4812 -0.9138
  124OSM    C1413159   5.095   4.668   6.283  0.3623  0.1048  0.9524
  124OSM   H14A13160   5.138   4.627   6.373  0.0862  0.8817  1.4463
  124OSM   H14B13161   5.109   4.774   6.269 -0.0764  0.6099  3.7411
  124OSM   H14C13162   5.143   4.611   6.205  0.0095  0.4015  0.5143
  124OSM    C1313163   4.886   4.685   6.142 -0.5642 -0.4367 -0.2237
  124OSM   H13A13164   4.891   4.792   6.125  0.7153 -0.2692  1.0054
  124OSM   H13B13165   4.781   4.665   6.152 -0.1553 -1.9213  1.7097
  124OSM   H13C13166   4.934   4.633   6.061  0.0078  0.1705 -0.2873
  124OSM    C1213167   4.862   4.694   6.385 -1.2428 -0.4283 -1.0203
  124OSM   H12A13168   4.886   4.799   6.386  0.8515 -0.8644 -0.6044
  124OSM   H12B13169   4.899   4.658   6.480 -0.6334 -1.3709 -1.5974
  124OSM    C1113170   4.712   4.676   6.384  0.2573  0.0077  0.4987
  124OSM   H11A13171   4.665   4.677   6.485  1.8356  0.9732  1.2695
  124OSM   H11B13172   4.702   4.571   6.349  1.9645  0.1023 -0.3776
  124OSM      P13173   4.643   4.923   6.335 -0.0048  0.5170 -0.3719
  124OSM    O1313174   4.776   4.978   6.301 -0.2798 -0.3338 -0.3254
  124OSM    O1413175   4.524   4.981   6.262 -0.0931  0.3296  0.0323
  124OSM    O1113176   4.605   4.925   6.484 -0.0299 -0.2626  0.0406
  124OSM    O1213177   4.645   4.768   6.299  0.2533  0.6628  0.5019
  124OSM    C1S13178   4.472   4.922   6.536 -0.1961 -0.2495 -0.1338
  124OSM    H1S13179   4.407   4.853   6.478 -3.6608 -1.0435  4.1027
  124OSM    H1T13180   4.425   5.022   6.531  1.3092  0.4583 -0.3868
  124OSM     NF13181   4.343   4.873   6.730 -0.0116  0.2203 -0.0689
  124OSM    HNF13182   4.317   4.959   6.772  0.0183 -0.1791  0.7925
  124OSM    C2S13183   4.479   4.865   6.676  0.2998  0.6015  0.7673
  124OSM    H2S13184   4.518   4.761   6.673 -0.9383  0.1150  0.7617
  124OSM    C3S13185   4.586   4.950   6.757  0.5790  0.4410 -0.3804
  124OSM    H3S13186   4.578   5.058   6.732  0.8347  0.5771  0.0993
  124OSM     O313187   4.719   4.902   6.726 -0.4306 -0.6654  0.3169
  124OSM    HO313188   4.711   4.864   6.639  0.3265 -0.6969  0.2566
  124OSM    C4S13189   4.573   4.929   6.905  0.2189  0.5218 -0.0589
  124OSM    H4S13190   4.615   4.831   6.930 -0.2374 -0.5676 -3.1699
  124OSM    C5S13191   4.517   5.012   6.992  0.5154 -0.4843  0.3077
  124OSM    H5S13192   4.466   5.106   6.963 -1.2103 -1.4152  0.1703
  124OSM    C6S13193   4.510   4.984   7.140 -0.5649  0.1483 -0.5634
  124OSM    H6S13194   4.567   5.060   7.198  1.5221  0.4409 -2.8364
  124OSM    H6T13195   4.569   4.891   7.159 -2.4246 -1.0597 -0.3854
  124OSM    C7S13196   4.366   4.959   7.203  0.2127 -0.6449  0.5538
  124OSM    H7S13197   4.308   4.881   7.150  1.3834 -0.1345 -1.5783
  124OSM    H7T13198   4.318   5.058   7.191  1.9973  0.1255 -0.6337
  124OSM    C8S13199   4.371   4.926   7.353  0.3408 -0.5202  0.3923
  124OSM    H8S13200   4.435   4.836   7.360 -0.6132 -1.1259  1.6381
  124OSM    H8T13201   4.267   4.903   7.384  0.7460 -2.6667  0.3082
  124OSM    C9S13202   4.424   5.044   7.445 -0.5296  0.6682  0.3320
  124OSM    H9S13203   4.358   5.132   7.432 -1.7309 -0.5322 -2.7264
  124OSM    H9T13204   4.524   5.085   7.416 -0.6675  0.5800 -0.2981
  124OSM   C10S13205   4.432   4.998   7.592 -0.7835  1.0153 -0.1889
  124OSM   H10S13206   4.512   4.921   7.599 -2.0018 -0.4838 -1.9797
  124OSM   H10T13207   4.335   4.947   7.607  0.0337 -1.1128 -1.7050
  124OSM   C11S13208   4.461   5.101   7.696 -0.1263 -0.4838  0.4250
  124OSM   H11S13209   4.371   5.167   7.694  0.9770  1.0553 -0.8530
  124OSM   H11T13210   4.544   5.171   7.672 -1.0411  0.2926 -0.5680
  124OSM   C12S13211   4.486   5.044   7.837  0.6369 -0.5605  0.0210
  124OSM   H12S13212   4.507   5.137   7.895  2.4172  0.5704 -2.2747
  124OSM   H12T13213   4.569   4.971   7.842  0.9517 -0.7098 -3.9074
  124OSM   C13S13214   4.358   4.985   7.888  0.3450 -1.0355 -0.0119
  124OSM   H13S13215   4.346   4.880   7.853 -0.2625 -0.3544 -1.9899
  124OSM   H13T13216   4.265   5.030   7.847 -0.0553  0.9257  2.7536
  124OSM   C14S13217   4.346   4.984   8.041 -0.1968 -0.1984 -0.1680
  124OSM   H14S13218   4.357   5.080   8.096  2.2535 -0.8539  0.5888
  124OSM   H14T13219   4.439   4.931   8.069 -0.1831 -0.1762 -0.1714
  124OSM   C15S13220   4.220   4.906   8.094 -0.0982  0.5549  0.3363
  124OSM   H15S13221   4.235   4.803   8.055  1.1329  1.3077 -1.3105
  124OSM   H15T13222   4.126   4.949   8.054 -0.4691  0.5624  1.1980
  124OSM   C16S13223   4.226   4.889   8.247 -0.3939 -0.0420  0.1832
  124OSM   H16S13224   4.229   4.991   8.289  1.4321 -0.3601  0.9394
  124OSM   H16T13225   4.322   4.834   8.264 -1.7020 -3.0176 -1.2461
  124OSM   C17S13226   4.116   4.797   8.300  0.2173 -0.7616 -0.0536
  124OSM   H17S13227   4.140   4.692   8.275  0.4446 -1.3872  2.4613
  124OSM   H17T13228   4.020   4.833   8.258 -0.4197 -0.6657  1.4142
  124OSM   C18S13229   4.115   4.788   8.456  1.1528  0.5929 -0.0736
  124OSM   H18S13230   4.015   4.761   8.495  0.9117  0.1789 -0.9505
  124OSM   H18T13231   4.162   4.876   8.504  0.8745  0.1125  1.1120
  124OSM   H18U13232   4.179   4.700   8.480 -1.0875 -0.6464  1.7064
  124OSM    C1F13233   4.258   4.777   6.700  0.9153  0.3123 -0.0531
  124OSM     OF13234   4.292   4.685   6.631 -0.3871  0.1110  0.3501
  124OSM    C2F13235   4.117   4.790   6.744 -0.5385  1.0053  0.0735
  124OSM    H2F13236   4.058   4.834   6.661  1.2244  1.5525 -0.9619
  124OSM    H2G13237   4.116   4.862   6.829 -1.6111  0.2279  0.7409
  124OSM    C3F13238   4.067   4.646   6.797 -1.0135 -0.5777  0.5168
  124OSM    H3F13239   4.104   4.558   6.740  0.7413  0.5918 -0.2658
  124OSM    H3G13240   3.957   4.648   6.788 -0.8906 -1.2554 -1.7491
  124OSM    C4F13241   4.112   4.633   6.948  0.3893 -0.9220  0.2531
  124OSM    H4F13242   4.072   4.712   7.014  1.8611  0.8214 -0.8563
  124OSM    H4G13243   4.223   4.641   6.951  0.3681 -0.1070 -0.5899
  124OSM    C5F13244   4.084   4.496   7.012 -0.0229 -0.0920  0.6562
  124OSM    H5F13245   4.143   4.423   6.953 -0.3563 -0.2829  0.5532
  124OSM    H5G13246   3.974   4.481   7.016  0.0152 -0.8419 -0.6691
  124OSM    C6F13247   4.129   4.496   7.157  0.2918 -0.4515 -0.1789
  124OSM    H6F13248   4.067   4.576   7.204 -0.4411  0.3746 -2.3958
  124OSM    H6G13249   4.234   4.531   7.155 -0.7354  3.1647 -2.4977
  124OSM    C7F13250   4.089   4.369   7.225  0.2415 -0.2765  0.4291
  124OSM    H7F13251   4.129   4.289   7.159 -1.1050 -0.5434 -0.0848
  124OSM    H7G13252   3.978   4.368   7.225  0.2187  0.3848  1.9355
  124OSM    C8F13253   4.146   4.352   7.368  0.6946  0.2650  0.7311
  124OSM    H8F13254   4.124   4.439   7.433 -1.2756 -0.6952  1.4087
  124OSM    H8G13255   4.257   4.346   7.357  0.4908  0.7824 -2.5750
  124OSM    C9F13256   4.071   4.228   7.417 -0.6645 -0.1991  0.0017
  124OSM    H9F13257   4.062   4.145   7.345  1.7291  1.2834 -2.1875
  124OSM   C10F13258   4.018   4.212   7.535  0.0804  0.4040 -0.0402
  124OSM   H10F13259   3.963   4.119   7.554  1.4022 -0.2394  0.7893
  124OSM   C11F13260   4.025   4.313   7.654  0.4801  0.1657 -1.0792
  124OSM   H11F13261   3.932   4.307   7.715 -0.7687  1.0732 -2.8087
  124OSM   H11G13262   4.024   4.419   7.621 -1.3149  0.6714  0.3843
  124OSM   C12F13263   4.149   4.295   7.749  1.0034 -0.5126 -0.3430
  124OSM   H12F13264   4.246   4.299   7.696  0.7939 -1.2370 -0.7822
  124OSM   H12G13265   4.140   4.194   7.794  2.4964 -0.7026 -0.4194
  124OSM   C13F13266   4.155   4.385   7.871 -0.1534 -0.0142  0.0655
  124OSM   H13F13267   4.057   4.382   7.925 -0.1610 -2.2590  0.0018
  124OSM   H13G13268   4.150   4.491   7.837  1.3092  0.4087  1.0612
  124OSM   C14F13269   4.259   4.358   7.977 -0.5904 -0.3867  0.3960
  124OSM   H14F13270   4.368   4.368   7.958 -0.6418  1.0352  0.7618
  124OSM   H14G13271   4.241   4.251   8.000 -1.3839 -0.5485 -0.9242
  124OSM   C15F13272   4.240   4.439   8.110  0.3085  0.3887 -0.0259
  124OSM   H15F13273   4.131   4.439   8.131  0.1861  1.3812 -0.5791
  124OSM   H15G13274   4.276   4.540   8.083  1.7544 -0.3053 -0.8412
  124OSM   C16F13275   4.329   4.386   8.216 -0.0407  0.5979  0.3784
  124OSM   H16F13276   4.436   4.395   8.190 -0.6863  3.6464 -1.8179
  124OSM   H16G13277   4.304   4.277   8.216  2.4589 -0.1509 -3.1647
  124OSM   C17F13278   4.314   4.453   8.354  0.1298  0.7227 -0.1737
  124OSM   H17F13279   4.311   4.564   8.345  1.8889  0.7933 -0.2625
  124OSM   H17G13280   4.404   4.417   8.408 -0.7132  1.1925  1.6597
  124OSM   C18F13281   4.187   4.402   8.421  0.2550  0.4935  0.1422
  124OSM   H18F13282   4.183   4.423   8.530 -1.4991 -0.8578  0.3948
  124OSM   H18G13283   4.191   4.291   8.416  1.2701  0.5456 -0.4625
  124OSM   H18H13284   4.099   4.441   8.365 -0.3561  2.7331  2.5081
  125OSM      N13285   4.367   2.038   6.296  0.1914 -0.0906  0.7694
  125OSM    C1513286   4.318   2.163   6.215 -0.3739  0.7747 -0.4007
  125OSM   H15A13287   4.405   2.226   6.204 -0.4354  1.2562  1.5215
  125OSM   H15B13288   4.251   2.224   6.274 -0.8261 -0.5836  0.5486
  125OSM   H15C13289   4.281   2.133   6.118  1.2722 -1.3346 -0.4467
  125OSM    C1413290   4.491   1.978   6.231 -0.1355 -0.2322  0.0017
  125OSM   H14A13291   4.466   1.957   6.128  0.5410  2.1594 -0.7161
  125OSM   H14B13292   4.515   1.884   6.278 -0.9111  0.4709  1.8747
  125OSM   H14C13293   4.571   2.051   6.232 -1.3393  1.4400 -3.9408
  125OSM    C1313294   4.403   2.082   6.431 -0.6071 -0.3000  0.1238
  125OSM   H13A13295   4.468   2.169   6.433 -3.0259  1.6224  1.1185
  125OSM   H13B13296   4.434   1.995   6.487 -1.5814 -0.6063  0.1943
  125OSM   H13C13297   4.311   2.110   6.480 -0.3114  1.4840 -0.2643
  125OSM    C1213298   4.255   1.936   6.296  0.3757  0.4168  0.2826
  125OSM   H12A13299   4.173   1.965   6.360 -0.3366  0.9418 -0.8363
  125OSM   H12B13300   4.294   1.847   6.344 -1.0149  0.5865  1.8422
  125OSM    C1113301   4.206   1.885   6.156 -0.3774 -0.4060  0.2242
  125OSM   H11A13302   4.172   1.976   6.102  1.2615  1.1146  1.6162
  125OSM   H11B13303   4.112   1.824   6.156 -0.2740 -0.6065 -1.4414
  125OSM      P13304   4.357   1.687   6.111  0.2501  0.0015 -0.1903
  125OSM    O1313305   4.278   1.581   6.042 -0.8417 -0.0685 -0.2303
  125OSM    O1413306   4.497   1.706   6.090  0.2925  0.5657  0.6416
  125OSM    O1113307   4.344   1.669   6.262 -0.0918 -0.1886 -0.6822
  125OSM    O1213308   4.300   1.826   6.068 -0.5381 -0.2491  0.4578
  125OSM    C1S13309   4.370   1.537   6.319  0.6220 -0.3830  0.1381
  125OSM    H1S13310   4.480   1.518   6.314  0.7923  0.6580 -0.1293
  125OSM    H1T13311   4.324   1.453   6.263  3.7431 -0.8268 -2.0555
  125OSM     NF13312   4.371   1.396   6.518 -0.4614 -0.0539  0.8437
  125OSM    HNF13313   4.297   1.339   6.553 -1.0826 -1.2020 -2.0785
  125OSM    C2S13314   4.333   1.525   6.474 -0.3055  0.3159 -0.1244
  125OSM    H2S13315   4.386   1.605   6.530 -2.5614  0.8754  1.3389
  125OSM    C3S13316   4.179   1.542   6.491  0.2111  0.1676 -0.2398
  125OSM    H3S13317   4.121   1.454   6.458 -1.6082  0.9112  0.8572
  125OSM     O313318   4.123   1.638   6.408  0.1370 -0.3399 -0.0961
  125OSM    HO313319   4.197   1.653   6.349  1.4233  0.2358  1.5864
  125OSM    C4S13320   4.151   1.555   6.643 -0.1976  0.3431  0.0679
  125OSM    H4S13321   4.140   1.455   6.687  0.3808  0.2744  0.0578
  125OSM    C5S13322   4.125   1.668   6.712 -0.3989  0.0869 -0.4665
  125OSM    H5S13323   4.127   1.765   6.661  1.2196  1.0383  1.2655
  125OSM    C6S13324   4.094   1.670   6.865  0.3248  0.6697 -0.3467
  125OSM    H6S13325   3.989   1.698   6.890 -0.1986  1.1325 -2.8194
  125OSM    H6T13326   4.161   1.746   6.911 -0.0736  0.8893 -0.1205
  125OSM    C7S13327   4.118   1.532   6.934 -0.2625  0.2326  0.5981
  125OSM    H7S13328   4.218   1.494   6.904 -0.8541  0.3647 -1.7622
  125OSM    H7T13329   4.040   1.465   6.892  0.4343 -0.0132 -0.3328
  125OSM    C8S13330   4.123   1.541   7.091  0.0350  1.0077 -0.2855
  125OSM    H8S13331   4.022   1.554   7.134  0.3039  1.6724  0.1621
  125OSM    H8T13332   4.183   1.626   7.130  0.3569  0.0339  1.3943
  125OSM    C9S13333   4.170   1.409   7.165  0.5933 -0.4250  0.0339
  125OSM    H9S13334   4.272   1.392   7.125  1.0067  0.7232  0.5749
  125OSM    H9T13335   4.107   1.329   7.120  0.8446 -0.6057 -0.0009
  125OSM   C10S13336   4.192   1.425   7.321 -0.4047 -0.1188  0.1198
  125OSM   H10S13337   4.251   1.519   7.321 -4.4397  2.6982  1.4638
  125OSM   H10T13338   4.247   1.345   7.376  2.3982  2.8197  1.8869
  125OSM   C11S13339   4.060   1.454   7.392  0.0579  0.3860  0.5268
  125OSM   H11S13340   4.003   1.360   7.407  0.1152  0.0756 -1.0196
  125OSM   H11T13341   4.005   1.526   7.328 -0.3828 -1.0845 -0.8177
  125OSM   C12S13342   4.060   1.522   7.527  0.4851 -0.2137 -0.2563
  125OSM   H12S13343   4.087   1.628   7.511  0.5290  0.0758  1.4983
  125OSM   H12T13344   4.129   1.473   7.599 -0.2384 -2.0495 -0.7515
  125OSM   C13S13345   3.920   1.517   7.592 -0.1271 -0.4989  0.2109
  125OSM   H13S13346   3.899   1.411   7.618  1.1167 -0.4665  1.4277
  125OSM   H13T13347   3.848   1.555   7.516 -0.0977  2.3217  1.5043
  125OSM   C14S13348   3.900   1.598   7.721 -0.0332 -0.0950  0.6806
  125OSM   H14S13349   3.794   1.581   7.748 -0.8699  0.5858 -1.8482
  125OSM   H14T13350   3.918   1.705   7.698 -0.4354  0.0346  0.9625
  125OSM   C15S13351   4.002   1.550   7.826  0.6568 -0.2948 -0.4580
  125OSM   H15S13352   4.103   1.564   7.780  0.0640  0.4588 -1.5925
  125OSM   H15T13353   3.975   1.445   7.849 -0.3301 -0.0979 -0.6696
  125OSM   C16S13354   4.009   1.650   7.944  0.4408  0.2109 -0.5029
  125OSM   H16S13355   3.904   1.655   7.980 -0.0955 -1.0920 -1.7775
  125OSM   H16T13356   4.044   1.752   7.916 -0.3881  0.8974  0.8504
  125OSM   C17S13357   4.097   1.594   8.049  0.1319 -0.4121 -0.4444
  125OSM   H17S13358   4.205   1.596   8.021  0.1578  0.6974 -0.3296
  125OSM   H17T13359   4.072   1.488   8.071 -0.4444  0.0760  1.4496
  125OSM   C18S13360   4.100   1.687   8.180 -0.4146 -0.2875 -0.1808
  125OSM   H18S13361   3.996   1.692   8.219  0.5085  1.0730  2.3097
  125OSM   H18T13362   4.118   1.793   8.152  1.3461 -0.6710 -0.5759
  125OSM   H18U13363   4.172   1.660   8.260 -0.1898  0.8937  0.0386
  125OSM    C1F13364   4.492   1.340   6.527  0.4028  0.0309  0.1582
  125OSM     OF13365   4.595   1.409   6.526  0.7380 -0.2258 -0.2826
  125OSM    C2F13366   4.498   1.189   6.504 -0.0415  0.6556  0.4043
  125OSM    H2F13367   4.564   1.154   6.422 -0.5468  1.8896 -0.5538
  125OSM    H2G13368   4.390   1.163   6.495 -0.4805  2.3040  0.6789
  125OSM    C3F13369   4.553   1.127   6.636  0.7503  0.2568 -0.7351
  125OSM    H3F13370   4.649   1.179   6.660 -0.1170  0.4906  2.6904
  125OSM    H3G13371   4.578   1.019   6.630  0.9786  0.0891  1.9824
  125OSM    C4F13372   4.440   1.136   6.740 -0.1877  0.0169  0.0424
  125OSM    H4F13373   4.345   1.104   6.693  0.5395 -1.8236 -0.2446
  125OSM    H4G13374   4.437   1.245   6.761  2.6962  0.1498  0.1641
  125OSM    C5F13375   4.470   1.063   6.873  0.2764 -0.2287  0.1549
  125OSM    H5F13376   4.573   1.082   6.910  1.3443 -0.7694 -2.2878
  125OSM    H5G13377   4.476   0.954   6.856  2.4863 -0.2171  0.6660
  125OSM    C6F13378   4.372   1.105   6.984  0.1515 -0.7038  0.6677
  125OSM    H6F13379   4.268   1.090   6.949  0.3998  1.1751 -1.0835
  125OSM    H6G13380   4.382   1.211   7.016 -2.0875 -0.3555  0.3396
  125OSM    C7F13381   4.386   1.015   7.107  0.9335  0.4048  0.7586
  125OSM    H7F13382   4.490   0.986   7.132  0.3918 -2.1515  0.2754
  125OSM    H7G13383   4.352   0.914   7.077  1.2227  0.6706 -0.4961
  125OSM    C8F13384   4.324   1.074   7.235  0.4890  0.4248  0.0493
  125OSM    H8F13385   4.218   1.101   7.211  0.8273  2.9449  1.1295
  125OSM    H8G13386   4.374   1.173   7.236  0.3100  0.6256 -2.5694
  125OSM    C9F13387   4.337   0.978   7.347 -0.6084 -0.4934 -1.0622
  125OSM    H9F13388   4.280   0.884   7.339 -1.8409  0.0737  0.5437
  125OSM   C10F13389   4.408   1.000   7.459  0.2890  0.2808  0.4154
  125OSM   H10F13390   4.411   0.915   7.530  0.7156 -1.3098 -1.4312
  125OSM   C11F13391   4.492   1.115   7.508  0.0279  0.9176 -0.4075
  125OSM   H11F13392   4.529   1.175   7.422  2.9704  0.2188  0.2615
  125OSM   H11G13393   4.584   1.075   7.556 -0.3552 -0.6867 -0.9421
  125OSM   C12F13394   4.416   1.189   7.613  0.2086 -0.2719 -0.0830
  125OSM   H12F13395   4.321   1.226   7.568 -0.5754  0.9044  2.3542
  125OSM   H12G13396   4.478   1.273   7.652 -1.2654  0.4617  0.7856
  125OSM   C13F13397   4.378   1.120   7.748  0.4611 -0.0748  0.0092
  125OSM   H13F13398   4.469   1.062   7.776  0.0341 -0.9557 -0.3998
  125OSM   H13G13399   4.296   1.049   7.729  2.2220 -1.7274 -1.9227
  125OSM   C14F13400   4.345   1.233   7.857 -0.6309 -0.2662  0.0139
  125OSM   H14F13401   4.256   1.293   7.829 -0.0335  0.8201  0.3699
  125OSM   H14G13402   4.424   1.310   7.847 -0.1567 -0.2059  3.1980
  125OSM   C15F13403   4.341   1.181   8.006  0.3752 -0.0981  0.2309
  125OSM   H15F13404   4.268   1.098   8.006 -0.0765  0.2363 -1.7952
  125OSM   H15G13405   4.304   1.268   8.065  0.5529  0.3600 -0.3213
  125OSM   C16F13406   4.472   1.126   8.060  0.1976  0.3814 -0.0167
  125OSM   H16F13407   4.559   1.186   8.027  0.0681  1.0737  0.8531
  125OSM   H16G13408   4.497   1.027   8.016  0.2817  0.7394 -0.7753
  125OSM   C17F13409   4.480   1.109   8.209 -0.6535 -0.3528 -0.3029
  125OSM   H17F13410   4.405   1.030   8.234  0.0712 -1.5285 -1.7327
  125OSM   H17G13411   4.441   1.208   8.242 -0.0311 -1.0559  2.7992
  125OSM   C18F13412   4.621   1.075   8.261  0.0212 -0.6813 -0.0517
  125OSM   H18F13413   4.631   0.966   8.278 -2.2832 -0.8933  0.1578
  125OSM   H18G13414   4.620   1.126   8.359 -0.7106 -0.3217 -0.2432
  125OSM   H18H13415   4.705   1.115   8.199  0.2823  1.8601  1.7546
  126OSM      N13416   0.763   4.462   6.101 -0.2905  0.1366 -0.1732
  126OSM    C1513417   0.659   4.397   6.009 -0.5351 -0.6137 -0.4648
  126OSM   H15A13418   0.560   4.439   6.019 -1.1201 -1.8941 -0.6960
  126OSM   H15B13419   0.660   4.290   6.021  1.8593 -0.6443 -0.4556
  126OSM   H15C13420   0.682   4.425   5.908 -1.0251 -1.1994 -0.7442
  126OSM    C1413421   0.761   4.380   6.222 -0.2178 -0.2795 -0.0034
  126OSM   H14A13422   0.798   4.284   6.190  1.9323  1.2422 -2.5388
  126OSM   H14B13423   0.661   4.361   6.259 -0.4525  1.5373  0.4067
  126OSM   H14C13424   0.830   4.413   6.298  0.9542 -0.1172 -1.1024
  126OSM    C1313425   0.892   4.451   6.027  0.2404 -0.1739 -0.4678
  126OSM   H13A13426   0.898   4.506   5.934  1.7414 -1.5647 -1.2544
  126OSM   H13B13427   0.925   4.349   6.012 -1.6837 -0.5907 -2.2707
  126OSM   H13C13428   0.969   4.511   6.074 -0.0358  0.3301 -0.6642
  126OSM    C1213429   0.709   4.598   6.139 -0.0912 -0.4469  0.3548
  126OSM   H12A13430   0.613   4.592   6.188 -1.2849  1.6771 -1.5443
  126OSM   H12B13431   0.695   4.646   6.043  0.0328 -2.4777 -0.7595
  126OSM    C1113432   0.791   4.685   6.240 -0.6101 -0.1913 -0.0903
  126OSM   H11A13433   0.755   4.790   6.243 -0.2924  0.0898 -3.0765
  126OSM   H11B13434   0.895   4.696   6.202 -0.3307 -0.8164  0.4615
  126OSM      P13435   0.669   4.632   6.467  0.0856 -0.1082  0.1582
  126OSM    O1313436   0.695   4.751   6.545  0.2866 -1.0990  0.0071
  126OSM    O1413437   0.541   4.624   6.392 -0.2146  0.1768  0.1428
  126OSM    O1113438   0.687   4.504   6.558  0.6173 -0.2706  0.3536
  126OSM    O1213439   0.792   4.619   6.367  0.3928  0.4478  0.1784
  126OSM    C1S13440   0.805   4.429   6.580  0.5315  0.6309 -0.6591
  126OSM    H1S13441   0.893   4.454   6.516  0.3436  0.1109 -1.1303
  126OSM    H1T13442   0.786   4.319   6.578  1.4767  0.4479 -0.1846
  126OSM     NF13443   0.985   4.409   6.742 -0.0453 -0.5998 -0.0001
  126OSM    HNF13444   1.001   4.311   6.747 -2.3268 -1.0060  0.8822
  126OSM    C2S13445   0.843   4.444   6.728  0.5294  0.1332 -0.2823
  126OSM    H2S13446   0.843   4.551   6.757 -1.2884 -0.2525  1.3881
  126OSM    C3S13447   0.743   4.359   6.813 -0.0018  0.7127  0.8710
  126OSM    H3S13448   0.742   4.251   6.788  1.7712  0.1473  2.8805
  126OSM     O313449   0.608   4.399   6.807  0.0021  0.1251 -0.1121
  126OSM    HO313450   0.603   4.460   6.733  1.9353  1.6503  0.9044
  126OSM    C4S13451   0.794   4.369   6.959 -0.6174 -0.8511 -0.6668
  126OSM    H4S13452   0.874   4.303   6.996 -0.9444  0.5499  2.9526
  126OSM    C5S13453   0.760   4.459   7.052  0.4152  0.6148  0.9521
  126OSM    H5S13454   0.687   4.538   7.030  0.5460  0.3467 -0.5308
  126OSM    C6S13455   0.814   4.470   7.184 -0.8080  0.1224  0.0613
  126OSM    H6S13456   0.756   4.553   7.231  2.5140  3.4787 -1.1825
  126OSM    H6T13457   0.915   4.516   7.196  0.1984 -1.9322 -0.0734
  126OSM    C7S13458   0.794   4.354   7.277 -0.2459 -0.3586  0.2230
  126OSM    H7S13459   0.822   4.255   7.235  1.0903 -0.2070  0.7134
  126OSM    H7T13460   0.693   4.337   7.320  0.3045 -0.3533  1.5548
  126OSM    C8S13461   0.874   4.359   7.404 -0.5636 -0.3095  0.8757
  126OSM    H8S13462   0.980   4.377   7.376 -0.9592 -0.3962 -0.7832
  126OSM    H8T13463   0.862   4.261   7.455 -0.4804 -0.0202  1.4627
  126OSM    C9S13464   0.823   4.466   7.503 -0.4628  0.7559  0.5375
  126OSM    H9S13465   0.712   4.453   7.508 -0.5077 -0.3362 -1.7878
  126OSM    H9T13466   0.849   4.569   7.469 -0.6529 -0.5817 -4.3835
  126OSM   C10S13467   0.876   4.450   7.649  0.2040 -0.1219  0.2476
  126OSM   H10S13468   0.982   4.482   7.653 -0.3887  1.8768  2.5393
  126OSM   H10T13469   0.865   4.343   7.678 -2.1059  0.1501  0.6171
  126OSM   C11S13470   0.789   4.528   7.757 -0.5989 -0.4090  0.5307
  126OSM   H11S13471   0.680   4.509   7.743 -0.7013 -0.0922  0.8763
  126OSM   H11T13472   0.815   4.636   7.752  1.4780 -0.8721  0.3673
  126OSM   C12S13473   0.809   4.486   7.904  0.0039 -0.2004  0.6127
  126OSM   H12S13474   0.741   4.555   7.959  0.3544  0.5017  0.1756
  126OSM   H12T13475   0.913   4.502   7.939  0.5552  0.2788 -1.1847
  126OSM   C13S13476   0.749   4.348   7.948  0.7943  0.2577  0.2335
  126OSM   H13S13477   0.784   4.260   7.890 -0.6678 -0.2701  0.1123
  126OSM   H13T13478   0.640   4.363   7.931  0.8168  0.8884  0.6204
  126OSM   C14S13479   0.770   4.317   8.101 -0.4710  0.2156  0.7480
  126OSM   H14S13480   0.741   4.403   8.164  1.8857  0.8878  1.0180
  126OSM   H14T13481   0.877   4.291   8.115 -0.5652 -0.6078  0.0389
  126OSM   C15S13482   0.680   4.203   8.147 -0.4730 -0.3804  0.8499
  126OSM   H15S13483   0.677   4.126   8.067  0.2912 -0.4314  0.8619
  126OSM   H15T13484   0.576   4.237   8.170 -0.3363  0.6406  0.0802
  126OSM   C16S13485   0.729   4.131   8.277 -0.4714 -0.3429  0.0215
  126OSM   H16S13486   0.702   4.202   8.359 -2.0821 -0.4126 -0.4214
  126OSM   H16T13487   0.837   4.108   8.269 -0.3809 -0.2058  0.7596
  126OSM   C17S13488   0.648   3.998   8.294  0.6542 -0.1248  0.0076
  126OSM   H17S13489   0.684   3.936   8.210  1.7195  1.8767 -1.0879
  126OSM   H17T13490   0.538   4.014   8.291  0.1483 -3.0384 -0.1290
  126OSM   C18S13491   0.670   3.917   8.418  0.2781  0.4616  0.4054
  126OSM   H18S13492   0.622   3.972   8.502  0.5628 -0.5908  1.2804
  126OSM   H18T13493   0.778   3.909   8.441  0.1403 -1.7619  0.5303
  126OSM   H18U13494   0.635   3.811   8.424  1.2598 -0.0709 -1.9533
  126OSM    C1F13495   1.088   4.494   6.728 -0.0214 -0.4305 -0.0949
  126OSM     OF13496   1.073   4.614   6.720 -0.0375 -0.0453  0.0024
  126OSM    C2F13497   1.222   4.429   6.700  0.1650  0.7421 -0.0274
  126OSM    H2F13498   1.264   4.484   6.614 -0.6001  2.3448  0.5830
  126OSM    H2G13499   1.202   4.323   6.673 -1.7187  0.9528  0.3866
  126OSM    C3F13500   1.314   4.439   6.825  0.2178  0.0041  0.0550
  126OSM    H3F13501   1.335   4.547   6.841  1.4868  0.3014 -2.9141
  126OSM    H3G13502   1.406   4.397   6.779  0.9646  0.6519  0.9316
  126OSM    C4F13503   1.280   4.359   6.954 -0.0617 -0.0457 -0.2020
  126OSM    H4F13504   1.375   4.340   7.008  0.0399  4.0657  1.4048
  126OSM    H4G13505   1.226   4.265   6.929 -0.6312  0.2185  0.0152
  126OSM    C5F13506   1.203   4.439   7.055  0.4442  0.4098 -0.8203
  126OSM    H5F13507   1.170   4.367   7.134  0.9483 -1.8181 -2.5346
  126OSM    H5G13508   1.115   4.491   7.013 -0.1289  0.4640  0.3837
  126OSM    C6F13509   1.279   4.552   7.131  0.2207 -0.3713 -0.2023
  126OSM    H6F13510   1.215   4.614   7.197  0.2874 -0.3904 -0.1195
  126OSM    H6G13511   1.319   4.613   7.047 -1.0950  0.1338 -0.4850
  126OSM    C7F13512   1.403   4.503   7.212  0.3403  0.8160 -0.4073
  126OSM    H7F13513   1.473   4.588   7.227  0.7250  0.6849 -1.4276
  126OSM    H7G13514   1.468   4.440   7.148 -0.4091 -1.2906  0.8221
  126OSM    C8F13515   1.389   4.428   7.345  0.2525  0.1214 -0.6026
  126OSM    H8F13516   1.492   4.408   7.383  0.0608  0.0154 -0.1391
  126OSM    H8G13517   1.343   4.328   7.334 -0.0118  0.1810 -0.0832
  126OSM    C9F13518   1.294   4.506   7.437  0.0600  0.3949  0.5196
  126OSM    H9F13519   1.202   4.530   7.382  0.5037  1.4416  0.2128
  126OSM   C10F13520   1.317   4.549   7.564 -0.2630  0.0898  0.3983
  126OSM   H10F13521   1.247   4.619   7.612  0.3677  1.5249 -0.7021
  126OSM   C11F13522   1.449   4.524   7.641 -0.3583  0.5606 -0.2428
  126OSM   H11F13523   1.474   4.604   7.714 -0.9310  0.8073 -0.3106
  126OSM   H11G13524   1.532   4.527   7.567 -0.6602  1.4536 -0.5598
  126OSM   C12F13525   1.455   4.383   7.702  0.5119  0.8031  0.1719
  126OSM   H12F13526   1.450   4.311   7.618 -0.0094 -0.7390  1.4530
  126OSM   H12G13527   1.363   4.368   7.764  0.6999  0.7579  0.4436
  126OSM   C13F13528   1.579   4.357   7.787  0.1650 -0.1749 -0.6985
  126OSM   H13F13529   1.669   4.375   7.724  0.1175  0.2733 -0.6421
  126OSM   H13G13530   1.577   4.248   7.807  1.3872  0.0694  0.9512
  126OSM   C14F13531   1.581   4.435   7.925  0.7938 -0.3671 -0.0539
  126OSM   H14F13532   1.486   4.425   7.982  1.4375 -1.6110  0.8238
  126OSM   H14G13533   1.594   4.541   7.895 -0.4392  0.1608  1.1650
  126OSM   C15F13534   1.693   4.402   8.017 -0.8664 -0.0711  0.5402
  126OSM   H15F13535   1.789   4.399   7.963 -1.7057 -0.2191 -0.9898
  126OSM   H15G13536   1.677   4.302   8.064  1.0041 -0.1880  0.9933
  126OSM   C16F13537   1.710   4.505   8.134  0.7249 -0.3904  0.9835
  126OSM   H16F13538   1.620   4.539   8.190  1.2864  2.9207  0.1005
  126OSM   H16G13539   1.746   4.599   8.088  2.3225 -2.2105 -1.7583
  126OSM   C17F13540   1.800   4.455   8.250  0.3182 -0.1159 -0.3372
  126OSM   H17F13541   1.841   4.540   8.309  0.0610 -0.0379 -0.2724
  126OSM   H17G13542   1.887   4.393   8.218  0.4815 -0.1466  0.1678
  126OSM   C18F13543   1.717   4.375   8.346 -0.3713 -0.7035 -0.0363
  126OSM   H18F13544   1.783   4.336   8.427 -0.1301 -0.5840 -0.1743
  126OSM   H18G13545   1.659   4.291   8.302 -0.5083 -1.5032  1.5867
  126OSM   H18H13546   1.639   4.441   8.388 -0.8275 -0.0868 -1.7512
  127OSM      N13547   1.498   3.988   6.047 -0.1644  0.6510 -0.3603
  127OSM    C1513548   1.462   3.973   5.903 -0.1477 -0.4133 -0.3861
  127OSM   H15A13549   1.436   3.878   5.860 -0.3029  0.0335 -1.2852
  127OSM   H15B13550   1.552   3.983   5.844  0.1504 -0.9094 -0.0295
  127OSM   H15C13551   1.390   4.044   5.865 -0.0201 -1.1233 -2.0364
  127OSM    C1413552   1.564   4.119   6.067  0.0281 -0.3374 -0.0501
  127OSM   H14A13553   1.503   4.195   6.020 -0.4864 -0.9998 -0.4737
  127OSM   H14B13554   1.656   4.113   6.012 -0.5920  0.2606 -1.1910
  127OSM   H14C13555   1.577   4.132   6.174 -3.0219 -2.4453  0.7104
  127OSM    C1313556   1.376   3.994   6.137  0.6024  0.0286  0.4610
  127OSM   H13A13557   1.412   4.025   6.235  0.4475  0.5794  0.3474
  127OSM   H13B13558   1.329   3.897   6.136  4.3781 -2.0059 -0.6714
  127OSM   H13C13559   1.307   4.066   6.096  1.1512  0.4605  0.2712
  127OSM    C1213560   1.591   3.872   6.095  0.1842  0.5086  0.7588
  127OSM   H12A13561   1.679   3.882   6.033 -1.8275 -1.9258 -2.8449
  127OSM   H12B13562   1.548   3.776   6.070  1.6086  0.3678 -1.3712
  127OSM    C1113563   1.643   3.860   6.239  0.7930  0.1938  0.3435
  127OSM   H11A13564   1.714   3.775   6.231  0.2918 -0.0491 -2.2091
  127OSM   H11B13565   1.562   3.834   6.310 -1.1108  2.3360 -0.8939
  127OSM      P13566   1.852   4.016   6.249  0.2640 -0.2158 -0.1301
  127OSM    O1313567   1.874   3.998   6.104  0.4318 -0.0937  0.1489
  127OSM    O1413568   1.878   4.148   6.308 -0.5536 -0.4368  1.0016
  127OSM    O1113569   1.944   3.914   6.316 -1.0163 -0.6970  0.0445
  127OSM    O1213570   1.694   3.977   6.285 -0.0615  0.1314 -0.7458
  127OSM    C1S13571   1.934   3.892   6.454 -0.4522  0.4147 -0.3595
  127OSM    H1S13572   1.874   3.799   6.461  0.5750 -0.1535  2.8451
  127OSM    H1T13573   1.879   3.970   6.511 -0.2248 -0.6982  1.4519
  127OSM     NF13574   2.006   3.868   6.671 -0.4477 -0.2757 -0.3568
  127OSM    HNF13575   2.007   3.950   6.728 -0.2581 -0.2765 -0.3592
  127OSM    C2S13576   2.062   3.874   6.538  0.1480  0.1013 -0.4574
  127OSM    H2S13577   2.111   3.778   6.514 -1.3336 -1.0982  1.0445
  127OSM    C3S13578   2.157   3.998   6.503 -0.0044 -0.5430  0.6933
  127OSM    H3S13579   2.113   4.096   6.534  0.9212  0.1289 -0.0562
  127OSM     O313580   2.202   4.019   6.364  0.0521  0.0836 -0.9914
  127OSM    HO313581   2.143   3.964   6.312 -0.9532 -0.6601  0.8273
  127OSM    C4S13582   2.271   3.978   6.598 -0.2770  0.1066  0.1291
  127OSM    H4S13583   2.258   4.029   6.694  1.2077  0.9621 -0.0917
  127OSM    C5S13584   2.381   3.902   6.589 -0.4291  0.3648 -0.2323
  127OSM    H5S13585   2.389   3.854   6.490 -1.5475  1.9210 -1.1125
  127OSM    C6S13586   2.494   3.878   6.689 -0.2775 -0.4257 -0.2344
  127OSM    H6S13587   2.587   3.922   6.648  0.6072  0.1282  2.2216
  127OSM    H6T13588   2.520   3.771   6.703  1.4138 -0.0550 -0.3346
  127OSM    C7S13589   2.484   3.932   6.832 -0.1155 -0.7143 -0.7809
  127OSM    H7S13590   2.391   3.884   6.870 -1.3818  2.3402  0.2547
  127OSM    H7T13591   2.470   4.042   6.828  0.0744 -0.5402  1.8241
  127OSM    C8S13592   2.603   3.916   6.926 -0.2309  0.2222  0.0417
  127OSM    H8S13593   2.685   3.982   6.891 -0.4240  1.8470  2.4548
  127OSM    H8T13594   2.636   3.810   6.917 -0.3668 -0.0595  2.3656
  127OSM    C9S13595   2.576   3.942   7.074 -0.5190 -0.6192 -0.2037
  127OSM    H9S13596   2.506   3.859   7.098  0.5428 -1.8235 -1.1241
  127OSM    H9T13597   2.512   4.033   7.079 -1.5735 -1.3331 -0.5550
  127OSM   C10S13598   2.703   3.951   7.162  0.5043 -0.5649 -0.4411
  127OSM   H10S13599   2.766   4.031   7.119  2.1002 -1.7367 -0.3599
  127OSM   H10T13600   2.758   3.855   7.176  0.2036 -0.4990  1.4571
  127OSM   C11S13601   2.658   3.993   7.299 -0.1044 -0.3029 -0.5177
  127OSM   H11S13602   2.574   3.938   7.345 -1.0572  1.5836  0.0778
  127OSM   H11T13603   2.609   4.092   7.289 -0.3886 -0.5304 -1.5853
  127OSM   C12S13604   2.763   3.998   7.410 -0.1809 -0.1178 -0.5915
  127OSM   H12S13605   2.852   4.058   7.384 -0.0509  0.6153  1.3557
  127OSM   H12T13606   2.793   3.891   7.412  3.6059  0.8099  0.6390
  127OSM   C13S13607   2.708   4.040   7.546 -0.3813 -0.1955 -0.4098
  127OSM   H13S13608   2.608   3.995   7.568 -0.3346 -0.7364 -1.2755
  127OSM   H13T13609   2.694   4.150   7.551  1.5420  0.0463  0.5574
  127OSM   C14S13610   2.807   3.991   7.654  0.6803  0.2210 -0.0079
  127OSM   H14S13611   2.909   4.031   7.634 -0.7118  3.5285 -1.1204
  127OSM   H14T13612   2.821   3.881   7.646 -0.3907  0.0838 -0.2116
  127OSM   C15S13613   2.761   4.019   7.795  0.1232 -0.2754  0.0524
  127OSM   H15S13614   2.658   3.988   7.823  0.7010 -1.1488  1.3149
  127OSM   H15T13615   2.762   4.129   7.809 -0.6814 -0.2529 -0.0135
  127OSM   C16S13616   2.836   3.947   7.903 -0.6773  0.3083 -0.0154
  127OSM   H16S13617   2.929   4.005   7.919 -0.4679  0.6759 -2.2098
  127OSM   H16T13618   2.854   3.843   7.869 -0.0783 -0.1824  1.7184
  127OSM   C17S13619   2.753   3.947   8.036 -0.5428  0.1561  1.0053
  127OSM   H17S13620   2.653   3.906   8.009 -0.5170  0.5137  0.3334
  127OSM   H17T13621   2.748   4.053   8.070 -0.2406 -0.2944  2.5556
  127OSM   C18S13622   2.820   3.864   8.147 -0.2343 -0.0022  0.1755
  127OSM   H18S13623   2.738   3.853   8.222 -2.4312  2.3808 -1.6843
  127OSM   H18T13624   2.910   3.919   8.183 -0.4778  2.6230 -2.7811
  127OSM   H18U13625   2.846   3.766   8.101 -1.9643  0.7117 -2.5745
  127OSM    C1F13626   1.934   3.762   6.717 -0.2794 -0.3110 -0.0542
  127OSM     OF13627   1.901   3.666   6.647 -0.2986  0.4215  0.4400
  127OSM    C2F13628   1.905   3.756   6.866 -0.1791  0.0209  0.6873
  127OSM    H2F13629   1.857   3.855   6.887 -2.3825 -1.0327  0.9130
  127OSM    H2G13630   2.005   3.751   6.914 -0.7134 -0.0243  1.8279
  127OSM    C3F13631   1.828   3.632   6.911  0.3581  0.1401  0.2402
  127OSM    H3F13632   1.877   3.542   6.869 -0.4439 -0.2412  0.0942
  127OSM    H3G13633   1.731   3.628   6.857 -0.1571 -0.7066  1.1879
  127OSM    C4F13634   1.806   3.628   7.064  0.3305  0.7870  0.8877
  127OSM    H4F13635   1.715   3.567   7.082 -0.5918  2.0228  0.6029
  127OSM    H4G13636   1.779   3.734   7.087  0.6095  1.1036 -0.1907
  127OSM    C5F13637   1.927   3.599   7.146  0.6251  0.7336  0.0381
  127OSM    H5F13638   2.003   3.676   7.122  1.4802 -1.3236 -5.1642
  127OSM    H5G13639   1.964   3.499   7.114  1.2041  0.6749  0.8515
  127OSM    C6F13640   1.888   3.595   7.293 -0.0107  0.0064  0.1119
  127OSM    H6F13641   1.953   3.530   7.355  0.0967  1.1143  1.2112
  127OSM    H6G13642   1.780   3.569   7.296 -0.1961  0.6006 -0.7536
  127OSM    C7F13643   1.899   3.731   7.355  0.6303 -0.4575  0.1176
  127OSM    H7F13644   1.806   3.788   7.334 -0.1938 -1.9125 -0.3204
  127OSM    H7G13645   1.984   3.790   7.313  0.6454 -0.7012 -0.1963
  127OSM    C8F13646   1.924   3.738   7.502 -0.7010  0.1221 -1.1583
  127OSM    H8F13647   1.840   3.696   7.561 -0.5492 -2.0219 -2.3753
  127OSM    H8G13648   1.908   3.844   7.533 -1.4626 -0.4559  0.5222
  127OSM    C9F13649   2.066   3.704   7.548 -0.6038  0.4185 -0.0142
  127OSM    H9F13650   2.136   3.703   7.464 -0.4621  1.2297  0.0844
  127OSM   C10F13651   2.111   3.683   7.676  0.0538 -0.7224  0.0644
  127OSM   H10F13652   2.215   3.653   7.698  0.6197  0.4606 -0.8788
  127OSM   C11F13653   2.015   3.693   7.791 -0.2691 -0.4277  0.8609
  127OSM   H11F13654   1.920   3.643   7.762  0.6648 -2.2424  0.8444
  127OSM   H11G13655   1.998   3.802   7.806  0.3995 -0.2092  0.0834
  127OSM   C12F13656   2.061   3.648   7.933 -0.3846  0.3950  0.0800
  127OSM   H12F13657   2.113   3.550   7.918  1.8703  1.3614  1.0929
  127OSM   H12G13658   1.975   3.633   8.002 -1.1872  0.4671 -0.8757
  127OSM   C13F13659   2.172   3.736   7.994 -0.3807 -0.1522 -0.6402
  127OSM   H13F13660   2.137   3.840   7.975 -3.6812 -0.8940  0.7150
  127OSM   H13G13661   2.268   3.724   7.939  0.4146 -2.3007  1.1088
  127OSM   C14F13662   2.198   3.709   8.139 -1.0159  0.5405 -0.1278
  127OSM   H14F13663   2.194   3.598   8.138 -0.0610  0.4964 -1.0324
  127OSM   H14G13664   2.115   3.742   8.205 -1.5898  0.2400 -0.6900
  127OSM   C15F13665   2.337   3.754   8.199  0.4960 -0.7815 -0.0920
  127OSM   H15F13666   2.357   3.863   8.190  1.7703 -0.8145  1.8399
  127OSM   H15G13667   2.418   3.698   8.147 -0.4191 -2.4491  0.2198
  127OSM   C16F13668   2.352   3.742   8.356 -1.1008 -0.0147 -0.0565
  127OSM   H16F13669   2.283   3.817   8.401 -0.8349 -0.6994  1.5697
  127OSM   H16G13670   2.458   3.771   8.372 -0.3834 -1.2799 -2.0996
  127OSM   C17F13671   2.333   3.604   8.419  0.2972 -0.0526 -0.1445
  127OSM   H17F13672   2.411   3.539   8.374  2.1057  1.3318  0.8582
  127OSM   H17G13673   2.233   3.567   8.386 -0.3753  1.9541 -0.5431
  127OSM   C18F13674   2.345   3.611   8.570  0.1959 -0.2906 -0.5852
  127OSM   H18F13675   2.278   3.683   8.623  0.5568  1.4076 -2.3159
  127OSM   H18G13676   2.450   3.632   8.599  0.3042  0.7308 -1.6642
  127OSM   H18H13677   2.303   3.516   8.610  0.6190  0.6359  2.2828
  128OSM      N13678   4.568   0.187   6.293 -0.0459 -0.6224 -0.2485
  128OSM    C1513679   4.640   0.103   6.195 -0.2332 -0.4121  0.5880
  128OSM   H15A13680   4.639   0.001   6.230  1.7257 -2.2901 -4.0252
  128OSM   H15B13681   4.746   0.117   6.204  0.0089 -3.1668  5.2397
  128OSM   H15C13682   4.592   0.106   6.098 -0.1849  1.7437  0.5886
  128OSM    C1413683   4.615   0.156   6.434 -1.0142 -0.3180 -0.8316
  128OSM   H14A13684   4.573   0.218   6.512 -0.7361 -0.8776 -0.2312
  128OSM   H14B13685   4.723   0.155   6.427 -0.7838 -0.6732  1.8789
  128OSM   H14C13686   4.579   0.055   6.445 -1.2768 -0.3082 -1.5278
  128OSM    C1313687   4.603   0.324   6.260  0.0627  0.1359  0.3019
  128OSM   H13A13688   4.558   0.361   6.169  0.6837  0.7674  0.2473
  128OSM   H13B13689   4.709   0.340   6.257  0.3606 -1.4639  1.0146
  128OSM   H13C13690   4.571   0.388   6.341  0.0751 -1.9959  2.1019
  128OSM    C1213691   4.421   0.177   6.290 -0.1133 -0.2446 -0.4370
  128OSM   H12A13692   4.374   0.246   6.358  1.8203 -0.6760  1.4270
  128OSM   H12B13693   4.389   0.076   6.315  0.2289 -0.1585  0.3796
  128OSM    C1113694   4.350   0.207   6.154  0.4990 -0.5265 -0.0671
  128OSM   H11A13695   4.261   0.141   6.152  1.0804 -1.3215 -0.4758
  128OSM   H11B13696   4.414   0.163   6.075 -0.2260  1.0735 -1.6114
  128OSM      P13697   4.190   0.418   6.146  0.2193 -0.6561  0.1452
  128OSM    O1313698   4.191   0.549   6.072  0.7921 -0.0171  0.2903
  128OSM    O1413699   4.078   0.327   6.120 -0.2825 -0.0805 -0.1751
  128OSM    O1113700   4.187   0.454   6.294 -1.0467  0.8258  0.4533
  128OSM    O1213701   4.332   0.345   6.132  0.3805 -0.5559 -0.3669
  128OSM    C1S13702   4.296   0.490   6.375 -0.3650 -0.1263  0.2392
  128OSM    H1S13703   4.326   0.590   6.337  0.0054 -1.2506 -2.6446
  128OSM    H1T13704   4.383   0.422   6.364  1.2359  1.9553 -0.5398
  128OSM     NF13705   4.383   0.542   6.593 -0.2500 -0.7705 -0.1656
  128OSM    HNF13706   4.421   0.468   6.648 -0.5703  0.3946  1.7054
  128OSM    C2S13707   4.261   0.511   6.521  0.6015  0.3386 -0.6566
  128OSM    H2S13708   4.195   0.600   6.522 -1.3388 -1.0000  1.0773
  128OSM    C3S13709   4.189   0.384   6.576  0.1943  0.2079  0.5078
  128OSM    H3S13710   4.266   0.304   6.579 -0.6827 -0.6770  3.9866
  128OSM     O313711   4.078   0.332   6.500  0.1789 -0.0123  0.2911
  128OSM    HO313712   4.084   0.372   6.412 -0.6220 -0.3282  0.0850
  128OSM    C4S13713   4.143   0.401   6.718 -0.8934  0.3031  0.1645
  128OSM    H4S13714   4.220   0.378   6.793  0.6254 -0.7148 -1.6052
  128OSM    C5S13715   4.026   0.443   6.769 -0.1082  0.0152  0.4818
  128OSM    H5S13716   3.958   0.478   6.691 -0.9998 -4.1943 -0.8516
  128OSM    C6S13717   3.989   0.471   6.911  0.0677  0.2825  0.4122
  128OSM    H6S13718   3.917   0.387   6.927 -1.3287  0.2633 -4.3891
  128OSM    H6T13719   3.920   0.558   6.907  0.6675  0.7391 -2.9559
  128OSM    C7S13720   4.102   0.482   7.020  0.6073  0.4067  0.3054
  128OSM    H7S13721   4.155   0.578   7.005  1.3781  0.2139  1.6939
  128OSM    H7T13722   4.161   0.388   7.027 -2.3939 -1.5107  2.8268
  128OSM    C8S13723   4.033   0.499   7.161 -0.1683 -0.5972 -0.1916
  128OSM    H8S13724   3.996   0.400   7.196  5.9735 -2.8081  1.2762
  128OSM    H8T13725   3.963   0.585   7.158 -0.4157 -0.7936 -0.0811
  128OSM    C9S13726   4.140   0.534   7.260 -0.4677  0.0916  0.0739
  128OSM    H9S13727   4.167   0.639   7.239 -0.6584  0.3865  1.2309
  128OSM    H9T13728   4.232   0.472   7.260 -0.8856 -0.5461  0.4904
  128OSM   C10S13729   4.075   0.541   7.401 -0.7080 -0.0097  0.2639
  128OSM   H10S13730   4.064   0.439   7.443  1.2429 -0.8639 -1.1400
  128OSM   H10T13731   3.977   0.594   7.395 -0.5829  0.2098  0.1463
  128OSM   C11S13732   4.169   0.615   7.497  0.5034 -0.1099 -0.6183
  128OSM   H11S13733   4.172   0.716   7.452 -0.8121  0.2563  0.0720
  128OSM   H11T13734   4.271   0.572   7.503  1.4371  2.1913  1.5799
  128OSM   C12S13735   4.109   0.633   7.641  0.5358  0.1632  0.5514
  128OSM   H12S13736   4.091   0.533   7.686  2.3915 -0.0008  1.0266
  128OSM   H12T13737   4.012   0.681   7.617 -0.6555 -2.3040  0.0076
  128OSM   C13S13738   4.192   0.726   7.731 -0.0892  0.3341  0.4253
  128OSM   H13S13739   4.199   0.828   7.689  0.0843 -0.3154 -1.2189
  128OSM   H13T13740   4.294   0.680   7.730  0.3158  1.1628 -1.7474
  128OSM   C14S13741   4.139   0.734   7.877 -0.0091  0.2938  0.4353
  128OSM   H14S13742   4.037   0.779   7.877  0.3615  1.1798 -0.8040
  128OSM   H14T13743   4.204   0.809   7.927  0.2917  0.2706  0.0782
  128OSM   C15S13744   4.117   0.606   7.963 -0.6474  0.0621 -0.6249
  128OSM   H15S13745   4.217   0.565   7.989 -0.3275  1.3222  0.2372
  128OSM   H15T13746   4.048   0.537   7.911 -3.2573  2.2104 -0.2550
  128OSM   C16S13747   4.042   0.631   8.101  0.9153  0.1953 -0.6846
  128OSM   H16S13748   3.949   0.687   8.079  1.5023  1.4544 -0.0233
  128OSM   H16T13749   4.119   0.690   8.154  1.7620 -0.6122 -0.9637
  128OSM   C17S13750   4.005   0.505   8.181 -0.1466  0.0580 -0.0787
  128OSM   H17S13751   4.099   0.447   8.186 -0.1163  0.0703 -0.5028
  128OSM   H17T13752   3.935   0.442   8.122 -0.3804 -0.1225  0.3870
  128OSM   C18S13753   3.952   0.536   8.318 -0.0738 -0.2781 -0.3533
  128OSM   H18S13754   3.858   0.594   8.305 -0.7481 -1.2531  0.0214
  128OSM   H18T13755   4.019   0.605   8.374 -0.0897 -1.1140  0.7455
  128OSM   H18U13756   3.919   0.448   8.378  3.3170 -0.9536  0.7061
  128OSM    C1F13757   4.465   0.650   6.599 -0.1683 -0.1108  0.4172
  128OSM     OF13758   4.452   0.738   6.510 -1.2924 -0.2959  0.1239
  128OSM    C2F13759   4.570   0.643   6.702 -0.2118 -0.3496 -0.5004
  128OSM    H2F13760   4.626   0.738   6.712  0.2223 -0.8412  2.9577
  128OSM    H2G13761   4.645   0.567   6.673 -0.9940 -0.5844 -2.0192
  128OSM    C3F13762   4.521   0.599   6.842  0.5400  0.3515 -0.1969
  128OSM    H3F13763   4.455   0.509   6.836 -0.9311  1.4638 -1.5768
  128OSM    H3G13764   4.458   0.682   6.879 -0.9002 -0.6196 -0.3766
  128OSM    C4F13765   4.633   0.564   6.937 -0.5290 -0.4034 -0.1556
  128OSM    H4F13766   4.697   0.654   6.945  0.3517 -0.9308 -1.0772
  128OSM    H4G13767   4.689   0.470   6.915  0.3591 -0.3961  1.8474
  128OSM    C5F13768   4.577   0.550   7.077 -0.0408 -0.0576  0.4092
  128OSM    H5F13769   4.595   0.447   7.113 -1.3658  0.3263  2.3718
  128OSM    H5G13770   4.467   0.568   7.078  0.2049  1.5515  0.8561
  128OSM    C6F13771   4.637   0.640   7.185 -0.2908  0.4351 -0.1836
  128OSM    H6F13772   4.636   0.746   7.152  1.7711  1.0282  1.4356
  128OSM    H6G13773   4.745   0.616   7.197 -0.2512  1.3499  1.6914
  128OSM    C7F13774   4.568   0.626   7.317 -0.0042  0.0154 -0.0703
  128OSM    H7F13775   4.579   0.519   7.346  0.1340 -0.1551 -0.7469
  128OSM    H7G13776   4.461   0.655   7.316 -0.5185 -1.7324  0.5360
  128OSM    C8F13777   4.629   0.714   7.431 -0.9643  0.1322 -0.7480
  128OSM    H8F13778   4.563   0.716   7.521  0.1319 -2.7098  0.2378
  128OSM    H8G13779   4.635   0.822   7.409 -1.8597  0.4168  0.2974
  128OSM    C9F13780   4.771   0.668   7.450  0.2802 -0.2583 -0.4345
  128OSM    H9F13781   4.839   0.647   7.366  0.9737  0.1500  0.0177
  128OSM   C10F13782   4.825   0.703   7.566 -0.6156 -0.1752 -0.2858
  128OSM   H10F13783   4.929   0.670   7.581 -0.5809  0.0166 -0.0910
  128OSM   C11F13784   4.760   0.770   7.685 -0.1375 -0.4642  0.4326
  128OSM   H11F13785   4.689   0.851   7.663  0.2203 -0.2592  0.0237
  128OSM   H11G13786   4.844   0.817   7.740  0.4536  0.6446 -1.3444
  128OSM   C12F13787   4.704   0.665   7.787  1.0563  0.1462  0.2477
  128OSM   H12F13788   4.787   0.594   7.810 -0.4588 -2.1306 -0.9083
  128OSM   H12G13789   4.619   0.607   7.745  0.1677  0.0924  2.0043
  128OSM   C13F13790   4.639   0.738   7.901 -0.9663  0.2844  0.3553
  128OSM   H13F13791   4.573   0.820   7.864 -2.1491 -0.3360  1.0365
  128OSM   H13G13792   4.717   0.796   7.954 -0.4809 -0.9132  0.9776
  128OSM   C14F13793   4.561   0.650   8.003  0.1218  0.1877  0.4319
  128OSM   H14F13794   4.610   0.560   8.046 -1.9918 -0.6442  1.2728
  128OSM   H14G13795   4.474   0.609   7.947 -0.1261  1.8288 -0.4438
  128OSM   C15F13796   4.500   0.719   8.124  0.7182  0.0143  0.3502
  128OSM   H15F13797   4.433   0.802   8.092  1.3804  0.7608  0.8617
  128OSM   H15G13798   4.588   0.760   8.179  1.2336 -1.4935  0.6959
  128OSM   C16F13799   4.434   0.614   8.210  0.2913 -0.0405  0.3553
  128OSM   H16F13800   4.501   0.527   8.228 -1.0787 -0.8972  1.5556
  128OSM   H16G13801   4.352   0.552   8.168  1.2686 -1.3260  0.2833
  128OSM   C17F13802   4.396   0.660   8.350 -0.5522  0.5981 -0.6341
  128OSM   H17F13803   4.328   0.747   8.341 -0.2179  0.8135 -1.1321
  128OSM   H17G13804   4.487   0.692   8.404  0.5670 -0.5242 -1.7692
  128OSM   C18F13805   4.309   0.574   8.438  0.2055  0.3319 -0.7445
  128OSM   H18F13806   4.359   0.491   8.491 -0.2653 -0.0947 -0.9601
  128OSM   H18G13807   4.223   0.526   8.387 -0.0121  0.9444 -0.9680
  128OSM   H18H13808   4.262   0.643   8.511  0.4030 -0.6212  0.3055
  129OSM      N13809   2.014   3.450   6.149 -0.6253  0.4971 -0.6487
  129OSM    C1513810   1.954   3.337   6.216  0.6327 -0.3462 -0.5666
  129OSM   H15A13811   2.012   3.308   6.303 -0.0197  0.0045 -0.0039
  129OSM   H15B13812   1.942   3.246   6.159 -1.3787  0.0843 -0.8977
  129OSM   H15C13813   1.859   3.375   6.251  0.2117 -1.5632 -0.3270
  129OSM    C1413814   2.012   3.572   6.236  0.0116 -0.1762 -0.2611
  129OSM   H14A13815   1.908   3.596   6.253  0.1529 -0.9209  1.8460
  129OSM   H14B13816   2.050   3.663   6.192 -0.9359  0.6364  0.5490
  129OSM   H14C13817   2.072   3.557   6.324  0.4746  0.6192 -0.4311
  129OSM    C1313818   2.155   3.416   6.129  0.2944 -0.8752  0.1170
  129OSM   H13A13819   2.211   3.390   6.217  0.4657  2.7092  1.2142
  129OSM   H13B13820   2.204   3.493   6.071  0.2307 -1.3110 -0.5322
  129OSM   H13C13821   2.171   3.328   6.067  1.1163  0.7407 -2.0903
  129OSM    C1213822   1.939   3.480   6.020  0.0480 -0.1126 -0.0229
  129OSM   H12A13823   1.910   3.389   5.970 -0.0414 -0.0162 -0.1462
  129OSM   H12B13824   1.992   3.546   5.952 -1.0910  0.3057 -0.5213
  129OSM    C1113825   1.803   3.549   6.040  1.1391 -0.4763  0.6339
  129OSM   H11A13826   1.748   3.542   5.943  1.6302  0.1089  0.3054
  129OSM   H11B13827   1.817   3.659   6.049 -0.3650 -0.3700  2.1822
  129OSM      P13828   1.580   3.472   6.138  0.6397  0.2717 -0.3979
  129OSM    O1313829   1.511   3.581   6.066  0.4290  0.3358 -0.4565
  129OSM    O1413830   1.561   3.339   6.076  0.5113  0.4044  0.5560
  129OSM    O1113831   1.526   3.466   6.290  0.6211  0.7892 -0.0096
  129OSM    O1213832   1.729   3.498   6.155 -0.4558  0.0597 -0.0359
  129OSM    C1S13833   1.574   3.367   6.379  0.3118  0.2213  0.4540
  129OSM    H1S13834   1.677   3.331   6.355 -0.4510 -1.1780 -0.9432
  129OSM    H1T13835   1.503   3.282   6.379  2.7747 -2.0791 -1.9710
  129OSM     NF13836   1.614   3.301   6.611 -0.0739 -0.2461 -0.4299
  129OSM    HNF13837   1.553   3.240   6.661  0.8223  0.4374  1.6145
  129OSM    C2S13838   1.562   3.408   6.528  0.2714  0.0844  0.7850
  129OSM    H2S13839   1.628   3.497   6.536  0.0397  0.1098  2.7867
  129OSM    C3S13840   1.421   3.455   6.568 -0.3508  0.3112 -0.0790
  129OSM    H3S13841   1.348   3.371   6.564 -0.7387  0.5903  0.7918
  129OSM     O313842   1.364   3.553   6.477  0.9399  0.4366 -0.4574
  129OSM    HO313843   1.426   3.557   6.404 -0.3078  1.4556 -1.4992
  129OSM    C4S13844   1.416   3.514   6.710  0.1396  0.1350  0.1909
  129OSM    H4S13845   1.452   3.618   6.711  0.2834  0.1179 -1.0468
  129OSM    C5S13846   1.369   3.458   6.822  0.1142  0.1786  0.1278
  129OSM    H5S13847   1.336   3.353   6.821  0.1880  0.1242  1.7763
  129OSM    C6S13848   1.359   3.518   6.959  0.3951  0.1079 -0.3968
  129OSM    H6S13849   1.430   3.457   7.018  1.7411 -1.2609 -3.2210
  129OSM    H6T13850   1.263   3.491   7.007 -0.4932  1.8075 -1.1301
  129OSM    C7S13851   1.376   3.672   6.973 -0.5308  0.0135 -0.4040
  129OSM    H7S13852   1.291   3.716   6.919 -1.4715 -2.1169 -0.7718
  129OSM    H7T13853   1.467   3.705   6.918  0.8129  0.6056  2.0180
  129OSM    C8S13854   1.354   3.714   7.114  0.8161 -0.1736  0.4158
  129OSM    H8S13855   1.246   3.690   7.126 -0.0483  2.9573 -0.2860
  129OSM    H8T13856   1.371   3.822   7.133  0.9966 -0.5425  2.6031
  129OSM    C9S13857   1.431   3.636   7.224 -0.0143 -1.1181  0.5690
  129OSM    H9S13858   1.538   3.640   7.194 -0.2341  0.3498 -0.1316
  129OSM    H9T13859   1.406   3.527   7.224 -0.6408 -0.9842  0.0537
  129OSM   C10S13860   1.415   3.692   7.367 -0.3052  0.4558 -0.8399
  129OSM   H10S13861   1.309   3.682   7.399  0.1227 -1.4854  0.1051
  129OSM   H10T13862   1.439   3.800   7.381 -0.5422  0.2598  1.4104
  129OSM   C11S13863   1.513   3.616   7.458 -0.2830  0.3047 -0.8590
  129OSM   H11S13864   1.609   3.607   7.403 -0.1095  2.1186 -0.9005
  129OSM   H11T13865   1.474   3.512   7.459  0.0015  0.1911  0.3178
  129OSM   C12S13866   1.528   3.662   7.601 -0.1356  0.0863 -0.1052
  129OSM   H12S13867   1.426   3.676   7.642  0.0912 -2.5644  1.5888
  129OSM   H12T13868   1.571   3.765   7.591  0.5969 -0.4655 -5.7265
  129OSM   C13S13869   1.602   3.563   7.685  0.2291  0.1114 -0.4541
  129OSM   H13S13870   1.712   3.569   7.670  0.4114  0.6326  0.9353
  129OSM   H13T13871   1.565   3.467   7.645 -0.4567  0.4123 -0.5470
  129OSM   C14S13872   1.581   3.580   7.837  0.4706  0.3346  0.8040
  129OSM   H14S13873   1.473   3.560   7.857 -0.0226  1.5965 -0.4099
  129OSM   H14T13874   1.612   3.683   7.862 -0.6535  0.8859  0.0577
  129OSM   C15S13875   1.663   3.477   7.915  0.1447 -0.5409  0.2255
  129OSM   H15S13876   1.764   3.517   7.935 -0.0704  0.7970 -1.1675
  129OSM   H15T13877   1.686   3.391   7.848  2.4483  0.1039  0.1120
  129OSM   C16S13878   1.593   3.420   8.040  0.4091  0.1348 -0.1383
  129OSM   H16S13879   1.674   3.354   8.078  0.8988  1.3240  0.9515
  129OSM   H16T13880   1.503   3.358   8.020  0.3072 -0.3144  1.5897
  129OSM   C17S13881   1.559   3.528   8.150  0.3596  0.3767  0.3791
  129OSM   H17S13882   1.492   3.599   8.096 -0.6558 -0.3124  0.6870
  129OSM   H17T13883   1.655   3.578   8.174  0.1370  0.8923  0.2221
  129OSM   C18S13884   1.487   3.472   8.274 -0.8804  0.3307  0.0520
  129OSM   H18S13885   1.454   3.552   8.343 -0.4297  0.4393  0.1493
  129OSM   H18T13886   1.559   3.409   8.332 -1.4943 -2.1466 -1.7080
  129OSM   H18U13887   1.406   3.399   8.256 -0.2739 -0.9370  2.1866
  129OSM    C1F13888   1.747   3.274   6.616  0.8891  0.5948 -0.4610
  129OSM     OF13889   1.836   3.312   6.536 -0.0273 -0.0989 -0.6790
  129OSM    C2F13890   1.790   3.202   6.741  0.3574 -0.0597 -0.0857
  129OSM    H2F13891   1.900   3.204   6.749  0.6057 -2.0875 -2.1115
  129OSM    H2G13892   1.759   3.095   6.743 -1.7668  0.4968 -0.5389
  129OSM    C3F13893   1.729   3.257   6.870  0.1106 -0.0527  0.0743
  129OSM    H3F13894   1.623   3.223   6.867  0.7492 -2.1951 -3.1715
  129OSM    H3G13895   1.720   3.367   6.869 -0.7206 -0.1063  0.4980
  129OSM    C4F13896   1.809   3.226   6.990 -0.6345 -0.1144  0.5973
  129OSM    H4F13897   1.900   3.290   6.995  0.7293 -1.9398  0.1836
  129OSM    H4G13898   1.838   3.119   6.998  0.0741  0.0987  1.0436
  129OSM    C5F13899   1.726   3.251   7.120 -0.4079  0.8563  0.1947
  129OSM    H5F13900   1.634   3.188   7.119  0.2900 -0.4247  3.2462
  129OSM    H5G13901   1.683   3.352   7.106  1.5419  2.0966  2.3134
  129OSM    C6F13902   1.793   3.246   7.256  0.0068 -0.3258  0.3995
  129OSM    H6F13903   1.712   3.275   7.327 -0.3162 -3.1256  1.3333
  129OSM    H6G13904   1.874   3.321   7.255 -0.2726  0.0351 -1.7858
  129OSM    C7F13905   1.843   3.105   7.278 -0.3120 -0.2770 -0.1563
  129OSM    H7F13906   1.929   3.092   7.209  0.8974 -2.0095  1.5506
  129OSM    H7G13907   1.772   3.021   7.263 -1.5207  0.5581  0.6725
  129OSM    C8F13908   1.893   3.088   7.424 -0.3092 -0.2880  0.0838
  129OSM    H8F13909   1.973   3.164   7.438  2.8144 -3.3642  0.0616
  129OSM    H8G13910   1.954   2.996   7.427 -1.3735 -0.9942  1.0129
  129OSM    C9F13911   1.781   3.105   7.520  0.5068  0.3399 -0.2287
  129OSM    H9F13912   1.686   3.049   7.511  1.3257 -2.1941  3.9983
  129OSM   C10F13913   1.787   3.178   7.636 -0.1140  0.4615  0.2915
  129OSM   H10F13914   1.702   3.173   7.705 -1.3348 -0.7476 -1.2225
  129OSM   C11F13915   1.904   3.263   7.681  0.6035  0.9919  0.2591
  129OSM   H11F13916   1.890   3.370   7.654 -1.7409  0.2269 -1.9621
  129OSM   H11G13917   2.000   3.249   7.626 -0.1242  0.3295 -0.8754
  129OSM   C12F13918   1.931   3.242   7.825 -0.0124 -0.0398  0.2075
  129OSM   H12F13919   1.835   3.239   7.882 -0.8127 -0.2781 -1.1167
  129OSM   H12G13920   1.995   3.327   7.858  0.3118  0.0057 -0.5140
  129OSM   C13F13921   1.999   3.105   7.869  0.5642  0.3204  0.0548
  129OSM   H13F13922   2.091   3.111   7.807  1.7054 -0.3026  1.6262
  129OSM   H13G13923   1.935   3.022   7.832  2.1625 -0.9591  0.0380
  129OSM   C14F13924   2.035   3.097   8.005 -0.2064  0.8406  0.4406
  129OSM   H14F13925   1.966   3.039   8.071  0.4065  1.0607  1.3007
  129OSM   H14G13926   2.028   3.194   8.059  0.7418 -0.4455  3.1075
  129OSM   C15F13927   2.166   3.025   8.038  0.6174 -0.2957  0.6471
  129OSM   H15F13928   2.239   3.089   7.985  0.2207  0.2757  0.7844
  129OSM   H15G13929   2.183   2.925   7.993 -2.6277 -0.2840 -0.9283
  129OSM   C16F13930   2.205   3.020   8.188 -0.3416  0.3224 -0.1208
  129OSM   H16F13931   2.146   3.104   8.230  0.6673  1.1622 -0.3609
  129OSM   H16G13932   2.312   3.049   8.186 -0.7894  2.3579  1.7243
  129OSM   C17F13933   2.194   2.882   8.254  0.2589 -0.2191  0.0886
  129OSM   H17F13934   2.221   2.895   8.361  1.6952 -2.5321  0.0883
  129OSM   H17G13935   2.260   2.801   8.215 -1.7365 -1.6149 -0.5341
  129OSM   C18F13936   2.044   2.860   8.260  0.6950 -0.4902 -0.2135
  129OSM   H18F13937   1.995   2.956   8.286  0.4321 -0.6876  0.0210
  129OSM   H18G13938   2.016   2.782   8.334 -2.3570  1.5666  0.9844
  129OSM   H18H13939   2.008   2.827   8.161  2.2761 -1.4773 -0.4979
  130OSM      N13940   3.236   6.234   6.224 -0.2719  0.4276 -0.5252
  130OSM    C1513941   3.085   6.241   6.216 -0.1032 -0.1105  0.2020
  130OSM   H15A13942   3.052   6.342   6.199 -3.4184 -1.0040  0.5446
  130OSM   H15B13943   3.036   6.216   6.309  1.2999  0.1810  1.0436
  130OSM   H15C13944   3.044   6.184   6.134  0.2237 -0.0295 -0.0200
  130OSM    C1413945   3.272   6.088   6.213 -0.2744 -0.3784  0.0717
  130OSM   H14A13946   3.210   6.028   6.278 -1.8421  0.8064 -0.2531
  130OSM   H14B13947   3.375   6.072   6.238 -0.0720  0.5448 -0.1399
  130OSM   H14C13948   3.254   6.051   6.113  1.0070  0.5189 -0.5178
  130OSM    C1313949   3.292   6.310   6.113  0.0613 -0.4910 -0.0256
  130OSM   H13A13950   3.393   6.273   6.102  0.9464  1.7599 -0.1130
  130OSM   H13B13951   3.284   6.417   6.124 -2.2610 -0.5827 -0.4762
  130OSM   H13C13952   3.231   6.290   6.026 -3.3810  1.3246  1.7649
  130OSM    C1213953   3.272   6.277   6.371  0.0403  0.1604  0.7628
  130OSM   H12A13954   3.241   6.203   6.443  2.2544 -0.7069  0.9158
  130OSM   H12B13955   3.217   6.365   6.402 -0.4040 -0.1525  0.8788
  130OSM    C1113956   3.424   6.306   6.399 -0.6510 -0.0823 -0.0926
  130OSM   H11A13957   3.447   6.335   6.504 -1.9966 -1.8032  0.7341
  130OSM   H11B13958   3.452   6.399   6.346  3.4779 -0.1745  1.4869
  130OSM      P13959   3.644   6.203   6.279  0.0822  0.3880  0.2878
  130OSM    O1313960   3.690   6.069   6.244 -0.1136  0.0543  0.5551
  130OSM    O1413961   3.638   6.308   6.176  0.1723  0.4562  0.2747
  130OSM    O1113962   3.725   6.256   6.409 -0.0849  1.2153 -0.0137
  130OSM    O1213963   3.507   6.195   6.352  0.6516  0.4130 -0.1291
  130OSM    C1S13964   3.755   6.393   6.441  0.4672  0.1159  0.0013
  130OSM    H1S13965   3.704   6.467   6.375 -1.3645 -0.2775  0.9361
  130OSM    H1T13966   3.865   6.410   6.436  0.3088  1.3803  0.5459
  130OSM     NF13967   3.719   6.571   6.614  0.5643 -0.3531 -0.0234
  130OSM    HNF13968   3.796   6.602   6.669 -1.4905  0.6795  2.5171
  130OSM    C2S13969   3.713   6.430   6.589 -0.0373  0.8548 -0.3753
  130OSM    H2S13970   3.607   6.399   6.602  0.0257  0.4713 -0.7864
  130OSM    C3S13971   3.792   6.343   6.687 -0.3066  0.3018  0.5976
  130OSM    H3S13972   3.903   6.346   6.680 -0.0212 -2.1463  2.6843
  130OSM     O313973   3.768   6.204   6.671 -0.0317 -0.3185  0.5252
  130OSM    HO313974   3.739   6.196   6.580 -0.8264 -0.1896  0.7560
  130OSM    C4S13975   3.753   6.376   6.824 -0.0041  0.2484 -0.6746
  130OSM    H4S13976   3.835   6.404   6.891  0.4073 -0.4588 -0.8675
  130OSM    C5S13977   3.633   6.368   6.880 -0.2830  0.0694  0.1734
  130OSM    H5S13978   3.548   6.331   6.821 -1.6427  2.2074  0.6740
  130OSM    C6S13979   3.603   6.419   7.013 -0.6912  0.7362 -0.5102
  130OSM    H6S13980   3.492   6.411   7.019 -0.7000 -0.2867 -1.6459
  130OSM    H6T13981   3.633   6.526   7.010 -0.0143  0.6295  1.1523
  130OSM    C7S13982   3.687   6.357   7.126 -0.0133  0.8249 -0.4764
  130OSM    H7S13983   3.794   6.386   7.113 -0.1676  1.4691 -0.3434
  130OSM    H7T13984   3.680   6.246   7.125  1.2960  0.6736  1.4077
  130OSM    C8S13985   3.635   6.401   7.265 -0.2143 -0.1359 -0.6351
  130OSM    H8S13986   3.528   6.374   7.274 -1.4014  3.2561 -2.5940
  130OSM    H8T13987   3.645   6.512   7.277  0.2916 -0.3562  1.4368
  130OSM    C9S13988   3.723   6.329   7.372  0.1306 -0.4264 -0.4982
  130OSM    H9S13989   3.828   6.353   7.346 -0.0702  0.5860 -0.4254
  130OSM    H9T13990   3.710   6.219   7.362  1.0918 -0.4045 -2.6055
  130OSM   C10S13991   3.680   6.376   7.514 -0.5044  0.6161  0.3222
  130OSM   H10S13992   3.574   6.347   7.527 -0.6269  1.4337  1.2164
  130OSM   H10T13993   3.686   6.487   7.516  1.4486  0.5491  0.2536
  130OSM   C11S13994   3.768   6.316   7.623 -0.0462  0.5718 -0.6286
  130OSM   H11S13995   3.873   6.342   7.597 -0.2292 -0.1457 -2.2169
  130OSM   H11T13996   3.761   6.206   7.633  0.8450  0.5092 -0.5904
  130OSM   C12S13997   3.720   6.383   7.751  0.1590 -0.0995  0.4857
  130OSM   H12S13998   3.613   6.361   7.771 -0.6363  0.9906 -2.2533
  130OSM   H12T13999   3.725   6.490   7.724 -0.0591 -0.5177 -1.3101
  130OSM   C13S14000   3.798   6.342   7.879  0.2837 -0.0174  0.0841
  130OSM   H13S14001   3.906   6.351   7.854  0.2644 -0.9534 -0.3669
  130OSM   H13T14002   3.775   6.236   7.898  0.5095 -0.1552 -0.3810
  130OSM   C14S14003   3.750   6.442   7.991 -0.8591  0.5006  0.1338
  130OSM   H14S14004   3.643   6.421   8.012 -1.0172 -4.9858 -4.0791
  130OSM   H14T14005   3.775   6.546   7.961  0.5322  0.2304  0.3190
  130OSM   C15S14006   3.830   6.415   8.117  0.1086 -0.2375  0.6016
  130OSM   H15S14007   3.807   6.494   8.191  1.8338 -1.8479  3.0232
  130OSM   H15T14008   3.939   6.420   8.096  0.0797  0.4705  0.5930
  130OSM   C16S14009   3.800   6.284   8.194 -0.5015  0.2285  0.2228
  130OSM   H16S14010   3.812   6.199   8.124 -0.1951  0.0885  0.4456
  130OSM   H16T14011   3.696   6.301   8.229 -0.1218 -0.7674  1.9328
  130OSM   C17S14012   3.880   6.253   8.314  0.2072 -0.3129 -0.1772
  130OSM   H17S14013   3.988   6.231   8.295  0.6939  3.1443 -2.3327
  130OSM   H17T14014   3.837   6.163   8.364  0.3758  0.5187  1.5344
  130OSM   C18S14015   3.893   6.371   8.403  0.2531 -0.3457  0.0359
  130OSM   H18S14016   3.954   6.454   8.362  3.5951 -2.7964 -0.3041
  130OSM   H18T14017   3.956   6.337   8.488  0.7262  1.5836  0.5021
  130OSM   H18U14018   3.799   6.410   8.449  1.8374  1.6446  1.8250
  130OSM    C1F14019   3.631   6.658   6.573 -0.5286  0.3887 -0.2682
  130OSM     OF14020   3.540   6.620   6.497 -0.1199  0.2862  0.0883
  130OSM    C2F14021   3.643   6.798   6.624 -0.5426  0.0851  0.6953
  130OSM    H2F14022   3.637   6.866   6.537  3.0171 -1.6645 -1.1503
  130OSM    H2G14023   3.736   6.817   6.682  0.4617  2.1853 -1.4540
  130OSM    C3F14024   3.536   6.822   6.738  0.3080  0.8313  0.0130
  130OSM    H3F14025   3.555   6.749   6.819  0.0788 -1.4088 -1.8282
  130OSM    H3G14026   3.436   6.801   6.693  0.6941 -0.3806 -0.3264
  130OSM    C4F14027   3.535   6.967   6.791 -0.1636  0.5186 -0.1862
  130OSM    H4F14028   3.480   7.018   6.709  1.2436 -1.3306 -2.4066
  130OSM    H4G14029   3.638   7.005   6.809  0.1099 -0.6305  0.8389
  130OSM    C5F14030   3.440   6.999   6.909 -0.1190 -0.1291 -0.1097
  130OSM    H5F14031   3.343   6.946   6.904 -0.7213  0.5217  2.8962
  130OSM    H5G14032   3.423   7.109   6.910 -2.4330 -0.4462  1.1763
  130OSM    C6F14033   3.511   6.962   7.040 -0.0226  0.2724 -0.4579
  130OSM    H6F14034   3.600   7.023   7.066  0.4607 -0.8278  0.4962
  130OSM    H6G14035   3.536   6.854   7.031 -0.5302  0.1616 -0.6025
  130OSM    C7F14036   3.412   6.979   7.159  0.0727  0.2502 -0.0535
  130OSM    H7F14037   3.310   6.935   7.147 -0.4519  0.8346  1.8595
  130OSM    H7G14038   3.393   7.086   7.180 -0.0532  0.0410  0.9736
  130OSM    C8F14039   3.457   6.920   7.295  0.1341  0.1148  0.1041
  130OSM    H8F14040   3.376   6.947   7.367 -1.9930 -0.3705 -1.9921
  130OSM    H8G14041   3.553   6.969   7.323 -0.2616  0.9322  0.0646
  130OSM    C9F14042   3.470   6.771   7.280 -0.5202  0.0218  0.3636
  130OSM    H9F14043   3.548   6.743   7.208 -2.0480 -1.6027 -0.7549
  130OSM   C10F14044   3.400   6.663   7.334 -0.7059 -0.6174 -0.2167
  130OSM   H10F14045   3.424   6.561   7.301 -0.0892 -0.3928 -0.4777
  130OSM   C11F14046   3.292   6.683   7.435  0.2043 -0.4797 -0.1929
  130OSM   H11F14047   3.202   6.628   7.401 -0.8881  1.4062 -0.4744
  130OSM   H11G14048   3.272   6.791   7.454  1.3383 -0.4016  0.7491
  130OSM   C12F14049   3.332   6.623   7.575 -0.0180 -0.0847  0.2213
  130OSM   H12F14050   3.428   6.665   7.612 -0.6409  0.5796  1.1142
  130OSM   H12G14051   3.338   6.512   7.562 -1.1127  0.0114 -1.3943
  130OSM   C13F14052   3.229   6.661   7.681  0.7058 -0.1775 -0.1039
  130OSM   H13F14053   3.129   6.619   7.657  0.2200 -0.9115  2.7814
  130OSM   H13G14054   3.213   6.771   7.685 -1.2409 -0.4181 -0.2908
  130OSM   C14F14055   3.272   6.616   7.823 -0.3295  0.2147  0.4787
  130OSM   H14F14056   3.338   6.527   7.822 -1.1663 -0.3998 -0.4495
  130OSM   H14G14057   3.184   6.588   7.884  0.0373  0.3739  1.0963
  130OSM   C15F14058   3.350   6.727   7.888  0.6125 -0.2294 -0.2385
  130OSM   H15F14059   3.287   6.815   7.912  0.8883 -0.4228  1.3398
  130OSM   H15G14060   3.412   6.778   7.812  0.2086  2.1090  0.9076
  130OSM   C16F14061   3.426   6.681   8.016  1.1148 -0.6000  0.0904
  130OSM   H16F14062   3.459   6.780   8.054  0.2332  0.2639 -1.2923
  130OSM   H16G14063   3.519   6.640   7.971  1.1503 -0.2538 -0.1573
  130OSM   C17F14064   3.344   6.600   8.112 -0.2845  0.0019  0.1077
  130OSM   H17F14065   3.291   6.519   8.059  2.4161 -1.0919 -1.1230
  130OSM   H17G14066   3.267   6.669   8.154  0.2427  1.0845 -0.6478
  130OSM   C18F14067   3.423   6.535   8.229  0.9216 -0.5341 -0.1499
  130OSM   H18F14068   3.362   6.470   8.296 -0.7669  1.3220  0.2198
  130OSM   H18G14069   3.460   6.613   8.299 -1.9208  0.1413  0.7539
  130OSM   H18H14070   3.496   6.464   8.185  0.0523  0.3039 -3.1954
  131OSM      N14071   2.007   2.045   5.906  0.2284 -0.2144 -0.3799
  131OSM    C1514072   2.028   2.180   5.839  0.9453 -0.9340 -0.6347
  131OSM   H15A14073   1.944   2.245   5.858 -0.7076 -2.4195 -2.4326
  131OSM   H15B14074   2.034   2.175   5.731  3.7796 -0.4049 -0.5804
  131OSM   H15C14075   2.119   2.226   5.874  0.4270 -0.3502 -0.0295
  131OSM    C1414076   1.874   1.990   5.862  0.6835 -1.1626  0.2603
  131OSM   H14A14077   1.857   1.888   5.893 -1.2337 -0.7813  0.6187
  131OSM   H14B14078   1.867   1.994   5.754  0.0824 -0.0343  0.3230
  131OSM   H14C14079   1.793   2.052   5.897  3.1431  2.2118  0.4767
  131OSM    C1314080   2.105   1.954   5.851 -0.2322 -0.4400  0.6746
  131OSM   H13A14081   2.084   1.939   5.746 -1.7651 -0.4270  0.9574
  131OSM   H13B14082   2.113   1.861   5.905 -1.0844 -0.2241  1.1943
  131OSM   H13C14083   2.197   2.010   5.849 -0.9972  0.8315 -0.8014
  131OSM    C1214084   2.015   2.038   6.064 -0.6913  0.2966  0.2169
  131OSM   H12A14085   2.015   1.934   6.093 -1.2435  1.1053  3.5514
  131OSM   H12B14086   1.930   2.088   6.108 -1.7867  0.0167 -1.4463
  131OSM    C1114087   2.137   2.096   6.141  0.1861 -0.0317  0.1632
  131OSM   H11A14088   2.231   2.042   6.115  1.7487  2.8900 -0.6793
  131OSM   H11B14089   2.110   2.066   6.244  0.7344  0.2557  0.3925
  131OSM      P14090   2.280   2.315   6.165  0.3289  0.0520 -0.2046
  131OSM    O1314091   2.393   2.267   6.080 -0.0564  0.3657  0.3591
  131OSM    O1414092   2.246   2.457   6.157  0.0927 -0.1494 -0.4290
  131OSM    O1114093   2.298   2.276   6.319  0.3825 -0.3812 -0.0702
  131OSM    O1214094   2.141   2.239   6.122  0.5715  0.6056 -0.7219
  131OSM    C1S14095   2.377   2.163   6.366 -0.5192  0.1238  0.0686
  131OSM    H1S14096   2.482   2.173   6.330 -0.4770  0.2474  0.2245
  131OSM    H1T14097   2.326   2.067   6.344 -2.5526  0.7211  1.8352
  131OSM     NF14098   2.482   2.056   6.556 -0.1406 -0.7812  0.0183
  131OSM    HNF14099   2.442   1.974   6.595  0.5728 -0.4200  1.5948
  131OSM    C2S14100   2.394   2.167   6.523  0.8099 -0.0322  0.3923
  131OSM    H2S14101   2.438   2.265   6.548 -0.0303  0.1136  1.4017
  131OSM    C3S14102   2.249   2.147   6.575  0.2966 -0.2959 -0.0130
  131OSM    H3S14103   2.207   2.059   6.521  0.0928 -0.7009  0.7874
  131OSM     O314104   2.172   2.266   6.547 -0.0912 -0.1405 -0.6742
  131OSM    HO314105   2.191   2.302   6.461 -0.0910  1.5280 -0.0196
  131OSM    C4S14106   2.250   2.104   6.715 -0.1786 -0.6389 -0.5177
  131OSM    H4S14107   2.242   1.996   6.732 -0.7742 -0.4883  0.2264
  131OSM    C5S14108   2.239   2.182   6.823  0.0853  0.1600  0.1127
  131OSM    H5S14109   2.233   2.291   6.812  0.4429  0.3136  1.2262
  131OSM    C6S14110   2.246   2.131   6.966  0.6298  0.1531 -0.1215
  131OSM    H6S14111   2.178   2.197   7.024 -0.8406  0.6750 -2.2935
  131OSM    H6T14112   2.350   2.159   6.995  0.2748  0.5315  0.8323
  131OSM    C7S14113   2.219   1.981   6.995 -0.2510  0.3702  0.4823
  131OSM    H7S14114   2.140   1.939   6.928  0.6578 -0.1366 -0.2953
  131OSM    H7T14115   2.163   1.976   7.090 -2.7098 -2.9841 -0.9261
  131OSM    C8S14116   2.348   1.901   6.987 -0.2663  0.5916 -0.1565
  131OSM    H8S14117   2.418   1.951   7.058 -1.9524  1.0471  1.2655
  131OSM    H8T14118   2.386   1.893   6.883 -0.5737  1.1059 -0.3141
  131OSM    C9S14119   2.338   1.756   7.041 -0.2857 -0.3282  0.4716
  131OSM    H9S14120   2.437   1.710   7.024 -0.0536  0.7555 -1.3534
  131OSM    H9T14121   2.264   1.699   6.981 -0.5764 -1.9466  2.2942
  131OSM   C10S14122   2.289   1.735   7.185 -0.7523 -0.0646  0.0082
  131OSM   H10S14123   2.179   1.753   7.194 -0.8361  0.6372 -1.9666
  131OSM   H10T14124   2.339   1.812   7.248 -3.1862  0.9542  0.8284
  131OSM   C11S14125   2.334   1.606   7.253 -0.0001  0.3569  0.4383
  131OSM   H11S14126   2.435   1.570   7.222  0.1686 -0.0435  1.4175
  131OSM   H11T14127   2.260   1.537   7.206  0.4458 -0.4398  0.8914
  131OSM   C12S14128   2.316   1.598   7.408  0.7011  0.9438  0.1992
  131OSM   H12S14129   2.413   1.643   7.439  0.6339  1.9611 -0.9678
  131OSM   H12T14130   2.315   1.492   7.441 -1.8930  0.6077 -0.7691
  131OSM   C13S14131   2.194   1.678   7.457  0.9114 -1.1792 -0.1156
  131OSM   H13S14132   2.103   1.631   7.412  0.2555  0.3067 -0.3971
  131OSM   H13T14133   2.192   1.784   7.422 -2.1577 -1.0003  0.3302
  131OSM   C14S14134   2.184   1.673   7.612  0.3285  0.6386  0.2716
  131OSM   H14S14135   2.283   1.687   7.661 -0.1150  2.1270  0.7997
  131OSM   H14T14136   2.164   1.568   7.640 -1.8390  0.5806 -1.3211
  131OSM   C15S14137   2.066   1.753   7.666  0.0464  0.4941 -0.1367
  131OSM   H15S14138   1.977   1.711   7.615  1.3032  0.0758 -2.0982
  131OSM   H15T14139   2.084   1.858   7.634 -2.2138  1.1025  0.3787
  131OSM   C16S14140   2.043   1.753   7.814 -0.0492  0.2192 -0.2232
  131OSM   H16S14141   2.124   1.797   7.877 -2.1125  0.6500  2.2846
  131OSM   H16T14142   2.017   1.657   7.864 -0.3319  0.8048  0.7909
  131OSM   C17S14143   1.914   1.832   7.845 -0.6491 -0.5582 -0.4470
  131OSM   H17S14144   1.826   1.785   7.796 -1.4900  0.9673 -0.4934
  131OSM   H17T14145   1.915   1.928   7.789 -2.2917 -0.8827 -1.0913
  131OSM   C18S14146   1.893   1.860   7.999 -0.4537 -0.9784 -0.3245
  131OSM   H18S14147   1.807   1.928   8.022  1.5529  1.5573  0.1514
  131OSM   H18T14148   1.976   1.925   8.033  0.6616 -1.7190 -1.5542
  131OSM   H18U14149   1.894   1.766   8.058  0.9513  0.3929  1.9826
  131OSM    C1F14150   2.614   2.073   6.550  0.0404  0.4696  0.3714
  131OSM     OF14151   2.666   2.174   6.517 -0.6872 -0.5495  0.1231
  131OSM    C2F14152   2.693   1.951   6.587 -1.0974 -1.3031  0.4751
  131OSM    H2F14153   2.795   1.944   6.544 -0.4942 -0.5424  1.6945
  131OSM    H2G14154   2.644   1.867   6.534 -0.1306 -3.0836  2.2686
  131OSM    C3F14155   2.677   1.926   6.736 -0.2692  0.6076 -0.4958
  131OSM    H3F14156   2.574   1.895   6.763  0.3727  0.9873  2.6594
  131OSM    H3G14157   2.693   2.015   6.799 -0.5832 -0.2149  0.7696
  131OSM    C4F14158   2.775   1.816   6.776  0.3260 -0.0645 -0.1221
  131OSM    H4F14159   2.874   1.862   6.793  0.0163 -0.1384  2.3840
  131OSM    H4G14160   2.783   1.744   6.692  2.2556 -0.4312  0.3200
  131OSM    C5F14161   2.749   1.750   6.914  0.6878  0.1371 -0.4622
  131OSM    H5F14162   2.826   1.676   6.944 -0.8325 -0.1504  3.1908
  131OSM    H5G14163   2.648   1.705   6.907  0.5796  0.3690 -0.4043
  131OSM    C6F14164   2.766   1.854   7.030 -0.0116 -0.2647 -0.2529
  131OSM    H6F14165   2.719   1.953   7.008  2.5330  1.1070  0.0640
  131OSM    H6G14166   2.876   1.862   7.037 -0.0296 -0.7089  0.7063
  131OSM    C7F14167   2.701   1.809   7.169  0.1133  0.0883 -0.2383
  131OSM    H7F14168   2.605   1.756   7.150 -0.1898  0.5062  0.1094
  131OSM    H7G14169   2.690   1.900   7.232  1.4687  1.2345 -1.5707
  131OSM    C8F14170   2.792   1.710   7.257  0.3077 -0.6939  0.2893
  131OSM    H8F14171   2.885   1.761   7.288  0.2636 -0.3332 -0.1590
  131OSM    H8G14172   2.821   1.626   7.190 -1.9784 -0.7330 -0.7428
  131OSM    C9F14173   2.714   1.650   7.365 -0.4692 -0.7701  0.1750
  131OSM    H9F14174   2.675   1.548   7.347 -0.8161 -0.4519 -0.9866
  131OSM   C10F14175   2.687   1.705   7.480  0.2618 -0.0298  0.1406
  131OSM   H10F14176   2.623   1.654   7.553  2.6414 -2.4242  0.6829
  131OSM   C11F14177   2.734   1.844   7.520  0.3481 -0.8508  0.3190
  131OSM   H11F14178   2.655   1.922   7.516  0.3780 -0.7568  1.2855
  131OSM   H11G14179   2.801   1.897   7.449 -0.8417  0.8721  0.4113
  131OSM   C12F14180   2.790   1.848   7.665 -0.8034  0.6270 -0.5630
  131OSM   H12F14181   2.877   1.780   7.677 -1.4975 -0.3188 -0.7473
  131OSM   H12G14182   2.720   1.808   7.741  1.2092 -0.3864  0.8468
  131OSM   C13F14183   2.843   1.989   7.708 -0.3489 -0.5636  0.0357
  131OSM   H13F14184   2.863   2.037   7.610 -1.7633 -2.1650 -1.0893
  131OSM   H13G14185   2.929   1.974   7.776  1.1537  1.1434 -1.4007
  131OSM   C14F14186   2.733   2.067   7.773  0.3528 -0.3393  0.1651
  131OSM   H14F14187   2.686   2.010   7.855 -0.9941 -0.0030 -0.3460
  131OSM   H14G14188   2.655   2.065   7.694  0.9021 -1.3402 -0.3735
  131OSM   C15F14189   2.778   2.210   7.814 -0.2218  0.2274 -0.2981
  131OSM   H15F14190   2.879   2.212   7.861 -0.6510  0.2210  0.6624
  131OSM   H15G14191   2.712   2.240   7.898  1.3340  0.9089  0.7240
  131OSM   C16F14192   2.766   2.314   7.698  0.0221 -0.1231  0.1738
  131OSM   H16F14193   2.658   2.319   7.673 -0.0642 -1.3833  0.1943
  131OSM   H16G14194   2.829   2.285   7.612  1.5072 -0.3679  1.3026
  131OSM   C17F14195   2.815   2.455   7.732  0.2227 -0.0352 -0.1511
  131OSM   H17F14196   2.925   2.459   7.750  0.3140  3.0534 -0.8520
  131OSM   H17G14197   2.771   2.480   7.831 -1.7261  0.6716 -1.1412
  131OSM   C18F14198   2.781   2.562   7.631 -0.3528 -0.5142  0.4457
  131OSM   H18F14199   2.675   2.544   7.603 -0.1746 -0.7422 -0.1070
  131OSM   H18G14200   2.830   2.552   7.532 -2.0535  0.9327 -0.6081
  131OSM   H18H14201   2.796   2.666   7.666 -4.2758  0.5582 -0.5876
  132OSM      N14202   4.811   3.129   6.151 -0.0501 -0.4552 -0.5246
  132OSM    C1514203   4.945   3.110   6.090 -0.1913 -0.3654  0.6134
  132OSM   H15A14204   4.959   3.198   6.029 -1.5880 -0.3909  0.2148
  132OSM   H15B14205   4.930   3.026   6.024  0.7649 -0.3295  0.3316
  132OSM   H15C14206   5.029   3.088   6.154 -0.0030 -0.0349  0.4789
  132OSM    C1414207   4.716   3.140   6.041  0.3007  0.3633 -0.2661
  132OSM   H14A14208   4.715   3.232   5.986  0.6709 -0.2771 -1.3727
  132OSM   H14B14209   4.615   3.120   6.073  0.2718 -0.7643 -0.9892
  132OSM   H14C14210   4.722   3.053   5.977 -2.7105 -1.0174  1.0985
  132OSM    C1314211   4.791   3.011   6.239 -0.1536 -0.2593  0.0874
  132OSM   H13A14212   4.707   3.023   6.305  1.6232  1.8266  2.1640
  132OSM   H13B14213   4.878   2.985   6.299  0.2153  0.3399 -0.1756
  132OSM   H13C14214   4.764   2.925   6.180 -2.9585  0.0063  0.8618
  132OSM    C1214215   4.813   3.255   6.237  0.9097 -0.0118  0.1212
  132OSM   H12A14216   4.858   3.332   6.177  1.8364  0.1788  1.0277
  132OSM   H12B14217   4.873   3.254   6.327 -0.5189  1.1865  1.1395
  132OSM    C1114218   4.669   3.300   6.280 -0.3404 -0.2622  0.0979
  132OSM   H11A14219   4.682   3.356   6.375 -1.1959  0.1377 -0.0126
  132OSM   H11B14220   4.605   3.210   6.288 -1.8422  0.5046 -2.1474
  132OSM      P14221   4.465   3.423   6.157  0.3157 -0.3815  0.2563
  132OSM    O1314222   4.454   3.569   6.130  0.4433  0.2886 -0.8563
  132OSM    O1414223   4.417   3.337   6.042 -0.0870  0.0601 -0.2666
  132OSM    O1114224   4.393   3.386   6.297  0.7369 -0.0152  0.2756
  132OSM    O1214225   4.619   3.390   6.182  0.1117 -0.1915 -0.3557
  132OSM    C1S14226   4.394   3.491   6.394  0.9801  0.6069 -0.3289
  132OSM    H1S14227   4.323   3.573   6.369 -0.4286 -0.2434  0.7542
  132OSM    H1T14228   4.493   3.539   6.412  1.1282 -0.0236  0.6083
  132OSM     NF14229   4.386   3.548   6.635  0.0737  0.1321 -0.6376
  132OSM    HNF14230   4.455   3.533   6.706  0.1293 -0.8855 -0.8879
  132OSM    C2S14231   4.361   3.440   6.540  0.2696  0.1488 -0.1595
  132OSM    H2S14232   4.253   3.418   6.533  0.4458 -0.4221 -1.1487
  132OSM    C3S14233   4.440   3.318   6.584 -0.2315 -0.1783 -1.2105
  132OSM    H3S14234   4.546   3.349   6.585 -0.1514 -0.4606 -0.6682
  132OSM     O314235   4.435   3.214   6.481 -0.1523 -0.3685 -0.0525
  132OSM    HO314236   4.395   3.267   6.412  0.8084 -2.2215 -2.1661
  132OSM    C4S14237   4.402   3.271   6.723  0.4083 -0.6167  0.6492
  132OSM    H4S14238   4.468   3.309   6.802  0.7693 -0.2912  0.1923
  132OSM    C5S14239   4.288   3.210   6.760 -0.3913  0.6972  0.0193
  132OSM    H5S14240   4.211   3.174   6.690  0.3107 -2.7190  0.8397
  132OSM    C6S14241   4.255   3.173   6.903 -0.0422  0.0429 -0.4801
  132OSM    H6S14242   4.240   3.063   6.907  0.1867 -0.0241 -1.2935
  132OSM    H6T14243   4.164   3.225   6.941  2.1680  2.9044  1.2989
  132OSM    C7S14244   4.363   3.207   7.009  0.1251  0.4542 -0.1610
  132OSM    H7S14245   4.377   3.317   7.016  1.7657  0.2982 -0.5087
  132OSM    H7T14246   4.464   3.164   6.992 -0.5878 -0.5931 -1.9698
  132OSM    C8S14247   4.307   3.171   7.149  0.3926 -0.2656 -0.2265
  132OSM    H8S14248   4.246   3.078   7.139 -0.5989  0.4356 -0.9379
  132OSM    H8T14249   4.233   3.250   7.175 -1.2253 -1.2368 -1.6371
  132OSM    C9S14250   4.413   3.160   7.257  0.0970  0.3927 -0.3084
  132OSM    H9S14251   4.470   3.250   7.288 -3.3459  2.1874  1.3241
  132OSM    H9T14252   4.481   3.088   7.206 -0.7365 -0.6664  0.0418
  132OSM   C10S14253   4.350   3.100   7.382  0.8150 -0.1838  0.4217
  132OSM   H10S14254   4.426   3.083   7.462  0.2571  0.2606  1.0617
  132OSM   H10T14255   4.286   3.013   7.354 -1.0566  0.6152  2.0098
  132OSM   C11S14256   4.243   3.190   7.452 -0.1888  0.6175 -0.4593
  132OSM   H11S14257   4.155   3.205   7.386 -1.3554 -0.6069  0.7649
  132OSM   H11T14258   4.291   3.287   7.477 -0.3546  0.1924  1.6432
  132OSM   C12S14259   4.215   3.136   7.595 -0.2170  0.1774  0.3850
  132OSM   H12S14260   4.189   3.028   7.595  2.1889 -0.4693  0.4032
  132OSM   H12T14261   4.123   3.189   7.626  0.6507  1.1570  1.3384
  132OSM   C13S14262   4.319   3.166   7.694 -0.5850 -0.7403 -0.8656
  132OSM   H13S14263   4.347   3.274   7.699 -0.7706 -0.7307  0.0294
  132OSM   H13T14264   4.413   3.114   7.665 -1.7149 -2.1598 -2.1225
  132OSM   C14S14265   4.296   3.113   7.837 -0.1119 -0.7656 -0.1826
  132OSM   H14S14266   4.230   3.026   7.821  1.3460 -2.0095  0.3627
  132OSM   H14T14267   4.230   3.184   7.892  0.2996 -0.9664  0.5809
  132OSM   C15S14268   4.426   3.083   7.913 -0.0402  0.2312  0.2890
  132OSM   H15S14269   4.482   3.179   7.904  0.9287 -0.3978 -0.5507
  132OSM   H15T14270   4.486   3.007   7.858  0.5245  0.2290  0.8975
  132OSM   C16S14271   4.409   3.034   8.057 -0.1841 -0.1314  0.6105
  132OSM   H16S14272   4.506   3.002   8.101  0.5034  1.7563  0.5354
  132OSM   H16T14273   4.361   2.934   8.050  0.2146 -0.2062 -2.6919
  132OSM   C17S14274   4.336   3.135   8.136 -0.4554 -0.5572 -0.4458
  132OSM   H17S14275   4.226   3.138   8.120 -0.4331  0.1119 -0.5096
  132OSM   H17T14276   4.368   3.239   8.114 -0.7719 -0.8355 -2.4527
  132OSM   C18S14277   4.354   3.104   8.290  0.2391 -0.5664 -0.9255
  132OSM   H18S14278   4.339   3.002   8.330  0.2410 -0.1149  0.2825
  132OSM   H18T14279   4.281   3.172   8.339 -0.0846 -1.7556  0.3028
  132OSM   H18U14280   4.456   3.127   8.328 -1.1932  1.7679  1.8992
  132OSM    C1F14281   4.318   3.665   6.636  0.3193 -0.2398  0.3549
  132OSM     OF14282   4.221   3.679   6.565  0.0251  0.5227  0.0784
  132OSM    C2F14283   4.369   3.770   6.728  0.2173  0.0109  0.8817
  132OSM    H2F14284   4.371   3.868   6.676 -3.1479 -1.7303 -3.1434
  132OSM    H2G14285   4.475   3.745   6.753  0.6910  1.6075  0.5904
  132OSM    C3F14286   4.285   3.801   6.854  0.2120  0.4143 -0.6331
  132OSM    H3F14287   4.287   3.711   6.919 -2.7120  1.9168  1.8030
  132OSM    H3G14288   4.178   3.810   6.828 -0.0051 -2.4182 -0.9721
  132OSM    C4F14289   4.343   3.915   6.940 -0.2207 -0.1794  0.0694
  132OSM    H4F14290   4.354   4.005   6.876 -1.2064 -0.4678 -0.5294
  132OSM    H4G14291   4.447   3.893   6.969  0.2435  1.1718 -0.4806
  132OSM    C5F14292   4.272   3.959   7.067 -0.3087  0.0473  0.2515
  132OSM    H5F14293   4.162   3.959   7.055 -0.5287 -1.6172  1.8343
  132OSM    H5G14294   4.292   4.064   7.095 -2.0162  0.7346 -0.9372
  132OSM    C6F14295   4.316   3.878   7.185  0.0558 -0.2617  0.3564
  132OSM    H6F14296   4.427   3.880   7.184  0.1507 -0.2116 -3.4871
  132OSM    H6G14297   4.268   3.778   7.180  0.3146 -0.3188 -1.1783
  132OSM    C7F14298   4.266   3.949   7.310  0.0830 -0.4252  1.3703
  132OSM    H7F14299   4.159   3.930   7.328  0.2583 -1.0589  1.7643
  132OSM    H7G14300   4.290   4.057   7.303  0.6223 -0.6439 -1.0040
  132OSM    C8F14301   4.327   3.916   7.449 -0.6620  0.4615  0.0873
  132OSM    H8F14302   4.306   4.000   7.519 -2.9493  0.2694 -0.2943
  132OSM    H8G14303   4.435   3.909   7.426 -0.1402  0.4695  2.3385
  132OSM    C9F14304   4.273   3.788   7.502  0.2959  0.0715 -0.2439
  132OSM    H9F14305   4.294   3.697   7.444 -0.8328 -0.6716  0.4653
  132OSM   C10F14306   4.221   3.767   7.620  0.2416 -0.7816 -0.3042
  132OSM   H10F14307   4.198   3.665   7.655  0.1665 -1.0968 -1.2431
  132OSM   C11F14308   4.202   3.864   7.730  0.4172 -0.3034  0.4650
  132OSM   H11F14309   4.104   3.845   7.778  0.4548  2.8507  2.0299
  132OSM   H11G14310   4.213   3.972   7.705 -2.5963 -0.1134 -0.3533
  132OSM   C12F14311   4.297   3.857   7.844  0.0082  1.1517 -0.2474
  132OSM   H12F14312   4.399   3.870   7.802 -0.6065  0.8132 -1.9271
  132OSM   H12G14313   4.311   3.753   7.882 -0.2283  0.8205 -1.0439
  132OSM   C13F14314   4.288   3.961   7.958  0.1785 -0.5536  0.7903
  132OSM   H13F14315   4.302   4.053   7.898 -0.4647 -0.7905  0.2613
  132OSM   H13G14316   4.376   3.957   8.025 -0.5304 -1.7806  1.6964
  132OSM   C14F14317   4.165   3.975   8.047 -0.5669 -0.0934  0.4902
  132OSM   H14F14318   4.111   3.878   8.044  1.8548 -1.4947 -0.7897
  132OSM   H14G14319   4.106   4.054   7.996  0.1383  0.3374  0.3265
  132OSM   C15F14320   4.188   4.006   8.194  0.5705 -0.6154 -0.4724
  132OSM   H15F14321   4.097   4.057   8.232 -0.2211 -3.1985  1.3821
  132OSM   H15G14322   4.259   4.091   8.204 -0.3805  0.0560  0.6994
  132OSM   C16F14323   4.231   3.890   8.285  0.6644  0.3567 -0.4387
  132OSM   H16F14324   4.340   3.876   8.275  0.6046 -0.5334  0.1081
  132OSM   H16G14325   4.176   3.796   8.264 -1.8779  1.4452  0.8224
  132OSM   C17F14326   4.198   3.924   8.433 -0.2337 -0.8917  0.4050
  132OSM   H17F14327   4.089   3.945   8.439 -0.8782 -3.5093 -0.6925
  132OSM   H17G14328   4.255   4.010   8.473 -1.3240 -0.7369  1.7186
  132OSM   C18F14329   4.231   3.806   8.533  0.5540  0.5758 -0.0329
  132OSM   H18F14330   4.335   3.769   8.526  0.7818  1.1713  0.1734
  132OSM   H18G14331   4.159   3.724   8.511 -0.2481  0.9372  1.1308
  132OSM   H18H14332   4.213   3.832   8.639 -2.0824 -3.1157  0.6215
  133OSM      N14333   3.394   3.942   5.959  0.2280 -0.3513 -0.1447
  133OSM    C1514334   3.433   4.078   5.904 -0.0118 -0.0177  0.2798
  133OSM   H15A14335   3.415   4.083   5.798  0.3496  0.1207  0.2213
  133OSM   H15B14336   3.534   4.107   5.931  0.4754 -1.3709  0.0336
  133OSM   H15C14337   3.359   4.152   5.931 -1.9342 -1.4409 -0.8290
  133OSM    C1414338   3.246   3.927   5.939  0.1360  0.2875  0.0235
  133OSM   H14A14339   3.193   4.016   5.968 -0.3076  0.1908 -0.4792
  133OSM   H14B14340   3.212   3.841   5.995 -1.0040  1.7699  1.6921
  133OSM   H14C14341   3.222   3.916   5.834  0.0859 -1.3328  0.1710
  133OSM    C1314342   3.459   3.832   5.875  0.2907 -0.3997 -0.6121
  133OSM   H13A14343   3.411   3.822   5.779 -0.2054  0.7882 -0.5013
  133OSM   H13B14344   3.458   3.736   5.926  0.4915 -0.8308 -1.4145
  133OSM   H13C14345   3.564   3.848   5.855 -0.5860  1.4999 -4.5284
  133OSM    C1214346   3.432   3.933   6.107 -0.0958 -0.7593  0.0251
  133OSM   H12A14347   3.404   4.026   6.154  1.6394 -0.8281  1.3144
  133OSM   H12B14348   3.539   3.951   6.112 -0.2351  0.0163  0.2747
  133OSM    C1114349   3.400   3.802   6.189 -0.3258 -0.2709  0.4360
  133OSM   H11A14350   3.291   3.783   6.201  0.0881 -2.8220  0.7227
  133OSM   H11B14351   3.437   3.822   6.292 -0.5737 -1.8112  0.8516
  133OSM      P14352   3.601   3.640   6.184 -0.1247  0.3475  0.0486
  133OSM    O1314353   3.629   3.514   6.111 -0.4528  0.4040  0.3059
  133OSM    O1414354   3.708   3.748   6.163 -0.0324 -0.2544  0.2148
  133OSM    O1114355   3.578   3.623   6.338  0.8211 -0.0316 -0.5977
  133OSM    O1214356   3.458   3.684   6.150  0.3164 -0.4604 -0.1245
  133OSM    C1S14357   3.670   3.543   6.402 -0.3567 -0.4811 -0.5764
  133OSM    H1S14358   3.763   3.601   6.416 -0.4982 -0.0646 -1.2897
  133OSM    H1T14359   3.700   3.452   6.347 -1.0664 -0.3825 -1.1531
  133OSM     NF14360   3.721   3.455   6.616  0.6185 -0.2217 -0.9601
  133OSM    HNF14361   3.736   3.357   6.626  1.2524  0.0443  1.4094
  133OSM    C2S14362   3.608   3.503   6.541 -0.0640  0.1295 -1.1593
  133OSM    H2S14363   3.581   3.593   6.599  3.1097 -0.8249  2.1930
  133OSM    C3S14364   3.486   3.400   6.525  0.0016  0.3663  0.5340
  133OSM    H3S14365   3.527   3.312   6.472 -0.0170  0.7556 -0.1407
  133OSM     O314366   3.394   3.448   6.428  0.0828 -0.1982 -0.3829
  133OSM    HO314367   3.451   3.504   6.374  4.4757 -3.1250  0.6609
  133OSM    C4S14368   3.409   3.377   6.649  0.3309 -0.2538 -0.0753
  133OSM    H4S14369   3.343   3.456   6.688  0.0041 -0.9565  0.8389
  133OSM    C5S14370   3.402   3.260   6.712  0.5178  0.5513  0.1101
  133OSM    H5S14371   3.439   3.170   6.661  0.4967  1.7281 -2.1004
  133OSM    C6S14372   3.319   3.230   6.832  0.8781  0.6183 -0.5758
  133OSM    H6S14373   3.378   3.199   6.922 -0.1041 -0.6259 -0.3216
  133OSM    H6T14374   3.265   3.135   6.814 -0.5156  1.0821  0.8948
  133OSM    C7S14375   3.210   3.325   6.880  0.2129  0.3068  0.1731
  133OSM    H7S14376   3.168   3.371   6.789  1.5646  0.2434 -0.5149
  133OSM    H7T14377   3.237   3.411   6.944  1.0070 -0.7079  1.2730
  133OSM    C8S14378   3.110   3.247   6.963 -0.3274  0.1566  0.3677
  133OSM    H8S14379   3.076   3.156   6.908  2.3804 -1.6396  1.4148
  133OSM    H8T14380   3.025   3.315   6.987  0.6370  1.4330  0.2429
  133OSM    C9S14381   3.161   3.201   7.096  0.4287  0.5706 -0.7698
  133OSM    H9S14382   3.186   3.297   7.145 -1.1158 -0.3693  2.0745
  133OSM    H9T14383   3.248   3.131   7.097 -0.2762 -0.3289 -1.4277
  133OSM   C10S14384   3.047   3.129   7.180  0.0671  0.2802  0.2282
  133OSM   H10S14385   3.010   3.048   7.114 -1.1866  1.7334 -0.9375
  133OSM   H10T14386   2.958   3.196   7.181 -1.2623 -1.3950 -0.3577
  133OSM   C11S14387   3.089   3.078   7.316  0.2059  0.2569 -0.4831
  133OSM   H11S14388   3.109   3.162   7.385  2.2496  0.2691 -1.0255
  133OSM   H11T14389   3.187   3.026   7.313  0.3228  0.4168  0.4576
  133OSM   C12S14390   3.004   2.967   7.379  0.4703 -0.0113 -0.3962
  133OSM   H12S14391   3.051   2.921   7.468 -2.1349  1.4655  1.9192
  133OSM   H12T14392   2.988   2.886   7.304 -0.7047  0.5917 -0.8320
  133OSM   C13S14393   2.854   3.000   7.404 -0.3798 -0.5730  0.5626
  133OSM   H13S14394   2.813   3.043   7.310  1.5313  1.5453  0.6247
  133OSM   H13T14395   2.843   3.079   7.481  1.2875 -0.9035  1.1698
  133OSM   C14S14396   2.781   2.876   7.456  0.7867 -0.3597  0.4457
  133OSM   H14S14397   2.841   2.828   7.536  1.3430 -1.0330 -0.3503
  133OSM   H14T14398   2.765   2.805   7.372 -1.9751  0.9161 -0.2163
  133OSM   C15S14399   2.644   2.915   7.521 -1.1074  0.3337 -0.0874
  133OSM   H15S14400   2.661   2.993   7.597  0.7720 -0.7038  0.6334
  133OSM   H15T14401   2.617   2.816   7.565  2.3291 -1.0169 -0.6776
  133OSM   C16S14402   2.528   2.966   7.426 -0.6478  0.3071 -0.0804
  133OSM   H16S14403   2.503   2.889   7.350  1.8197 -1.2495  0.5677
  133OSM   H16T14404   2.576   3.051   7.374  0.4842 -1.9604 -3.0001
  133OSM   C17S14405   2.405   2.998   7.498  0.7450 -0.0772  0.5178
  133OSM   H17S14406   2.431   3.061   7.585  0.3796  0.5261  0.1966
  133OSM   H17T14407   2.350   2.911   7.540  0.2415 -0.6762 -1.2902
  133OSM   C18S14408   2.307   3.061   7.399  0.5550  0.4101  0.2790
  133OSM   H18S14409   2.298   2.990   7.315 -0.2979 -0.9293  1.4666
  133OSM   H18T14410   2.346   3.159   7.364  3.4537 -0.9818 -0.7156
  133OSM   H18U14411   2.212   3.087   7.450  1.5701 -0.3207  2.6913
  133OSM    C1F14412   3.819   3.530   6.667 -0.1738  0.1790  0.1770
  133OSM     OF14413   3.805   3.652   6.657  0.2642 -0.2861 -0.3790
  133OSM    C2F14414   3.938   3.463   6.726 -0.2046  0.6020 -0.3572
  133OSM    H2F14415   4.027   3.507   6.677 -0.4789  1.7165  0.1192
  133OSM    H2G14416   3.930   3.355   6.699 -3.4238  0.8822 -0.9359
  133OSM    C3F14417   3.946   3.471   6.873  0.3945  0.1551 -0.2058
  133OSM    H3F14418   4.038   3.418   6.906  1.6879  2.4358  0.0066
  133OSM    H3G14419   3.855   3.433   6.925 -0.6904  1.0363 -1.4106
  133OSM    C4F14420   3.951   3.614   6.926 -0.1813 -0.2138  0.4054
  133OSM    H4F14421   3.875   3.680   6.881 -1.1827 -1.5914 -0.0024
  133OSM    H4G14422   4.047   3.654   6.888  0.2075 -1.4527  0.0212
  133OSM    C5F14423   3.960   3.625   7.077  0.5733  0.5843 -0.3698
  133OSM    H5F14424   3.858   3.623   7.120  0.2881  1.9238 -0.9366
  133OSM    H5G14425   3.993   3.728   7.103 -0.2656  0.4637  1.3225
  133OSM    C6F14426   4.049   3.519   7.142  0.2515 -0.0039 -0.3805
  133OSM    H6F14427   4.145   3.519   7.086  1.9109  1.1781  2.2722
  133OSM    H6G14428   3.997   3.421   7.133 -0.6055  0.5234 -1.3306
  133OSM    C7F14429   4.089   3.550   7.294  0.7764 -0.0903 -0.0758
  133OSM    H7F14430   4.139   3.649   7.288 -0.4002  0.4190 -2.2042
  133OSM    H7G14431   4.171   3.477   7.316  0.7005 -0.0228  0.4324
  133OSM    C8F14432   3.965   3.557   7.390 -0.9213  0.2728  0.0818
  133OSM    H8F14433   3.882   3.611   7.339  0.4377  1.0206 -1.4310
  133OSM    H8G14434   3.992   3.622   7.476  1.6505 -1.1441  0.4268
  133OSM    C9F14435   3.926   3.412   7.422  0.3000 -0.0566  0.1996
  133OSM    H9F14436   3.898   3.348   7.337 -0.1291 -1.9813  1.7493
  133OSM   C10F14437   3.877   3.373   7.545 -0.6164  0.2452  0.6543
  133OSM   H10F14438   3.861   3.266   7.565  2.6414 -0.3850  0.5633
  133OSM   C11F14439   3.869   3.460   7.672 -0.2239  0.5125  0.1130
  133OSM   H11F14440   3.783   3.418   7.728 -0.5930  1.1873  0.0637
  133OSM   H11G14441   3.849   3.568   7.654 -0.1837  0.1639 -2.4362
  133OSM   C12F14442   3.999   3.436   7.760 -0.2653  0.6047  1.1023
  133OSM   H12F14443   4.092   3.456   7.702 -1.3720 -0.1845 -1.0464
  133OSM   H12G14444   3.999   3.328   7.784  0.4835  0.8199  2.1709
  133OSM   C13F14445   3.984   3.513   7.892  0.1878 -0.0167  0.6450
  133OSM   H13F14446   3.891   3.473   7.938 -1.0545 -0.6413 -2.1557
  133OSM   H13G14447   3.970   3.622   7.875  0.8254 -0.1619 -1.0846
  133OSM   C14F14448   4.116   3.487   7.972 -0.0256 -1.0686  0.2817
  133OSM   H14F14449   4.208   3.513   7.915  0.6770  0.7291  2.1275
  133OSM   H14G14450   4.130   3.377   7.978 -1.7945 -1.3351  0.1341
  133OSM   C15F14451   4.108   3.549   8.110 -0.4214  0.5135  0.6309
  133OSM   H15F14452   4.009   3.521   8.152 -0.5319 -0.2849 -0.1318
  133OSM   H15G14453   4.127   3.658   8.100  0.2839  0.3642  0.3142
  133OSM   C16F14454   4.214   3.494   8.219  0.4820  1.3487 -0.1664
  133OSM   H16F14455   4.198   3.384   8.230  2.2810  1.0360 -0.2771
  133OSM   H16G14456   4.189   3.541   8.317 -0.4372  0.4218  0.0672
  133OSM   C17F14457   4.360   3.532   8.184  0.2270  0.0196  1.1820
  133OSM   H17F14458   4.356   3.630   8.132 -1.8075 -0.2446  0.7531
  133OSM   H17G14459   4.399   3.467   8.104  1.6545  1.9728  0.2135
  133OSM   C18F14460   4.450   3.514   8.306  1.1184  0.0923 -0.5173
  133OSM   H18F14461   4.555   3.508   8.271  1.4285 -0.0658  0.4315
  133OSM   H18G14462   4.420   3.419   8.353  0.9787  0.6908  0.6391
  133OSM   H18H14463   4.453   3.599   8.378  1.3933 -0.4051  0.0620
  134OSM      N14464   5.883   6.466   6.151 -0.7022 -0.1731 -0.6256
  134OSM    C1514465   5.867   6.613   6.134  0.7434  0.1146 -0.4057
  134OSM   H15A14466   5.789   6.640   6.203 -0.4435 -3.0698 -0.3358
  134OSM   H15B14467   5.827   6.634   6.036 -1.5931 -0.3997  0.3746
  134OSM   H15C14468   5.965   6.657   6.147  1.7790 -2.8098  3.1717
  134OSM    C1414469   5.960   6.415   6.034  0.2720  0.4222  0.5841
  134OSM   H14A14470   6.001   6.317   6.051  0.0595  0.2208 -0.0301
  134OSM   H14B14471   6.038   6.487   6.012  0.5520  0.9456  3.0033
  134OSM   H14C14472   5.895   6.410   5.947 -0.2601  1.3879  0.9113
  134OSM    C1314473   5.974   6.437   6.268  0.0700 -0.4996  0.0424
  134OSM   H13A14474   6.069   6.487   6.260 -0.6825  1.5072  2.2104
  134OSM   H13B14475   5.995   6.332   6.271 -1.2411 -0.8359 -1.4237
  134OSM   H13C14476   5.940   6.482   6.360  0.6744  0.1147 -0.0236
  134OSM    C1214477   5.763   6.386   6.166  0.4139 -0.5786 -0.3901
  134OSM   H12A14478   5.787   6.283   6.187 -0.4821 -0.2295  2.9032
  134OSM   H12B14479   5.707   6.378   6.074  2.2492 -3.3932 -1.4297
  134OSM    C1114480   5.673   6.422   6.288 -0.6648  0.4025 -0.1120
  134OSM   H11A14481   5.658   6.532   6.282  0.1518  0.5405  0.1892
  134OSM   H11B14482   5.735   6.389   6.374  1.5923 -1.3083 -2.2211
  134OSM      P14483   5.517   6.231   6.371  0.2915 -0.2801  0.0177
  134OSM    O1314484   5.369   6.224   6.391 -0.2966  0.4085  1.3481
  134OSM    O1414485   5.581   6.109   6.317  0.0440  0.1249  0.0845
  134OSM    O1114486   5.576   6.272   6.509 -0.5519  0.2451 -0.2602
  134OSM    O1214487   5.548   6.356   6.277 -0.0452  0.2051 -0.2398
  134OSM    C1S14488   5.516   6.343   6.613 -0.5809  0.2101 -0.0968
  134OSM    H1S14489   5.433   6.405   6.573 -1.8949 -1.0544  0.5626
  134OSM    H1T14490   5.591   6.415   6.651 -0.1103  2.0666 -3.9967
  134OSM     NF14491   5.394   6.343   6.823  0.1249  0.8008  0.2640
  134OSM    HNF14492   5.468   6.388   6.873 -0.4368  1.1909  0.7467
  134OSM    C2S14493   5.452   6.253   6.724 -0.4585  0.4515  0.0670
  134OSM    H2S14494   5.378   6.179   6.688 -0.7785 -0.8458  3.1132
  134OSM    C3S14495   5.575   6.170   6.789  0.5418 -0.0630  0.4974
  134OSM    H3S14496   5.651   6.246   6.815 -0.4266  0.6694  1.3020
  134OSM     O314497   5.650   6.097   6.697 -0.2006  0.8084  0.7439
  134OSM    HO314498   5.628   6.140   6.614 -1.0320  2.2588  1.6523
  134OSM    C4S14499   5.530   6.082   6.908  0.1498  1.1052  0.2339
  134OSM    H4S14500   5.449   6.018   6.870  0.3507  1.2213 -0.3900
  134OSM    C5S14501   5.582   6.078   7.031  0.0550  0.2174 -0.1721
  134OSM    H5S14502   5.676   6.132   7.048  0.8609 -0.8300 -1.1010
  134OSM    C6S14503   5.539   5.984   7.141  0.1852 -0.1194  0.0028
  134OSM    H6S14504   5.627   5.926   7.177  0.1921  0.6409  1.2644
  134OSM    H6T14505   5.478   5.901   7.099  1.9555 -0.9893 -0.9846
  134OSM    C7S14506   5.466   6.046   7.258  0.0769  0.1176  0.4441
  134OSM    H7S14507   5.380   6.110   7.228 -2.0249 -0.3434  4.7187
  134OSM    H7T14508   5.538   6.096   7.327 -0.9081 -0.9455  2.3336
  134OSM    C8S14509   5.387   5.940   7.337 -0.0366  0.2686 -0.2219
  134OSM    H8S14510   5.306   5.898   7.273 -0.1664 -1.6822  1.1158
  134OSM    H8T14511   5.343   6.002   7.418 -1.1600 -2.2725  1.2322
  134OSM    C9S14512   5.459   5.821   7.406 -0.1213 -0.2246 -0.1076
  134OSM    H9S14513   5.511   5.870   7.491  0.7361  0.2747 -0.9029
  134OSM    H9T14514   5.527   5.760   7.342  0.5379 -1.8626  2.0582
  134OSM   C10S14515   5.358   5.722   7.464 -0.3016  0.7850  0.0566
  134OSM   H10S14516   5.296   5.673   7.387  0.6291  0.3694 -0.4390
  134OSM   H10T14517   5.284   5.784   7.520 -1.8300 -0.5721 -0.3625
  134OSM   C11S14518   5.414   5.612   7.557 -0.0788  0.1738  0.0929
  134OSM   H11S14519   5.481   5.663   7.629 -0.4751  1.4421 -0.4102
  134OSM   H11T14520   5.479   5.543   7.500 -0.2158 -0.6548  0.9249
  134OSM   C12S14521   5.314   5.529   7.633  0.5407  0.0171 -0.2368
  134OSM   H12S14522   5.336   5.421   7.644 -0.2508  0.0415  2.0113
  134OSM   H12T14523   5.222   5.538   7.571 -1.0181 -2.7727  1.4551
  134OSM   C13S14524   5.279   5.569   7.782  0.3370 -1.0320 -0.5771
  134OSM   H13S14525   5.186   5.523   7.823 -0.7186  1.9168  0.6019
  134OSM   H13T14526   5.241   5.673   7.773 -1.5038 -1.5348  0.7753
  134OSM   C14S14527   5.382   5.559   7.888 -0.0027  0.0287 -0.1602
  134OSM   H14S14528   5.478   5.615   7.878 -0.1241  0.4865  1.0784
  134OSM   H14T14529   5.407   5.451   7.885 -2.0386 -0.4670 -0.5353
  134OSM   C15S14530   5.319   5.600   8.023  0.2809  0.1704  0.2952
  134OSM   H15S14531   5.223   5.545   8.019  0.2678  0.1984 -3.0916
  134OSM   H15T14532   5.304   5.711   8.023  0.2428  0.1681  0.8004
  134OSM   C16S14533   5.407   5.553   8.138 -0.5289 -0.3883 -0.2426
  134OSM   H16S14534   5.511   5.590   8.133 -1.1806  1.2821 -2.3512
  134OSM   H16T14535   5.419   5.443   8.128 -0.9797 -0.4493 -0.1300
  134OSM   C17S14536   5.340   5.593   8.274  0.9745 -0.0926  0.0105
  134OSM   H17S14537   5.242   5.539   8.277  0.0370  1.4891 -1.0553
  134OSM   H17T14538   5.305   5.698   8.260 -1.8094 -0.3854  3.3183
  134OSM   C18S14539   5.425   5.573   8.399  0.2312  0.1020  0.4926
  134OSM   H18S14540   5.422   5.465   8.425 -2.1706  0.4214  1.9650
  134OSM   H18T14541   5.386   5.631   8.487 -1.4744 -2.0082  1.2215
  134OSM   H18U14542   5.527   5.612   8.381  0.3365  0.1981  1.2542
  134OSM    C1F14543   5.274   6.397   6.810 -0.0279  0.3165 -0.0358
  134OSM     OF14544   5.215   6.371   6.704 -0.2906 -0.5922 -0.1481
  134OSM    C2F14545   5.222   6.475   6.924 -0.3776  0.2859  0.0737
  134OSM    H2F14546   5.281   6.569   6.934  1.7042 -0.9563  0.1976
  134OSM    H2G14547   5.256   6.426   7.018  0.2446 -0.3067 -0.4577
  134OSM    C3F14548   5.070   6.493   6.923 -0.9541 -0.1662  0.4482
  134OSM    H3F14549   5.028   6.390   6.918  1.3880 -1.1601  0.1676
  134OSM    H3G14550   5.037   6.548   6.833 -1.7295 -1.4481 -0.0894
  134OSM    C4F14551   5.022   6.577   7.042  0.0988  0.0138 -0.8270
  134OSM    H4F14552   4.911   6.580   7.035  0.1711  0.8453 -1.9595
  134OSM    H4G14553   5.049   6.680   7.009  0.8573 -0.5448 -2.0466
  134OSM    C5F14554   5.069   6.551   7.187 -0.0756 -0.0496  0.4566
  134OSM    H5F14555   5.175   6.584   7.192  0.0451 -0.0985 -1.1333
  134OSM    H5G14556   5.071   6.442   7.208 -1.2156  0.0514  1.1929
  134OSM    C6F14557   4.982   6.621   7.297 -0.8439 -0.0386 -0.0155
  134OSM    H6F14558   4.979   6.729   7.274 -3.1969 -0.2412 -0.9611
  134OSM    H6G14559   5.020   6.604   7.400 -1.9971  0.6586  0.5439
  134OSM    C7F14560   4.840   6.578   7.304  0.0284 -0.1662  0.0005
  134OSM    H7F14561   4.837   6.473   7.340  1.5481 -1.1517 -2.5091
  134OSM    H7G14562   4.784   6.592   7.209 -2.7158  2.3416  1.8034
  134OSM    C8F14563   4.769   6.671   7.411 -0.5673  0.5134 -0.3077
  134OSM    H8F14564   4.759   6.767   7.357  1.3833  0.1945 -1.3219
  134OSM    H8G14565   4.827   6.696   7.502  1.3296 -0.8854 -1.0680
  134OSM    C9F14566   4.632   6.612   7.441  0.0889  0.0516  0.0565
  134OSM    H9F14567   4.561   6.603   7.358 -0.9259 -2.5363  1.0942
  134OSM   C10F14568   4.578   6.591   7.562 -0.0668 -0.0607  0.2387
  134OSM   H10F14569   4.475   6.554   7.567  0.1665 -1.2020 -2.0002
  134OSM   C11F14570   4.641   6.610   7.692 -1.0186 -0.3580 -0.2390
  134OSM   H11F14571   4.590   6.688   7.751 -0.0957  0.5702 -0.6302
  134OSM   H11G14572   4.749   6.635   7.678 -0.9315 -0.5125  0.1417
  134OSM   C12F14573   4.661   6.489   7.787 -0.2172 -0.1898  0.6138
  134OSM   H12F14574   4.725   6.416   7.733 -0.3099  0.6357 -0.6560
  134OSM   H12G14575   4.563   6.444   7.813  0.1841 -1.5496 -0.1371
  134OSM   C13F14576   4.748   6.514   7.913  0.6138 -0.6309 -0.6376
  134OSM   H13F14577   4.682   6.555   7.992  1.5769  0.4247 -0.3736
  134OSM   H13G14578   4.825   6.587   7.880  0.6024 -0.2579  0.1485
  134OSM   C14F14579   4.828   6.393   7.970  0.3986 -0.4105 -0.2550
  134OSM   H14F14580   4.885   6.356   7.883 -1.1501 -0.4336 -1.3012
  134OSM   H14G14581   4.754   6.319   8.008  0.7522 -0.0102  1.3091
  134OSM   C15F14582   4.916   6.436   8.087  0.3659 -0.6210 -0.1092
  134OSM   H15F14583   4.855   6.488   8.164 -0.8896 -0.0745 -1.4313
  134OSM   H15G14584   4.974   6.523   8.049 -1.2195  0.2145 -0.6855
  134OSM   C16F14585   5.030   6.335   8.133  1.0934 -0.5793  0.3876
  134OSM   H16F14586   5.103   6.389   8.197 -2.5301  2.5590  2.2684
  134OSM   H16G14587   5.087   6.304   8.043  0.6502 -2.7211  0.8073
  134OSM   C17F14588   4.986   6.211   8.210 -0.4900 -0.1009 -0.3133
  134OSM   H17F14589   4.922   6.144   8.148 -0.2164 -0.2054 -0.4838
  134OSM   H17G14590   4.933   6.235   8.305 -2.6124  0.3093 -1.5285
  134OSM   C18F14591   5.098   6.124   8.267 -0.4710  0.2185 -0.2076
  134OSM   H18F14592   5.070   6.024   8.305  1.1597 -0.8762 -1.7198
  134OSM   H18G14593   5.147   6.170   8.355  1.4461 -1.2556 -0.4335
  134OSM   H18H14594   5.185   6.122   8.198  1.5215 -3.7781  2.0934
  135OSM      N14595   4.040   5.976   6.426  0.2501  0.5452 -0.5256
  135OSM    C1514596   4.103   5.929   6.296  0.0122  0.3967  0.1988
  135OSM   H15A14597   4.066   5.976   6.206 -0.7781 -2.2879 -0.9797
  135OSM   H15B14598   4.104   5.821   6.297  2.8176  0.3351  0.3794
  135OSM   H15C14599   4.208   5.956   6.305 -0.0502  0.2542  1.6538
  135OSM    C1414600   4.060   6.129   6.427  0.6848  0.1120  0.2831
  135OSM   H14A14601   4.029   6.155   6.327 -2.9690 -2.5771  0.5016
  135OSM   H14B14602   4.165   6.152   6.441  0.7024  0.3178 -0.1900
  135OSM   H14C14603   4.006   6.181   6.505 -0.1225 -0.1895 -0.0707
  135OSM    C1314604   3.895   5.944   6.418  0.0225 -0.4212 -0.1947
  135OSM   H13A14605   3.850   5.994   6.503  0.7461 -1.5837  0.9068
  135OSM   H13B14606   3.875   5.838   6.414  0.4564 -0.5566  0.8754
  135OSM   H13C14607   3.848   5.995   6.335  0.0064 -1.1099 -0.6093
  135OSM    C1214608   4.097   5.914   6.551  0.3783  0.0393  0.0651
  135OSM   H12A14609   4.052   5.959   6.638 -0.6803 -0.2594 -0.3069
  135OSM   H12B14610   4.201   5.939   6.560  0.6097 -0.7823 -0.2508
  135OSM    C1114611   4.076   5.761   6.573 -0.1409  0.3958 -0.0965
  135OSM   H11A14612   3.967   5.739   6.566 -0.0809  0.4295 -1.3735
  135OSM   H11B14613   4.102   5.714   6.670  2.0150  0.7116 -0.4719
  135OSM      P14614   4.306   5.667   6.489  0.1828 -0.2868 -0.1232
  135OSM    O1314615   4.346   5.565   6.392  0.3272 -0.2503  0.3390
  135OSM    O1414616   4.383   5.797   6.478  0.2616  0.9480 -0.5450
  135OSM    O1114617   4.313   5.607   6.637  0.1306 -0.4334  0.0050
  135OSM    O1214618   4.148   5.692   6.468 -0.5170 -0.1168  0.0132
  135OSM    C1S14619   4.368   5.697   6.739  0.2151 -0.0848 -0.4202
  135OSM    H1S14620   4.304   5.788   6.744 -0.8808 -0.6728 -2.6025
  135OSM    H1T14621   4.472   5.731   6.719  1.3988 -1.5117  2.5705
  135OSM     NF14622   4.431   5.736   6.965 -0.3116  0.2285  0.0829
  135OSM    HNF14623   4.527   5.719   6.986 -0.6522 -2.0266  0.1146
  135OSM    C2S14624   4.378   5.631   6.875  0.0629 -0.2775 -0.3386
  135OSM    H2S14625   4.274   5.601   6.900 -0.0929 -0.9118 -1.6377
  135OSM    C3S14626   4.445   5.486   6.873  0.5348  0.4001 -0.1134
  135OSM    H3S14627   4.553   5.476   6.847  0.6333 -0.3686  0.5538
  135OSM     O314628   4.382   5.400   6.790 -0.2867 -0.2260  1.2156
  135OSM    HO314629   4.313   5.459   6.758 -0.4473 -1.2203 -0.4032
  135OSM    C4S14630   4.417   5.432   7.016  0.8240 -0.5787 -0.2041
  135OSM    H4S14631   4.320   5.462   7.059  0.6905 -2.1315  0.6459
  135OSM    C5S14632   4.509   5.379   7.100  0.8244  0.3551 -0.4794
  135OSM    H5S14633   4.617   5.373   7.085  0.8492 -2.8059  0.3227
  135OSM    C6S14634   4.459   5.335   7.241  0.1945 -0.6594  0.3304
  135OSM    H6S14635   4.533   5.262   7.278  0.4702 -0.4781  0.1342
  135OSM    H6T14636   4.356   5.292   7.241  0.4072 -1.2017  1.7543
  135OSM    C7S14637   4.458   5.452   7.332 -0.4512  0.0353 -0.1844
  135OSM    H7S14638   4.393   5.532   7.291 -1.0141 -0.5736 -0.5019
  135OSM    H7T14639   4.559   5.497   7.326  0.1538 -1.4195 -1.8983
  135OSM    C8S14640   4.421   5.424   7.477  0.2998 -0.2477 -0.4522
  135OSM    H8S14641   4.479   5.344   7.527 -1.0596 -1.8853 -1.3726
  135OSM    H8T14642   4.313   5.402   7.467 -0.2958  1.7848  0.9312
  135OSM    C9S14643   4.423   5.552   7.559 -0.1911 -0.7895  0.5908
  135OSM    H9S14644   4.375   5.631   7.498  1.9080 -0.3060 -0.5194
  135OSM    H9T14645   4.529   5.585   7.555  0.2947 -2.3938 -2.2495
  135OSM   C10S14646   4.365   5.547   7.698  0.4239 -0.2719 -0.1761
  135OSM   H10S14647   4.345   5.439   7.717  0.8855 -0.2522  0.4359
  135OSM   H10T14648   4.269   5.603   7.694  1.4320  1.6814  1.1885
  135OSM   C11S14649   4.454   5.614   7.799  0.7082 -0.4133  0.3958
  135OSM   H11S14650   4.469   5.718   7.763 -0.8797 -0.6621 -1.1215
  135OSM   H11T14651   4.547   5.554   7.798 -0.4755 -2.3724  1.2112
  135OSM   C12S14652   4.390   5.625   7.946  0.4337 -0.0982 -0.3754
  135OSM   H12S14653   4.283   5.656   7.938 -0.2146 -1.9200  0.5520
  135OSM   H12T14654   4.453   5.698   8.002  2.1086 -0.0917 -2.1687
  135OSM   C13S14655   4.378   5.496   8.024 -0.6194 -0.3044 -0.3207
  135OSM   H13S14656   4.474   5.472   8.073 -0.5590  0.9549  0.2109
  135OSM   H13T14657   4.360   5.417   7.948  1.5720 -1.2373  0.0615
  135OSM   C14S14658   4.281   5.494   8.137  0.2291  0.5410 -0.1388
  135OSM   H14S14659   4.178   5.473   8.100  0.5048  1.8093 -1.7144
  135OSM   H14T14660   4.287   5.596   8.181 -0.7166  0.8392 -0.6659
  135OSM   C15S14661   4.315   5.396   8.254  0.1725  0.5553 -0.0479
  135OSM   H15S14662   4.401   5.431   8.314 -0.1431  1.3008 -0.0201
  135OSM   H15T14663   4.316   5.291   8.216  0.0147  0.2632  0.7420
  135OSM   C16S14664   4.207   5.376   8.368  0.0675 -0.2478 -0.1399
  135OSM   H16S14665   4.228   5.276   8.412  0.3025  0.2212  0.8565
  135OSM   H16T14666   4.104   5.382   8.327 -0.3049  0.4532  0.8495
  135OSM   C17S14667   4.215   5.482   8.470 -0.0038  0.3407 -0.4480
  135OSM   H17S14668   4.219   5.584   8.427 -0.5515  0.5110 -0.1051
  135OSM   H17T14669   4.315   5.478   8.518  0.4408 -0.8811 -1.4136
  135OSM   C18S14670   4.100   5.486   8.580  0.1127 -0.7219 -0.3781
  135OSM   H18S14671   4.145   5.552   8.657  0.1482  0.3326 -1.2798
  135OSM   H18T14672   4.080   5.385   8.623 -0.9865 -1.3239 -2.2021
  135OSM   H18U14673   4.009   5.534   8.539 -0.1821 -2.0171 -1.3104
  135OSM    C1F14674   4.359   5.842   6.986  0.1206 -0.3398 -0.2306
  135OSM     OF14675   4.240   5.839   6.970  0.4935  0.0039 -0.1089
  135OSM    C2F14676   4.419   5.972   7.031  0.1680 -0.5453  0.1669
  135OSM    H2F14677   4.333   6.037   7.059 -0.2306 -0.5156 -1.0661
  135OSM    H2G14678   4.470   6.022   6.946  0.5307 -0.0880  0.6479
  135OSM    C3F14679   4.508   5.960   7.153 -0.0737 -0.3692 -0.6500
  135OSM    H3F14680   4.550   6.062   7.166  1.2551 -0.4402 -3.5692
  135OSM    H3G14681   4.598   5.900   7.130 -0.8427 -1.0224 -2.0749
  135OSM    C4F14682   4.438   5.904   7.277  0.0012 -0.0727  0.1632
  135OSM    H4F14683   4.419   5.797   7.251 -1.7411  0.3324 -0.3811
  135OSM    H4G14684   4.346   5.962   7.298  0.7604  1.0803  0.4179
  135OSM    C5F14685   4.527   5.898   7.405 -0.0984  0.5401  0.3716
  135OSM    H5F14686   4.625   5.857   7.373  0.7593  1.9612  1.0642
  135OSM    H5G14687   4.471   5.836   7.478 -0.6633 -0.6862 -1.0466
  135OSM    C6F14688   4.543   6.036   7.472 -0.2573  0.3521  0.2506
  135OSM    H6F14689   4.575   6.108   7.394  0.3695  0.2969  0.4584
  135OSM    H6G14690   4.626   6.014   7.542 -0.3366 -2.0266 -0.3240
  135OSM    C7F14691   4.429   6.087   7.560  0.4045 -0.1014 -0.0664
  135OSM    H7F14692   4.381   6.001   7.611 -2.0659  2.9954  3.3745
  135OSM    H7G14693   4.345   6.125   7.498 -0.7655 -0.6657  1.1379
  135OSM    C8F14694   4.485   6.191   7.657  0.1307 -1.2429 -0.2248
  135OSM    H8F14695   4.548   6.264   7.602 -0.0120 -0.5348  0.5367
  135OSM    H8G14696   4.562   6.147   7.724  1.7158  1.0368 -0.4572
  135OSM    C9F14697   4.377   6.253   7.733  0.4178 -0.7895 -0.8668
  135OSM    H9F14698   4.354   6.360   7.715 -1.8388 -1.1632 -0.5627
  135OSM   C10F14699   4.317   6.193   7.832  0.1725  0.1523 -0.2711
  135OSM   H10F14700   4.243   6.240   7.898  0.7588 -1.5306  1.7204
  135OSM   C11F14701   4.345   6.061   7.891 -0.0443  0.8128  0.5854
  135OSM   H11F14702   4.413   6.006   7.824  0.0432 -0.2601  1.5308
  135OSM   H11G14703   4.251   6.002   7.896  0.7905 -0.5170  1.1549
  135OSM   C12F14704   4.390   6.093   8.031  0.0283 -0.6062 -0.2663
  135OSM   H12F14705   4.400   5.997   8.086  1.0230 -0.7545 -0.6876
  135OSM   H12G14706   4.319   6.154   8.091  0.6871  0.1300 -0.2042
  135OSM   C13F14707   4.530   6.150   8.049  0.1702 -0.4284 -0.5233
  135OSM   H13F14708   4.522   6.258   8.022 -1.4042 -0.3903  0.0341
  135OSM   H13G14709   4.613   6.103   7.991  1.5709 -1.3550  2.0548
  135OSM   C14F14710   4.584   6.132   8.197 -0.3542  0.1380 -0.5334
  135OSM   H14F14711   4.488   6.142   8.252 -2.6412  0.5101 -4.2209
  135OSM   H14G14712   4.654   6.215   8.218  1.1615 -0.9587 -1.0326
  135OSM   C15F14713   4.636   5.992   8.240  0.2470 -0.3608 -0.3900
  135OSM   H15F14714   4.731   5.979   8.184 -0.1341  0.8516 -1.3753
  135OSM   H15G14715   4.563   5.916   8.205  0.5758  0.5789 -3.3882
  135OSM   C16F14716   4.691   5.982   8.385 -0.0363  0.0532  0.6196
  135OSM   H16F14717   4.605   6.013   8.448  0.6015  0.0137  1.5314
  135OSM   H16G14718   4.765   6.063   8.403  1.6180 -0.9650 -1.2467
  135OSM   C17F14719   4.748   5.847   8.422 -0.0767 -0.9093 -0.2634
  135OSM   H17F14720   4.766   5.845   8.531  0.4754  0.2335 -0.3159
  135OSM   H17G14721   4.852   5.838   8.383  0.0287 -2.8546  0.3560
  135OSM   C18F14722   4.671   5.725   8.387  0.3366 -0.1347 -0.1914
  135OSM   H18F14723   4.571   5.731   8.434  0.3235  1.5323 -0.3718
  135OSM   H18G14724   4.715   5.630   8.424  1.1261  0.1681 -0.3334
  135OSM   H18H14725   4.650   5.714   8.278 -0.8460  0.9483 -0.0973
  136OSM      N14726   0.869   0.257   6.046 -0.6721 -0.7974  0.0221
  136OSM    C1514727   0.923   0.190   5.924 -0.5150  0.2068  0.4849
  136OSM   H15A14728   0.995   0.253   5.874 -1.4782  1.5610  0.7344
  136OSM   H15B14729   0.841   0.174   5.854  0.6482  1.4589 -1.2731
  136OSM   H15C14730   0.964   0.092   5.941 -1.5272 -0.7409 -2.0371
  136OSM    C1414731   0.816   0.390   6.000 -0.0063 -0.5170  0.3814
  136OSM   H14A14732   0.904   0.451   5.982  0.2757 -1.4727 -1.9083
  136OSM   H14B14733   0.748   0.437   6.069  1.8797  2.4822  0.3877
  136OSM   H14C14734   0.761   0.384   5.907 -1.2070 -0.5628  1.0802
  136OSM    C1314735   0.761   0.169   6.105 -0.5243  0.5125  0.4956
  136OSM   H13A14736   0.791   0.066   6.102 -0.1243  0.5985 -2.8715
  136OSM   H13B14737   0.673   0.172   6.042 -0.2654  0.4719  0.1266
  136OSM   H13C14738   0.720   0.214   6.194  1.1728  3.3458 -0.0351
  136OSM    C1214739   0.987   0.268   6.142  1.4712 -0.7099 -0.0545
  136OSM   H12A14740   1.068   0.322   6.096  0.5731  0.8814  0.1591
  136OSM   H12B14741   1.031   0.170   6.153  2.6674 -0.2697 -0.6714
  136OSM    C1114742   0.959   0.333   6.281  0.4259  0.0411 -0.3145
  136OSM   H11A14743   1.035   0.310   6.359 -1.9575  1.1383  2.5569
  136OSM   H11B14744   0.865   0.287   6.320 -0.6423  0.4731 -2.2687
  136OSM      P14745   1.046   0.573   6.221  0.0093 -0.3436  0.3314
  136OSM    O1314746   1.100   0.545   6.089 -0.7592  0.3323 -0.0823
  136OSM    O1414747   0.988   0.706   6.237 -0.4033 -0.4966 -0.3238
  136OSM    O1114748   1.165   0.555   6.327 -0.2255 -0.1433  0.9128
  136OSM    O1214749   0.931   0.474   6.268 -0.5019 -0.3281  0.7047
  136OSM    C1S14750   1.149   0.610   6.458  0.7928 -0.1720 -0.0949
  136OSM    H1S14751   1.044   0.636   6.482  1.0307  1.3756 -0.6202
  136OSM    H1T14752   1.208   0.703   6.474 -0.5321  0.7906 -0.5869
  136OSM     NF14753   1.137   0.544   6.695  0.1693 -0.9322  0.1698
  136OSM    HNF14754   1.200   0.586   6.760 -1.6711 -0.1987  1.5716
  136OSM    C2S14755   1.194   0.501   6.566 -0.1235  0.1885  0.4147
  136OSM    H2S14756   1.143   0.406   6.541 -0.9910  0.1704  2.1236
  136OSM    C3S14757   1.352   0.484   6.569 -0.2924  0.4051  0.1711
  136OSM    H3S14758   1.400   0.577   6.606 -1.7546  0.7543  1.3075
  136OSM     O314759   1.402   0.474   6.436 -0.0001  0.0044 -0.2845
  136OSM    HO314760   1.328   0.490   6.377  1.0407 -2.5071 -2.5063
  136OSM    C4S14761   1.399   0.374   6.666 -1.0511  0.5379  0.5780
  136OSM    H4S14762   1.413   0.410   6.769 -1.3192  0.6510  0.5746
  136OSM    C5S14763   1.417   0.240   6.644 -0.2723 -0.2435 -0.8159
  136OSM    H5S14764   1.395   0.200   6.544  1.3622 -0.2159 -1.2257
  136OSM    C6S14765   1.445   0.140   6.747  0.5941 -0.3028 -0.7424
  136OSM    H6S14766   1.535   0.082   6.716 -0.3690 -1.5789 -1.2494
  136OSM    H6T14767   1.363   0.065   6.752  0.4495 -0.0652  1.1345
  136OSM    C7S14768   1.449   0.203   6.895 -0.2299  0.5102  1.1207
  136OSM    H7S14769   1.347   0.246   6.900 -0.1609  1.5084 -2.8405
  136OSM    H7T14770   1.516   0.289   6.916 -0.2016  0.4405  1.3203
  136OSM    C8S14771   1.464   0.102   7.007  0.2677  0.2788 -0.5883
  136OSM    H8S14772   1.559   0.050   6.984 -0.3377 -1.0216 -0.2601
  136OSM    H8T14773   1.386   0.023   7.002  1.9872 -1.4496 -1.0177
  136OSM    C9S14774   1.472   0.166   7.142  0.0919  0.5820 -0.0398
  136OSM    H9S14775   1.388   0.237   7.159 -0.6113 -0.7977  2.8140
  136OSM    H9T14776   1.569   0.220   7.154 -1.0827  2.7384  0.4038
  136OSM   C10S14777   1.462   0.064   7.257 -0.2061  0.5097  0.4175
  136OSM   H10S14778   1.559   0.009   7.261  0.2018  1.1105 -0.7084
  136OSM   H10T14779   1.385  -0.014   7.241  1.2815 -1.0951  0.7840
  136OSM   C11S14780   1.432   0.139   7.394  0.2514  0.0634  0.8995
  136OSM   H11S14781   1.326   0.172   7.389  0.5508  0.8692 -1.1123
  136OSM   H11T14782   1.498   0.229   7.394 -2.5913  2.2847  0.2328
  136OSM   C12S14783   1.470   0.039   7.505  0.0181  0.6933  0.9195
  136OSM   H12S14784   1.558  -0.016   7.468 -1.9485 -2.0267 -0.0298
  136OSM   H12T14785   1.389  -0.037   7.512  1.7211 -1.2063  0.7632
  136OSM   C13S14786   1.492   0.113   7.631  0.5896  0.3831 -0.6990
  136OSM   H13S14787   1.423   0.199   7.626  2.2079  1.8958  1.4011
  136OSM   H13T14788   1.596   0.149   7.645  1.5163 -0.8115 -3.6410
  136OSM   C14S14789   1.446   0.027   7.753  0.4240 -0.3327 -0.5425
  136OSM   H14S14790   1.478  -0.074   7.720  0.7514 -2.0405  4.2265
  136OSM   H14T14791   1.335   0.025   7.761  0.3529  0.5565 -1.2307
  136OSM   C15S14792   1.518   0.063   7.881 -0.7002 -0.6203  0.0041
  136OSM   H15S14793   1.623   0.092   7.858 -0.8822  0.7611  0.8283
  136OSM   H15T14794   1.524  -0.024   7.950 -0.0966 -0.2637  0.4146
  136OSM   C16S14795   1.457   0.176   7.958  0.6774 -0.2010  0.5447
  136OSM   H16S14796   1.350   0.154   7.980  1.4868 -6.0876  0.2070
  136OSM   H16T14797   1.471   0.267   7.896  4.2061 -0.1469  1.2606
  136OSM   C17S14798   1.538   0.226   8.075 -0.1346 -0.1315  0.1746
  136OSM   H17S14799   1.645   0.230   8.045  0.6896 -2.5761  2.3888
  136OSM   H17T14800   1.517   0.155   8.157  0.2622  0.6520  0.9749
  136OSM   C18S14801   1.486   0.365   8.125  0.7733 -0.3898 -0.4607
  136OSM   H18S14802   1.546   0.421   8.199 -0.2592 -1.7622  1.4892
  136OSM   H18T14803   1.384   0.354   8.168  1.3271 -2.8669  0.3666
  136OSM   H18U14804   1.470   0.426   8.033 -0.8320 -0.0151  0.0377
  136OSM    C1F14805   1.002   0.546   6.724 -0.6803 -0.2642  0.7071
  136OSM     OF14806   0.917   0.524   6.638 -0.2007  0.2985 -0.0953
  136OSM    C2F14807   0.965   0.566   6.865  0.1469 -0.2547 -1.1747
  136OSM    H2F14808   1.056   0.603   6.917 -0.8456  1.3087 -0.4728
  136OSM    H2G14809   0.936   0.469   6.912 -0.8860  0.4917 -0.2114
  136OSM    C3F14810   0.866   0.677   6.875  0.9162 -0.2180 -0.3887
  136OSM    H3F14811   0.790   0.670   6.794  1.3166  1.6961 -1.0005
  136OSM    H3G14812   0.903   0.780   6.854 -2.1228  1.1817  0.5614
  136OSM    C4F14813   0.791   0.694   7.008  0.6412  0.0967 -0.4284
  136OSM    H4F14814   0.725   0.605   7.014 -0.2309  0.6465 -1.5742
  136OSM    H4G14815   0.714   0.774   7.001 -0.0135 -0.2303  2.1188
  136OSM    C5F14816   0.879   0.714   7.128  0.6307  0.7096  0.0646
  136OSM    H5F14817   0.963   0.786   7.116  0.5518  0.5312 -1.8403
  136OSM    H5G14818   0.934   0.622   7.159  0.3508  0.6042  0.2584
  136OSM    C6F14819   0.799   0.747   7.255 -0.1427  0.2984 -0.0120
  136OSM    H6F14820   0.757   0.653   7.294 -1.2168  0.1098 -1.5234
  136OSM    H6G14821   0.717   0.819   7.237  1.3696  2.6649  1.8714
  136OSM    C7F14822   0.889   0.805   7.363  0.5013 -0.1618 -0.1100
  136OSM    H7F14823   0.924   0.906   7.330 -1.3026  0.5291 -0.0222
  136OSM    H7G14824   0.977   0.743   7.388  1.6923  0.4391 -2.4663
  136OSM    C8F14825   0.812   0.825   7.498  0.8686  0.5300  0.5408
  136OSM    H8F14826   0.813   0.725   7.547  2.9008 -0.2281 -0.9348
  136OSM    H8G14827   0.706   0.859   7.491 -0.1044 -2.1684  0.6691
  136OSM    C9F14828   0.880   0.933   7.581  0.0754 -0.0539 -0.0309
  136OSM    H9F14829   0.898   1.033   7.539 -0.8857  0.8609  1.6316
  136OSM   C10F14830   0.911   0.931   7.716  0.9313 -0.4729  0.1905
  136OSM   H10F14831   0.958   1.022   7.758 -0.4689  1.1322 -1.5356
  136OSM   C11F14832   0.882   0.828   7.817 -0.0421 -0.3528 -0.1349
  136OSM   H11F14833   0.973   0.798   7.872 -0.3430  0.1746  0.6688
  136OSM   H11G14834   0.849   0.734   7.766  1.3294 -2.2411  2.2141
  136OSM   C12F14835   0.766   0.877   7.905  0.0692 -0.2487 -0.3196
  136OSM   H12F14836   0.680   0.890   7.836  0.8586  0.3119 -1.2225
  136OSM   H12G14837   0.789   0.972   7.958  0.9443 -2.4049  3.6116
  136OSM   C13F14838   0.743   0.786   8.020  0.7786  0.5850  0.9656
  136OSM   H13F14839   0.825   0.803   8.092  0.9919 -0.2108  0.9206
  136OSM   H13G14840   0.748   0.678   7.994 -0.1540  0.2869  1.9420
  136OSM   C14F14841   0.611   0.798   8.096 -0.1135  0.5328  1.1766
  136OSM   H14F14842   0.598   0.700   8.147  2.1311 -1.1348 -1.1496
  136OSM   H14G14843   0.530   0.797   8.020  0.3451 -0.4130  0.6666
  136OSM   C15F14844   0.599   0.924   8.186 -0.0968 -0.5224 -0.3663
  136OSM   H15F14845   0.604   1.020   8.128 -0.3492 -0.2347  0.0875
  136OSM   H15G14846   0.681   0.920   8.261  0.6754  0.3793 -1.1248
  136OSM   C16F14847   0.472   0.906   8.266  0.0303 -0.5339 -0.4284
  136OSM   H16F14848   0.464   0.805   8.312  1.3010 -0.5463 -0.1954
  136OSM   H16G14849   0.394   0.912   8.188 -1.5432 -1.3319  1.0110
  136OSM   C17F14850   0.442   1.023   8.359 -0.3328 -0.1994 -0.0965
  136OSM   H17F14851   0.442   1.116   8.299  2.0171 -0.3347 -0.4172
  136OSM   H17G14852   0.530   1.032   8.426  2.8738 -3.4913 -3.3786
  136OSM   C18F14853   0.315   0.998   8.430  0.0303 -0.1821 -0.4909
  136OSM   H18F14854   0.281   1.088   8.486 -0.3497  0.2408 -1.3852
  136OSM   H18G14855   0.327   0.919   8.506  2.3119  0.8745  0.3581
  136OSM   H18H14856   0.225   0.975   8.370 -0.0396 -0.0248 -0.4480
  137OSM      N14857   6.466   4.685   5.987 -0.1190  0.3865  0.4457
  137OSM    C1514858   6.516   4.608   5.874  0.4722  0.0551  0.0919
  137OSM   H15A14859   6.439   4.582   5.803 -0.1203 -2.1193  1.4315
  137OSM   H15B14860   6.561   4.517   5.911  0.8080  0.7360  1.4023
  137OSM   H15C14861   6.583   4.671   5.816 -1.6980  0.7161 -1.8765
  137OSM    C1414862   6.581   4.718   6.086 -0.2929 -0.9643  0.5143
  137OSM   H14A14863   6.650   4.790   6.044  0.2943 -0.8195  1.6835
  137OSM   H14B14864   6.632   4.626   6.112  0.3998 -1.2466 -1.6454
  137OSM   H14C14865   6.536   4.765   6.172 -0.6576 -0.4081  0.0312
  137OSM    C1314866   6.412   4.809   5.920  0.8452 -0.2809 -0.7117
  137OSM   H13A14867   6.336   4.788   5.846 -0.6421 -1.5818  1.0649
  137OSM   H13B14868   6.494   4.865   5.878 -0.8063 -0.3536 -4.4225
  137OSM   H13C14869   6.349   4.873   5.980  1.2148  0.9820 -1.6355
  137OSM    C1214870   6.355   4.605   6.054  0.0545 -0.3786  0.0298
  137OSM   H12A14871   6.277   4.590   5.981 -0.1075 -0.4918  0.2252
  137OSM   H12B14872   6.318   4.678   6.124 -1.0786 -1.0695  0.1766
  137OSM    C1114873   6.378   4.467   6.127 -0.1554 -0.3209 -0.0602
  137OSM   H11A14874   6.384   4.380   6.058 -0.9747  0.3038 -0.9423
  137OSM   H11B14875   6.288   4.436   6.183 -0.5027 -1.7298 -1.3360
  137OSM      P14876   6.620   4.381   6.215  0.1268 -0.2164  0.1531
  137OSM    O1314877   6.595   4.254   6.137 -0.1913 -0.1358  0.4472
  137OSM    O1414878   6.745   4.454   6.187  0.2042 -0.3181  0.2257
  137OSM    O1114879   6.625   4.339   6.367  0.5166 -0.0931  0.1550
  137OSM    O1214880   6.494   4.477   6.216  0.3127  0.6009  0.2268
  137OSM    C1S14881   6.516   4.283   6.430 -0.5561  0.7180  0.1456
  137OSM    H1S14882   6.501   4.176   6.404 -0.4865  0.2489  1.9081
  137OSM    H1T14883   6.418   4.330   6.406 -1.2987 -0.9306 -0.1908
  137OSM     NF14884   6.436   4.214   6.665  0.2157 -0.4972  0.0003
  137OSM    HNF14885   6.366   4.268   6.712  0.2273  0.6058 -1.1948
  137OSM    C2S14886   6.541   4.293   6.588  0.0281  0.1454  0.5980
  137OSM    H2S14887   6.633   4.233   6.604  0.7889  1.0960  0.0051
  137OSM    C3S14888   6.565   4.437   6.634 -0.9041  0.8098 -0.5749
  137OSM    H3S14889   6.476   4.500   6.611 -0.3994  1.3774 -1.0120
  137OSM     O314890   6.661   4.509   6.557  0.1542 -0.1617  0.2645
  137OSM    HO314891   6.671   4.462   6.474  0.9578  2.7659 -1.4788
  137OSM    C4S14892   6.596   4.440   6.785 -0.3593  0.1459 -0.3993
  137OSM    H4S14893   6.687   4.382   6.809 -0.3433  0.5792  0.6430
  137OSM    C5S14894   6.529   4.498   6.887 -0.3496  0.0316  0.0013
  137OSM    H5S14895   6.434   4.549   6.867  0.3296  1.6808  0.8383
  137OSM    C6S14896   6.558   4.497   7.033 -0.3057  0.3439 -0.2941
  137OSM    H6S14897   6.596   4.598   7.062 -1.2187  0.3945  0.7985
  137OSM    H6T14898   6.643   4.429   7.054  0.6183  2.2842  2.8805
  137OSM    C7S14899   6.433   4.450   7.109 -0.2332 -0.2749 -0.5050
  137OSM    H7S14900   6.425   4.343   7.080  0.9459 -0.5485  0.1150
  137OSM    H7T14901   6.347   4.507   7.069 -0.4802 -1.2960 -1.4988
  137OSM    C8S14902   6.437   4.466   7.255  0.5113  0.2881  0.1625
  137OSM    H8S14903   6.538   4.431   7.284  0.2441 -2.4671 -1.7747
  137OSM    H8T14904   6.364   4.401   7.307 -0.3096  1.7975  0.9592
  137OSM    C9S14905   6.406   4.610   7.305 -0.7451  0.5867  0.5553
  137OSM    H9S14906   6.306   4.645   7.269 -1.2665 -1.2079  0.1607
  137OSM    H9T14907   6.477   4.680   7.257 -0.6851  1.6708  2.1394
  137OSM   C10S14908   6.406   4.620   7.460  0.1231  0.4645  0.6790
  137OSM   H10S14909   6.312   4.575   7.497  0.1197 -0.8075 -0.8015
  137OSM   H10T14910   6.405   4.726   7.492  2.1395  1.0926 -1.1216
  137OSM   C11S14911   6.525   4.540   7.530 -0.2023 -0.0637 -0.2097
  137OSM   H11S14912   6.620   4.562   7.477 -0.9950  1.6762 -0.9968
  137OSM   H11T14913   6.497   4.433   7.526 -2.8775  0.5749 -0.8148
  137OSM   C12S14914   6.536   4.587   7.684 -0.3914  0.0402 -0.0522
  137OSM   H12S14915   6.434   4.595   7.727 -0.5752 -0.6884 -0.3394
  137OSM   H12T14916   6.574   4.691   7.678 -2.8878  1.0241 -0.0549
  137OSM   C13S14917   6.631   4.496   7.753  0.6883 -0.4133  0.0865
  137OSM   H13S14918   6.738   4.507   7.724 -0.0417  0.5418 -2.5724
  137OSM   H13T14919   6.609   4.395   7.714 -1.4972 -0.0106  0.1285
  137OSM   C14S14920   6.615   4.505   7.896 -0.0747  0.0151 -0.4591
  137OSM   H14S14921   6.511   4.472   7.915 -0.0019 -0.7631 -1.3413
  137OSM   H14T14922   6.626   4.611   7.929 -3.1206  0.5144 -0.7683
  137OSM   C15S14923   6.713   4.411   7.973  1.0930  0.3864  0.9190
  137OSM   H15S14924   6.815   4.454   7.961  1.2179 -0.2655 -0.4832
  137OSM   H15T14925   6.716   4.316   7.915 -2.4851  2.1548 -2.6636
  137OSM   C16S14926   6.678   4.401   8.122 -0.0904 -0.4745 -0.1444
  137OSM   H16S14927   6.593   4.332   8.141  1.6084 -2.5053  0.5283
  137OSM   H16T14928   6.644   4.500   8.159 -2.2702 -1.5600  0.9752
  137OSM   C17S14929   6.793   4.341   8.214  0.2671 -0.4937  0.7025
  137OSM   H17S14930   6.874   4.413   8.192 -1.7906  1.2564 -1.7277
  137OSM   H17T14931   6.818   4.241   8.173  0.8186 -0.4655  0.9584
  137OSM   C18S14932   6.759   4.322   8.362  0.3476 -0.7916  0.4586
  137OSM   H18S14933   6.834   4.258   8.411  0.8761 -0.3435  0.2477
  137OSM   H18T14934   6.660   4.272   8.371 -0.2435  0.0713 -0.7802
  137OSM   H18U14935   6.751   4.423   8.408  0.8107 -0.3713 -0.3557
  137OSM    C1F14936   6.432   4.085   6.665  0.1893  0.8798 -0.1881
  137OSM     OF14937   6.531   4.021   6.627 -0.0898  0.2593 -0.4534
  137OSM    C2F14938   6.318   4.014   6.711 -0.3143  0.0029 -0.3218
  137OSM    H2F14939   6.297   3.935   6.636 -0.6696 -0.0195 -0.2003
  137OSM    H2G14940   6.219   4.064   6.707 -1.4707 -2.0572  0.7679
  137OSM    C3F14941   6.341   3.960   6.860  0.1312  0.7682  0.7384
  137OSM    H3F14942   6.445   3.924   6.868  0.1970  0.5344 -0.8013
  137OSM    H3G14943   6.271   3.875   6.877 -0.5694  0.6615 -2.0912
  137OSM    C4F14944   6.316   4.065   6.970  0.3910  0.0531 -0.6277
  137OSM    H4F14945   6.208   4.087   6.979  0.9401  2.5790  0.6636
  137OSM    H4G14946   6.364   4.161   6.943  2.8057 -1.1938 -1.0713
  137OSM    C5F14947   6.360   4.010   7.104 -0.2412 -0.2958  0.9325
  137OSM    H5F14948   6.469   3.991   7.099 -0.4669 -1.4111 -0.3971
  137OSM    H5G14949   6.314   3.909   7.104  1.1744 -1.0413 -2.0402
  137OSM    C6F14950   6.316   4.088   7.222 -0.1859  0.0944 -0.7527
  137OSM    H6F14951   6.208   4.072   7.246 -0.0238  1.1648  0.8716
  137OSM    H6G14952   6.342   4.195   7.209  0.3058  0.4548  2.2910
  137OSM    C7F14953   6.399   4.032   7.340 -0.2103  0.2242 -0.3053
  137OSM    H7F14954   6.507   4.035   7.312 -0.1821  0.5778 -0.1614
  137OSM    H7G14955   6.371   3.927   7.363 -0.8059  0.5674  0.5988
  137OSM    C8F14956   6.387   4.109   7.463  0.2153 -0.5155  0.0666
  137OSM    H8F14957   6.395   4.216   7.434 -0.4499 -0.2075  0.9869
  137OSM    H8G14958   6.479   4.102   7.525 -0.7032  0.0307  1.5489
  137OSM    C9F14959   6.255   4.090   7.541 -0.0347 -0.5544 -0.6880
  137OSM    H9F14960   6.228   3.984   7.547 -0.9185 -0.2592  1.5798
  137OSM   C10F14961   6.189   4.179   7.621  0.2745  0.1253  0.8184
  137OSM   H10F14962   6.095   4.143   7.667 -1.6756  2.0307 -1.4180
  137OSM   C11F14963   6.230   4.323   7.638 -0.4913  0.5489  0.3589
  137OSM   H11F14964   6.191   4.379   7.551  2.5514  1.4801 -0.5183
  137OSM   H11G14965   6.340   4.337   7.633 -0.6501  1.7763  0.0283
  137OSM   C12F14966   6.175   4.388   7.767 -0.8108 -0.1412  0.2904
  137OSM   H12F14967   6.064   4.384   7.768 -0.9552  1.9272 -0.7988
  137OSM   H12G14968   6.213   4.493   7.762 -0.6920 -0.1661  0.6671
  137OSM   C13F14969   6.244   4.334   7.892 -0.7490  0.6160 -0.6155
  137OSM   H13F14970   6.351   4.321   7.866 -1.0574 -2.2228 -0.7973
  137OSM   H13G14971   6.210   4.230   7.908 -0.0566  0.6920  1.8748
  137OSM   C14F14972   6.217   4.426   8.010  0.6258 -0.2530  0.5100
  137OSM   H14F14973   6.106   4.437   8.012  0.6489  0.1849 -0.1314
  137OSM   H14G14974   6.259   4.522   7.971  0.5124 -1.3937 -2.6953
  137OSM   C15F14975   6.282   4.383   8.141  0.5265 -0.4047  0.3729
  137OSM   H15F14976   6.390   4.400   8.121  0.4993  0.1172  0.6463
  137OSM   H15G14977   6.266   4.276   8.166  0.7836 -0.3406  0.8196
  137OSM   C16F14978   6.233   4.464   8.261 -0.1616  0.4664  0.8182
  137OSM   H16F14979   6.127   4.487   8.239  0.5555  1.6578 -1.8485
  137OSM   H16G14980   6.281   4.564   8.266 -0.9685  0.8811  0.4427
  137OSM   C17F14981   6.252   4.397   8.393 -0.1095 -0.2618 -0.0370
  137OSM   H17F14982   6.240   4.289   8.368 -1.2389 -0.1674  0.0693
  137OSM   H17G14983   6.175   4.445   8.456  0.7123  1.5991 -0.3825
  137OSM   C18F14984   6.387   4.430   8.450 -0.2798  0.2715 -0.3015
  137OSM   H18F14985   6.471   4.408   8.381  0.9447  0.3722  1.0996
  137OSM   H18G14986   6.412   4.369   8.539 -0.3807 -1.4134 -1.3877
  137OSM   H18H14987   6.389   4.532   8.495 -2.5657  0.3705 -0.3209
  138OSM      N14988   6.615   5.923   6.000  0.3104  0.3410 -0.5797
  138OSM    C1514989   6.656   6.055   5.947  0.1049  0.6276  0.1737
  138OSM   H15A14990   6.696   6.043   5.847  0.9863 -0.2041  0.6124
  138OSM   H15B14991   6.752   6.084   5.987  0.2594 -0.9169  1.0311
  138OSM   H15C14992   6.590   6.137   5.971 -1.8687 -0.2372 -1.9510
  138OSM    C1414993   6.720   5.822   5.961  0.2532 -0.5203 -0.4388
  138OSM   H14A14994   6.681   5.726   5.990  0.6766 -0.7011 -0.4477
  138OSM   H14B14995   6.814   5.846   6.010 -0.7424  0.9544  0.8254
  138OSM   H14C14996   6.733   5.814   5.854  0.6131 -0.4861 -0.3998
  138OSM    C1314997   6.597   5.922   6.148  0.0019  0.4470 -0.1116
  138OSM   H13A14998   6.529   5.999   6.182  1.3468  1.2116  0.9612
  138OSM   H13B14999   6.685   5.960   6.198  0.7059 -1.2208 -0.0488
  138OSM   H13C15000   6.575   5.828   6.194  0.8468  0.2144 -0.1721
  138OSM    C1215001   6.481   5.878   5.939 -0.7637  0.3514  0.6081
  138OSM   H12A15002   6.493   5.880   5.832  1.6056 -1.5186  0.7514
  138OSM   H12B15003   6.403   5.953   5.940  0.3367  1.6271 -1.6851
  138OSM    C1115004   6.405   5.750   5.989 -0.7893  0.5251  0.0119
  138OSM   H11A15005   6.322   5.734   5.917 -0.5765 -0.5422 -0.0036
  138OSM   H11B15006   6.364   5.785   6.086  1.6788  2.5217  0.4622
  138OSM      P15007   6.525   5.547   6.117  0.2767  0.2772  0.1048
  138OSM    O1315008   6.453   5.413   6.114 -0.0835  0.0337  0.3439
  138OSM    O1415009   6.674   5.533   6.122 -0.4021 -0.0469 -0.1251
  138OSM    O1115010   6.485   5.621   6.248 -0.6332  0.3274 -0.8240
  138OSM    O1215011   6.490   5.633   5.988 -0.6780  0.1096  0.5027
  138OSM    C1S15012   6.506   5.563   6.386 -0.3889  0.1097 -0.3593
  138OSM    H1S15013   6.610   5.527   6.394 -0.4057 -0.7989 -3.0855
  138OSM    H1T15014   6.432   5.481   6.399 -0.2347 -0.2849 -1.8065
  138OSM     NF15015   6.521   5.615   6.619 -0.2805 -0.4982 -0.3385
  138OSM    HNF15016   6.448   5.599   6.686  2.1732 -1.1773  2.3482
  138OSM    C2S15017   6.486   5.666   6.493  0.6007 -0.6040 -0.3569
  138OSM    H2S15018   6.558   5.749   6.477  1.4947 -0.8351  2.0179
  138OSM    C3S15019   6.337   5.715   6.486  0.1861 -0.9191 -0.2957
  138OSM    H3S15020   6.256   5.640   6.482 -0.5468 -0.1049 -1.3678
  138OSM     O315021   6.323   5.805   6.375  0.0249 -0.1653  1.1251
  138OSM    HO315022   6.374   5.758   6.308  0.6271 -0.1429  1.5606
  138OSM    C4S15023   6.320   5.804   6.612  0.3767 -0.2139 -0.1144
  138OSM    H4S15024   6.352   5.910   6.610 -0.9515  0.2075  0.1984
  138OSM    C5S15025   6.254   5.762   6.721 -0.1039  0.2587  0.7536
  138OSM    H5S15026   6.217   5.659   6.733  2.7306 -1.2436 -1.7573
  138OSM    C6S15027   6.234   5.844   6.843 -0.5101  0.0856  1.0429
  138OSM    H6S15028   6.126   5.858   6.866 -1.0314  0.6192 -1.4972
  138OSM    H6T15029   6.269   5.947   6.826  0.1644 -0.1441  0.9996
  138OSM    C7S15030   6.302   5.776   6.958  0.8080 -0.6401  0.7920
  138OSM    H7S15031   6.412   5.766   6.951  1.2663  2.0667  2.6002
  138OSM    H7T15032   6.259   5.674   6.961 -0.2218 -0.2056  1.8742
  138OSM    C8S15033   6.257   5.835   7.087 -0.7630  1.2597  0.2373
  138OSM    H8S15034   6.146   5.841   7.087 -0.7421  1.7319 -0.4328
  138OSM    H8T15035   6.301   5.937   7.091  1.3561  0.4961 -1.2378
  138OSM    C9S15036   6.297   5.759   7.214 -0.6054  0.4363  0.2249
  138OSM    H9S15037   6.407   5.747   7.214 -0.5154  1.1789 -0.3686
  138OSM    H9T15038   6.249   5.658   7.213 -2.3804  1.2402 -0.6541
  138OSM   C10S15039   6.248   5.821   7.339  0.4295 -0.1504  0.2081
  138OSM   H10S15040   6.138   5.808   7.342  0.4244 -0.3892 -0.9226
  138OSM   H10T15041   6.275   5.929   7.335 -1.4933  0.3919  0.8596
  138OSM   C11S15042   6.308   5.760   7.471 -0.1385 -0.5710 -0.6083
  138OSM   H11S15043   6.419   5.762   7.465 -0.1254  0.3681 -0.2358
  138OSM   H11T15044   6.279   5.653   7.473  0.2895 -0.7209 -1.7916
  138OSM   C12S15045   6.244   5.819   7.588 -0.0729  0.3286 -0.2389
  138OSM   H12S15046   6.137   5.829   7.560  0.5550  1.0236 -2.6423
  138OSM   H12T15047   6.272   5.926   7.593 -2.2037  0.8610  1.6184
  138OSM   C13S15048   6.269   5.750   7.722  0.1406 -0.1211 -0.4299
  138OSM   H13S15049   6.285   5.643   7.695 -0.1637 -0.0897 -0.7322
  138OSM   H13T15050   6.180   5.756   7.788  0.2155 -0.9543 -0.2318
  138OSM   C14S15051   6.388   5.803   7.816  0.4773  0.0250 -0.1946
  138OSM   H14S15052   6.351   5.900   7.856 -0.6049 -0.9193  1.1638
  138OSM   H14T15053   6.479   5.823   7.756  0.6660 -0.5549 -0.0999
  138OSM   C15S15054   6.431   5.711   7.924 -0.7669  0.1834 -0.4203
  138OSM   H15S15055   6.511   5.645   7.883  0.6290  1.9111 -0.5884
  138OSM   H15T15056   6.347   5.659   7.976  0.1906  0.3300  1.3561
  138OSM   C16S15057   6.487   5.791   8.046  0.1631  0.5294  0.3096
  138OSM   H16S15058   6.434   5.888   8.053  0.8698  0.9094  0.5396
  138OSM   H16T15059   6.592   5.814   8.019  0.2069  0.3373  0.3132
  138OSM   C17S15060   6.498   5.711   8.182  0.4630 -0.3035 -0.3585
  138OSM   H17S15061   6.570   5.766   8.246 -1.1657  0.2215  1.0882
  138OSM   H17T15062   6.544   5.612   8.164 -0.9542 -1.0212 -0.1378
  138OSM   C18S15063   6.366   5.689   8.262 -0.3876 -0.0100 -1.0013
  138OSM   H18S15064   6.283   5.650   8.199 -0.0595  0.5652 -1.8072
  138OSM   H18T15065   6.324   5.776   8.315 -0.4479 -0.8178  0.3155
  138OSM   H18U15066   6.381   5.620   8.348 -0.4737 -1.1355 -1.8503
  138OSM    C1F15067   6.643   5.586   6.662 -0.6407  0.4369 -0.0278
  138OSM     OF15068   6.737   5.630   6.597  0.5531  0.6531  0.3826
  138OSM    C2F15069   6.656   5.495   6.771  0.4644  0.3602  0.1198
  138OSM    H2F15070   6.757   5.448   6.776  0.4627  0.1459 -1.5134
  138OSM    H2G15071   6.581   5.414   6.758 -0.4594  1.0665  0.9228
  138OSM    C3F15072   6.640   5.555   6.913  1.4949  0.4711  0.0488
  138OSM    H3F15073   6.538   5.599   6.926  2.0771  1.5237  1.3631
  138OSM    H3G15074   6.721   5.632   6.916  1.3608  0.6462 -0.5727
  138OSM    C4F15075   6.664   5.460   7.030 -0.4786 -0.5885  0.7261
  138OSM    H4F15076   6.759   5.403   7.023 -1.5972 -2.5058  0.1939
  138OSM    H4G15077   6.589   5.378   7.020  0.6202 -1.3520 -2.3875
  138OSM    C5F15078   6.639   5.529   7.167 -0.0150 -0.2135  0.2973
  138OSM    H5F15079   6.530   5.546   7.179 -0.5195 -1.7113 -1.5303
  138OSM    H5G15080   6.693   5.625   7.161  2.4198 -1.5445 -0.7280
  138OSM    C6F15081   6.693   5.470   7.288 -0.6986 -0.0065 -0.2905
  138OSM    H6F15082   6.803   5.453   7.282 -0.0857  1.7803  3.1887
  138OSM    H6G15083   6.652   5.369   7.308  0.0609 -0.4457 -0.8721
  138OSM    C7F15084   6.677   5.567   7.406  0.2034  0.1776 -0.0319
  138OSM    H7F15085   6.567   5.581   7.413  0.2475  1.3949 -1.4453
  138OSM    H7G15086   6.721   5.664   7.375 -0.5198  0.0682 -1.4995
  138OSM    C8F15087   6.729   5.504   7.538  0.2457  0.1796 -0.2036
  138OSM    H8F15088   6.829   5.465   7.510  0.8768  2.4874 -1.3794
  138OSM    H8G15089   6.665   5.422   7.578 -0.5668  0.1191 -1.5597
  138OSM    C9F15090   6.746   5.606   7.657 -0.1843 -0.0713  0.6110
  138OSM    H9F15091   6.770   5.710   7.629  2.4502 -0.4208  1.3060
  138OSM   C10F15092   6.754   5.570   7.780  0.0149 -0.1053  0.7010
  138OSM   H10F15093   6.756   5.649   7.856  1.1995  0.3185  0.2580
  138OSM   C11F15094   6.745   5.434   7.839 -0.3470 -0.0901 -0.6615
  138OSM   H11F15095   6.819   5.364   7.794  0.9539  1.3484 -0.8500
  138OSM   H11G15096   6.645   5.394   7.814 -0.0990 -1.0831 -0.1399
  138OSM   C12F15097   6.754   5.437   7.998  0.1914  0.4683 -0.1971
  138OSM   H12F15098   6.708   5.344   8.038 -1.4691  0.3109 -2.3178
  138OSM   H12G15099   6.682   5.515   8.032  0.1566  0.6626 -0.7177
  138OSM   C13F15100   6.894   5.460   8.061 -0.9502 -0.1981  0.3911
  138OSM   H13F15101   6.942   5.559   8.041 -0.7220 -0.7516 -1.9990
  138OSM   H13G15102   6.965   5.383   8.024  0.9752  0.7805  1.7991
  138OSM   C14F15103   6.888   5.446   8.216  0.3282 -0.0657 -0.4349
  138OSM   H14F15104   6.864   5.340   8.240  1.9384 -0.5681 -0.8885
  138OSM   H14G15105   6.799   5.508   8.238  0.0475 -0.5437 -0.2091
  138OSM   C15F15106   7.018   5.487   8.274 -0.9031 -0.4553  0.2813
  138OSM   H15F15107   7.049   5.587   8.235  1.0406 -0.9400  0.4864
  138OSM   H15G15108   7.102   5.424   8.238 -0.0002 -0.1802  1.8134
  138OSM   C16F15109   7.021   5.478   8.431  0.4344 -0.3124 -0.4413
  138OSM   H16F15110   6.983   5.378   8.461  1.3974 -0.3049  0.8736
  138OSM   H16G15111   6.963   5.561   8.477 -1.1603 -0.4905 -2.0310
  138OSM   C17F15112   7.165   5.489   8.487 -0.2827 -0.5301 -0.8884
  138OSM   H17F15113   7.152   5.529   8.589 -2.2119 -2.8594 -0.1253
  138OSM   H17G15114   7.214   5.573   8.433  0.6311 -0.5000 -0.0351
  138OSM   C18F15115   7.247   5.358   8.484  0.0735 -0.1750 -0.1440
  138OSM   H18F15116   7.188   5.275   8.527 -1.1595 -0.9069 -2.9986
  138OSM   H18G15117   7.340   5.360   8.545 -0.2228 -1.3986  0.3794
  138OSM   H18H15118   7.284   5.324   8.384 -2.3036 -2.9343 -0.1942
  139OSM      N15119   4.960   2.442   5.879  0.3126  0.2393  0.2675
  139OSM    C1515120   4.968   2.592   5.885  0.5250 -0.4801  0.2845
  139OSM   H15A15121   5.030   2.622   5.968  0.1227  0.4457  0.2591
  139OSM   H15B15122   4.868   2.631   5.899  0.9026  2.2980 -3.3919
  139OSM   H15C15123   5.003   2.627   5.789 -2.3391 -2.3268 -1.6123
  139OSM    C1415124   4.854   2.395   5.786 -0.9953  0.8961  0.1668
  139OSM   H14A15125   4.878   2.422   5.684 -1.5806  0.1083 -0.1859
  139OSM   H14B15126   4.763   2.447   5.810 -0.5354  1.8638 -0.1471
  139OSM   H14C15127   4.840   2.288   5.792  1.6416  0.4795  0.0280
  139OSM    C1315128   5.095   2.384   5.854 -0.0995  0.0288  0.1346
  139OSM   H13A15129   5.136   2.413   5.758 -0.1496  0.4041  0.2246
  139OSM   H13B15130   5.099   2.277   5.865  0.2072 -0.1447 -1.4267
  139OSM   H13C15131   5.170   2.424   5.920 -0.1504 -0.3251  0.4090
  139OSM    C1215132   4.911   2.395   6.017 -0.7396 -0.1498  0.3193
  139OSM   H12A15133   4.883   2.292   6.003 -1.8331  0.1499  0.2018
  139OSM   H12B15134   4.826   2.457   6.044 -0.0388  1.9449 -1.9373
  139OSM    C1115135   5.017   2.404   6.136 -0.3217  0.0807  0.1897
  139OSM   H11A15136   5.112   2.356   6.103 -1.8497 -2.0696 -1.2838
  139OSM   H11B15137   4.968   2.352   6.221  0.3866  1.3080  1.3973
  139OSM      P15138   4.940   2.610   6.265 -0.0194  0.5083 -0.0982
  139OSM    O1315139   4.976   2.748   6.295  0.3133 -0.3516 -0.0914
  139OSM    O1415140   4.807   2.579   6.206  0.2699  0.3145 -0.5731
  139OSM    O1115141   4.965   2.515   6.400 -0.3305  0.1779 -0.2048
  139OSM    O1215142   5.045   2.537   6.170  0.2895  0.5496  0.5926
  139OSM    C1S15143   5.094   2.504   6.453 -0.1230  0.7264  0.2188
  139OSM    H1S15144   5.124   2.606   6.486  1.2107  0.8871 -1.3798
  139OSM    H1T15145   5.162   2.451   6.383  0.4592 -2.8041  3.1009
  139OSM     NF15146   5.236   2.441   6.652 -0.0342 -0.2088  0.1006
  139OSM    HNF15147   5.315   2.388   6.623  1.1448  2.2423 -1.5476
  139OSM    C2S15148   5.103   2.417   6.589 -0.3935 -0.5269 -0.4987
  139OSM    H2S15149   5.022   2.463   6.650 -0.3876 -2.9401  1.4770
  139OSM    C3S15150   5.074   2.269   6.567  0.2245  0.3322  0.2543
  139OSM    H3S15151   5.165   2.232   6.516  2.6136  1.0094  3.7147
  139OSM     O315152   4.963   2.243   6.477 -0.5564 -0.6030  0.4281
  139OSM    HO315153   4.950   2.323   6.427 -2.9893 -1.7952 -1.0168
  139OSM    C4S15154   5.080   2.201   6.701  0.8215  0.2580  0.8001
  139OSM    H4S15155   5.182   2.168   6.723  0.6480 -0.8678  0.0085
  139OSM    C5S15156   4.974   2.158   6.775 -0.3307 -0.0980 -0.1768
  139OSM    H5S15157   4.870   2.173   6.743 -1.5832 -3.6036  1.7123
  139OSM    C6S15158   4.999   2.097   6.910 -0.0331  0.1348  0.1314
  139OSM    H6S15159   5.061   2.170   6.966 -0.6982  1.6030 -0.9648
  139OSM    H6T15160   5.059   2.004   6.904 -0.5945 -0.1317 -2.5379
  139OSM    C7S15161   4.867   2.076   6.992 -0.3016 -0.1179  0.2060
  139OSM    H7S15162   4.807   2.000   6.938  0.3775  0.4867 -1.4685
  139OSM    H7T15163   4.823   2.179   6.989 -0.0372  0.0694  1.7307
  139OSM    C8S15164   4.900   2.028   7.129  0.6353 -0.3824 -0.5074
  139OSM    H8S15165   4.991   2.074   7.174  0.1504 -0.6172  0.7492
  139OSM    H8T15166   4.930   1.921   7.123  0.5835 -0.4348  0.0818
  139OSM    C9S15167   4.791   2.019   7.235 -0.0063 -0.4807  0.7717
  139OSM    H9S15168   4.713   1.945   7.209  1.4000 -2.1266  1.0279
  139OSM    H9T15169   4.742   2.118   7.234  0.4075 -0.2721  0.0409
  139OSM   C10S15170   4.844   1.980   7.371 -0.0253  0.0999  0.7072
  139OSM   H10S15171   4.937   2.034   7.399  0.2916  1.3690 -2.4595
  139OSM   H10T15172   4.882   1.877   7.356 -2.0066 -0.4572 -0.9757
  139OSM   C11S15173   4.745   2.006   7.480  0.3001  0.6666  0.3739
  139OSM   H11S15174   4.652   1.946   7.471  1.0199 -0.3251 -0.8949
  139OSM   H11T15175   4.714   2.113   7.479  0.2355  0.6580 -1.2152
  139OSM   C12S15176   4.812   1.986   7.617  0.0735 -0.6773 -0.9566
  139OSM   H12S15177   4.912   2.036   7.618 -0.9767  1.5052 -0.4783
  139OSM   H12T15178   4.837   1.878   7.623 -0.3765 -0.6990  0.8550
  139OSM   C13S15179   4.724   2.023   7.737  0.3739  0.4576 -0.9052
  139OSM   H13S15180   4.622   1.979   7.730  0.6295 -0.6658  1.4384
  139OSM   H13T15181   4.713   2.132   7.720  0.6769  0.3082 -2.1520
  139OSM   C14S15182   4.789   1.979   7.862  0.1439  0.0204 -0.3125
  139OSM   H14S15183   4.893   2.018   7.860  0.9610 -1.9401  1.2018
  139OSM   H14T15184   4.789   1.868   7.864  2.0191  0.0113  0.8951
  139OSM   C15S15185   4.716   2.023   7.993  0.3720  0.0514 -0.5944
  139OSM   H15S15186   4.625   1.963   8.009  0.6676 -0.3603 -0.4405
  139OSM   H15T15187   4.684   2.128   7.976  1.5574  0.6417  0.6670
  139OSM   C16S15188   4.790   2.018   8.125 -0.3675  0.6188  0.6334
  139OSM   H16S15189   4.887   2.059   8.090 -1.0479 -0.7290 -3.4029
  139OSM   H16T15190   4.797   1.909   8.142 -1.0428  0.1835 -1.5749
  139OSM   C17S15191   4.722   2.085   8.248 -0.1309  0.9955  0.1858
  139OSM   H17S15192   4.638   2.017   8.273  0.4105  0.1402 -0.2609
  139OSM   H17T15193   4.677   2.184   8.226 -2.6289  0.6399  3.0397
  139OSM   C18S15194   4.819   2.094   8.367  0.7442  0.3225  0.0263
  139OSM   H18S15195   4.910   2.156   8.354  0.7896  0.2812  0.1441
  139OSM   H18T15196   4.853   1.994   8.401  0.7068  0.5686  0.8236
  139OSM   H18U15197   4.761   2.135   8.453 -0.5871 -1.0007 -0.2039
  139OSM    C1F15198   5.261   2.556   6.706 -0.3885 -0.0124  0.0333
  139OSM     OF15199   5.168   2.640   6.720  0.1107  0.1274 -0.3664
  139OSM    C2F15200   5.403   2.591   6.742 -0.1374 -0.1191  0.6044
  139OSM    H2F15201   5.446   2.660   6.667 -1.1011 -2.6140 -2.4469
  139OSM    H2G15202   5.462   2.498   6.723 -0.2098 -0.0112 -0.1424
  139OSM    C3F15203   5.422   2.673   6.871  0.0835 -0.0705 -0.4291
  139OSM    H3F15204   5.379   2.775   6.861  2.0093  0.6597 -2.0022
  139OSM    H3G15205   5.528   2.701   6.890  0.0143 -0.2181  0.2046
  139OSM    C4F15206   5.367   2.613   6.999  0.1693 -0.2226 -0.5308
  139OSM    H4F15207   5.402   2.509   7.017 -0.6895 -0.9745 -2.8902
  139OSM    H4G15208   5.257   2.597   6.993  0.0587  1.0128 -3.0772
  139OSM    C5F15209   5.407   2.701   7.120 -0.3749  1.0236 -0.1098
  139OSM    H5F15210   5.365   2.803   7.115  0.3698  1.4166  1.0692
  139OSM    H5G15211   5.518   2.706   7.120 -0.3034  0.0077  1.2033
  139OSM    C6F15212   5.368   2.640   7.261 -0.0812  0.3229 -0.0031
  139OSM    H6F15213   5.438   2.663   7.343 -0.7146  1.0413  0.3537
  139OSM    H6G15214   5.368   2.530   7.246 -0.0255  0.1353  1.2576
  139OSM    C7F15215   5.223   2.677   7.287  0.3343 -0.3725 -0.2512
  139OSM    H7F15216   5.178   2.601   7.355  0.2897 -2.0186 -2.0380
  139OSM    H7G15217   5.163   2.667   7.194  2.2542  4.6610 -2.3988
  139OSM    C8F15218   5.211   2.819   7.344 -0.0791 -0.3604  0.0292
  139OSM    H8F15219   5.108   2.843   7.378 -0.2644 -1.4394  0.2668
  139OSM    H8G15220   5.232   2.894   7.264 -0.7441  1.6590  1.6691
  139OSM    C9F15221   5.294   2.863   7.460 -0.1436 -0.3454 -1.0038
  139OSM    H9F15222   5.392   2.905   7.435 -1.2734  2.2553 -1.2947
  139OSM   C10F15223   5.257   2.871   7.597 -1.0646 -0.1519  0.6063
  139OSM   H10F15224   5.320   2.907   7.679 -1.5206  0.7787  0.5628
  139OSM   C11F15225   5.128   2.831   7.648  0.3636  0.6159 -0.0314
  139OSM   H11F15226   5.099   2.734   7.600 -1.2634 -0.5241  2.9925
  139OSM   H11G15227   5.052   2.906   7.617 -2.0768 -1.4888  0.4311
  139OSM   C12F15228   5.134   2.788   7.795 -0.8139  0.8503 -0.6639
  139OSM   H12F15229   5.223   2.726   7.820  0.6845  2.6865 -1.1621
  139OSM   H12G15230   5.038   2.738   7.816  0.6134 -1.6300  0.3985
  139OSM   C13F15231   5.155   2.906   7.889  0.5283 -0.3706 -0.0003
  139OSM   H13F15232   5.091   2.994   7.863  1.3753  0.9192  2.0674
  139OSM   H13G15233   5.254   2.949   7.864 -0.2118  1.9703  0.7826
  139OSM   C14F15234   5.141   2.886   8.042  0.4378  0.1548 -0.0392
  139OSM   H14F15235   5.048   2.830   8.066  0.8941 -0.2406  0.8509
  139OSM   H14G15236   5.150   2.979   8.102 -0.5438 -0.0327  0.4083
  139OSM   C15F15237   5.260   2.797   8.086  0.4196  0.1678 -0.0704
  139OSM   H15F15238   5.346   2.816   8.019 -0.8177  2.2433 -1.1886
  139OSM   H15G15239   5.226   2.691   8.072  0.2577  0.0112  1.3655
  139OSM   C16F15240   5.299   2.799   8.237 -0.4104 -0.3595  0.0762
  139OSM   H16F15241   5.324   2.701   8.283 -1.4159 -0.3398  0.6998
  139OSM   H16G15242   5.202   2.826   8.285  1.1198 -0.0354  3.1697
  139OSM   C17F15243   5.414   2.894   8.246  0.0404  0.6219 -0.3104
  139OSM   H17F15244   5.375   2.987   8.198 -4.7492 -0.3007  1.1995
  139OSM   H17G15245   5.496   2.860   8.179 -1.2478 -0.7395 -1.2782
  139OSM   C18F15246   5.468   2.911   8.388 -0.3534 -0.0449 -0.0028
  139OSM   H18F15247   5.390   2.930   8.465 -0.3729 -0.1425  0.0022
  139OSM   H18G15248   5.538   2.996   8.399 -2.0314  1.8169 -2.4612
  139OSM   H18H15249   5.527   2.821   8.412  0.8754  0.0667 -2.2790
  140OSM      N15250   5.592   2.418   5.882  0.3048 -0.1960  0.4261
  140OSM    C1515251   5.480   2.451   5.973  0.3980 -0.2940 -0.4484
  140OSM   H15A15252   5.488   2.393   6.063 -0.0580  2.0997  1.2361
  140OSM   H15B15253   5.377   2.443   5.941 -0.1425 -0.9844  1.3574
  140OSM   H15C15254   5.491   2.550   6.014 -1.4109 -0.7623  1.3030
  140OSM    C1415255   5.717   2.400   5.965  0.0734 -0.1494 -0.1435
  140OSM   H14A15256   5.802   2.373   5.904 -0.2389 -0.3230 -0.5105
  140OSM   H14B15257   5.701   2.318   6.033  0.3612  0.7525  1.0497
  140OSM   H14C15258   5.744   2.485   6.025 -1.5067 -0.5901  1.2622
  140OSM    C1315259   5.564   2.292   5.810  0.1467  0.4403 -0.0252
  140OSM   H13A15260   5.641   2.269   5.738 -1.5422  0.3219 -1.8780
  140OSM   H13B15261   5.473   2.294   5.751  0.1166  0.3159  0.0164
  140OSM   H13C15262   5.559   2.209   5.879 -0.4488  1.4804  1.2281
  140OSM    C1215263   5.617   2.529   5.781  0.1002  0.5826 -0.6217
  140OSM   H12A15264   5.532   2.527   5.715 -0.3339  2.1063 -0.1421
  140OSM   H12B15265   5.705   2.497   5.725  1.0597 -2.4560  2.3194
  140OSM    C1115266   5.631   2.677   5.829  0.3754 -0.2890 -0.2487
  140OSM   H11A15267   5.653   2.736   5.738  0.8567  0.2104  0.1851
  140OSM   H11B15268   5.718   2.692   5.897  0.2753  2.6824 -0.6585
  140OSM      P15269   5.519   2.833   6.005 -0.4371  0.0203  0.0132
  140OSM    O1315270   5.558   2.954   5.927 -0.0043 -0.0188  0.2792
  140OSM    O1415271   5.390   2.834   6.088 -0.5306  0.3588 -0.4395
  140OSM    O1115272   5.637   2.796   6.104 -0.1788  0.2401  0.1063
  140OSM    O1215273   5.514   2.728   5.889  0.1218  0.3899  0.2469
  140OSM    C1S15274   5.679   2.871   6.214  0.0003  0.1140  0.6362
  140OSM    H1S15275   5.587   2.909   6.262 -1.2348  0.0617 -1.5318
  140OSM    H1T15276   5.746   2.953   6.181 -0.1787  0.2623  0.6426
  140OSM     NF15277   5.777   2.858   6.441  0.6498 -0.3397  0.0263
  140OSM    HNF15278   5.854   2.920   6.447  0.1825  0.5825 -2.4987
  140OSM    C2S15279   5.752   2.785   6.318 -0.0150 -0.4288 -0.2572
  140OSM    H2S15280   5.693   2.693   6.337 -0.8808  0.3108  0.7462
  140OSM    C3S15281   5.885   2.739   6.244 -0.2235 -0.5241  0.0578
  140OSM    H3S15282   5.950   2.828   6.235  0.9146 -1.4002 -0.6812
  140OSM     O315283   5.876   2.690   6.110  0.6902  0.1231  0.1029
  140OSM    HO315284   5.783   2.699   6.086  1.1928  0.5132 -1.8845
  140OSM    C4S15285   5.962   2.631   6.325  0.2703  0.2959 -0.8432
  140OSM    H4S15286   6.046   2.665   6.388  0.8232 -0.5608 -1.1042
  140OSM    C5S15287   5.952   2.494   6.330  0.4980  0.4351 -0.5816
  140OSM    H5S15288   5.865   2.457   6.274 -1.6251  2.9220  0.8677
  140OSM    C6S15289   6.033   2.398   6.420 -0.4416  0.0529 -0.2301
  140OSM    H6S15290   5.977   2.391   6.515 -1.0098  1.0044 -0.4782
  140OSM    H6T15291   6.128   2.448   6.451  0.0691 -1.4780  0.7696
  140OSM    C7S15292   6.057   2.251   6.384 -0.8315 -0.3935 -0.1911
  140OSM    H7S15293   6.154   2.241   6.331  0.0609  0.5791  1.2171
  140OSM    H7T15294   5.974   2.202   6.328  0.1075 -1.0452 -1.0539
  140OSM    C8S15295   6.068   2.159   6.508  0.0168  0.4023  0.0252
  140OSM    H8S15296   6.086   2.056   6.471  0.8147  0.1335  1.1218
  140OSM    H8T15297   5.970   2.163   6.561 -1.0108  1.4437 -1.8446
  140OSM    C9S15298   6.172   2.185   6.614 -0.9266  0.1291 -0.0709
  140OSM    H9S15299   6.170   2.287   6.659 -0.7761 -1.1120  3.0052
  140OSM    H9T15300   6.272   2.167   6.570 -1.2521 -0.9594 -0.4053
  140OSM   C10S15301   6.159   2.086   6.729 -0.6047 -0.6062 -0.5429
  140OSM   H10S15302   6.247   2.080   6.796 -0.7802  0.7300 -0.1629
  140OSM   H10T15303   6.141   1.988   6.680 -1.3499 -0.9588  0.4012
  140OSM   C11S15304   6.037   2.116   6.818  0.4247 -0.4769 -0.0265
  140OSM   H11S15305   5.942   2.115   6.761 -0.5729  0.8749  1.5161
  140OSM   H11T15306   6.045   2.216   6.865  0.6182 -0.2276 -0.5885
  140OSM   C12S15307   6.016   2.032   6.945 -0.8300  0.0321  0.1014
  140OSM   H12S15308   6.099   2.027   7.019 -1.1762  0.5720  0.5371
  140OSM   H12T15309   6.015   1.926   6.913  1.9902  0.0036 -0.1865
  140OSM   C13S15310   5.883   2.067   7.026  0.1585 -0.3884  0.6573
  140OSM   H13S15311   5.805   2.040   6.951  1.8163 -0.4630 -1.1096
  140OSM   H13T15312   5.875   2.177   7.039  2.7148 -0.4079  3.1984
  140OSM   C14S15313   5.854   1.985   7.161 -0.2510 -0.1736 -0.0962
  140OSM   H14S15314   5.891   2.049   7.243 -0.0901 -1.9479  1.2837
  140OSM   H14T15315   5.930   1.904   7.167 -0.0334  0.1170  1.9820
  140OSM   C15S15316   5.715   1.928   7.182  0.2585  0.8510  0.3355
  140OSM   H15S15317   5.704   1.827   7.139 -0.0200  0.8130  0.4962
  140OSM   H15T15318   5.657   1.985   7.106 -0.2196 -0.9527 -0.6882
  140OSM   C16S15319   5.678   1.937   7.332  0.4313  0.3114 -0.4136
  140OSM   H16S15320   5.568   1.947   7.349  0.5493 -0.2129  0.7876
  140OSM   H16T15321   5.719   2.035   7.364 -0.6575  0.1707  1.5561
  140OSM   C17S15322   5.734   1.823   7.416 -0.3940 -0.8720 -0.3872
  140OSM   H17S15323   5.844   1.833   7.406 -0.6017  0.5600 -1.6458
  140OSM   H17T15324   5.694   1.734   7.363 -1.2108  0.0327 -1.3477
  140OSM   C18S15325   5.692   1.803   7.564 -0.0115  0.3354  0.1391
  140OSM   H18S15326   5.766   1.733   7.609 -1.8287 -0.9809  1.2045
  140OSM   H18T15327   5.590   1.762   7.576 -0.0887 -0.7800 -3.1650
  140OSM   H18U15328   5.691   1.905   7.608 -1.7792  1.4379 -2.1879
  140OSM    C1F15329   5.668   2.886   6.517  0.3114 -0.7471 -0.1163
  140OSM     OF15330   5.567   2.827   6.495  0.4158  0.0867  0.5899
  140OSM    C2F15331   5.677   3.008   6.615 -0.0892 -0.2154 -1.1056
  140OSM    H2F15332   5.657   3.106   6.567  0.7014  0.1127 -0.7892
  140OSM    H2G15333   5.783   2.999   6.647 -1.0999 -2.0659  2.1633
  140OSM    C3F15334   5.605   2.979   6.754  0.1462  0.0144  0.0851
  140OSM    H3F15335   5.636   2.875   6.779  0.3483 -0.4076 -1.7957
  140OSM    H3G15336   5.497   2.982   6.725  0.0942  0.9923  0.3633
  140OSM    C4F15337   5.627   3.081   6.856  0.1947 -0.0513  0.7980
  140OSM    H4F15338   5.560   3.169   6.841 -0.9102 -1.0991 -0.5758
  140OSM    H4G15339   5.734   3.109   6.864  0.8615 -1.5752 -1.9158
  140OSM    C5F15340   5.589   3.034   6.997  0.1005  0.4080 -0.0245
  140OSM    H5F15341   5.648   2.941   7.012  0.2520  0.0153 -2.5936
  140OSM    H5G15342   5.480   3.017   6.993  0.1607 -0.0019  0.0051
  140OSM    C6F15343   5.622   3.142   7.097  0.2250  0.8193 -0.4511
  140OSM    H6F15344   5.558   3.230   7.077 -1.5064 -0.0697  0.8864
  140OSM    H6G15345   5.730   3.169   7.086  0.3720 -0.2388 -1.8380
  140OSM    C7F15346   5.588   3.082   7.234 -0.6007 -0.1005 -0.0687
  140OSM    H7F15347   5.676   3.022   7.266  0.9397  1.8374 -0.4942
  140OSM    H7G15348   5.489   3.031   7.232 -0.1495 -0.9897 -0.5897
  140OSM    C8F15349   5.586   3.177   7.352 -0.4869 -0.4021 -0.0828
  140OSM    H8F15350   5.678   3.238   7.366 -0.8920  0.1416  0.2760
  140OSM    H8G15351   5.571   3.109   7.439 -1.0610 -0.2403 -0.0480
  140OSM    C9F15352   5.470   3.278   7.357  0.6934 -0.4299 -0.0837
  140OSM    H9F15353   5.436   3.318   7.261 -2.1937  0.0282  1.0101
  140OSM   C10F15354   5.401   3.328   7.460  0.5637  0.0833  0.1896
  140OSM   H10F15355   5.304   3.378   7.441  0.8383  0.5505 -0.0051
  140OSM   C11F15356   5.427   3.297   7.603 -0.0502  0.9311  0.1143
  140OSM   H11F15357   5.498   3.370   7.648 -0.1362  0.3585  1.2025
  140OSM   H11G15358   5.460   3.192   7.616 -1.7233  0.2607 -0.7018
  140OSM   C12F15359   5.293   3.295   7.684 -0.0305  0.1662 -0.3675
  140OSM   H12F15360   5.237   3.200   7.670  0.2152 -0.1126  0.4790
  140OSM   H12G15361   5.221   3.372   7.649 -0.4060 -0.2232 -0.4594
  140OSM   C13F15362   5.318   3.311   7.833 -0.5844 -0.1434  0.1548
  140OSM   H13F15363   5.361   3.413   7.835  1.8465 -1.0495 -0.9413
  140OSM   H13G15364   5.396   3.239   7.868  0.9777  0.6844 -1.4504
  140OSM   C14F15365   5.191   3.303   7.917  0.2831  0.9021 -0.1276
  140OSM   H14F15366   5.146   3.202   7.911  1.2803  0.4470 -0.1663
  140OSM   H14G15367   5.117   3.376   7.877 -0.7374 -0.1922 -0.2592
  140OSM   C15F15368   5.211   3.352   8.051  0.5245 -0.0795 -1.0617
  140OSM   H15F15369   5.112   3.356   8.102  0.9982 -0.8279 -0.0443
  140OSM   H15G15370   5.254   3.454   8.045  0.1751 -0.0098 -2.7184
  140OSM   C16F15371   5.307   3.274   8.144 -0.3469 -0.4844 -0.5348
  140OSM   H16F15372   5.407   3.269   8.098 -0.0682 -2.5857  0.1881
  140OSM   H16G15373   5.258   3.174   8.154  1.0403 -0.9531  2.9176
  140OSM   C17F15374   5.322   3.327   8.294 -0.4298  0.3571 -0.2092
  140OSM   H17F15375   5.400   3.261   8.338  0.4720  1.8050  0.4467
  140OSM   H17G15376   5.224   3.322   8.347  0.2109 -2.6143  0.8720
  140OSM   C18F15377   5.369   3.472   8.296  0.3941 -0.3774  0.3700
  140OSM   H18F15378   5.310   3.532   8.223  2.7023  0.5812 -0.8311
  140OSM   H18G15379   5.472   3.482   8.257  0.0304 -1.4042 -0.9387
  140OSM   H18H15380   5.363   3.528   8.392  1.1982 -0.3150  0.3901
  141OSM      N15381   5.621   4.486   5.854  0.3064 -0.4862 -0.2948
  141OSM    C1515382   5.743   4.518   5.776  0.0247 -0.3663  0.0410
  141OSM   H15A15383   5.774   4.619   5.795  2.9677 -1.2527  0.5562
  141OSM   H15B15384   5.725   4.504   5.671  1.2185 -1.0584 -0.0884
  141OSM   H15C15385   5.819   4.452   5.815  1.2463  0.5627 -0.6887
  141OSM    C1415386   5.513   4.566   5.788 -0.1552 -0.6906 -0.4834
  141OSM   H14A15387   5.507   4.538   5.684  0.3009  1.2865 -1.0849
  141OSM   H14B15388   5.544   4.669   5.792  0.5602 -0.8990 -0.6500
  141OSM   H14C15389   5.417   4.562   5.838  0.2082 -0.7987  0.2157
  141OSM    C1315390   5.590   4.346   5.836  0.2653  0.0702  0.2756
  141OSM   H13A15391   5.666   4.286   5.885  0.1355  1.7482  2.7366
  141OSM   H13B15392   5.563   4.314   5.737 -0.6477 -0.8808  0.8122
  141OSM   H13C15393   5.496   4.317   5.881 -0.6629  0.6474 -1.2151
  141OSM    C1215394   5.641   4.527   5.997 -1.0079  0.2877 -0.2784
  141OSM   H12A15395   5.559   4.500   6.062  0.7293 -1.1514  1.4372
  141OSM   H12B15396   5.661   4.633   5.990  0.6022 -0.0120 -0.4102
  141OSM    C1115397   5.757   4.460   6.082  0.0480  0.4077  0.2960
  141OSM   H11A15398   5.759   4.507   6.183 -1.1470  1.4362 -0.1346
  141OSM   H11B15399   5.849   4.495   6.030 -0.2751  0.4213 -0.2782
  141OSM      P15400   5.636   4.256   6.199  0.1859  0.1608 -0.0650
  141OSM    O1315401   5.503   4.308   6.160 -0.2419  0.6946 -0.6150
  141OSM    O1415402   5.650   4.110   6.216 -0.4215 -0.3608  0.0322
  141OSM    O1115403   5.671   4.329   6.325  0.8040 -0.7065 -0.7069
  141OSM    O1215404   5.742   4.316   6.095  0.3899  0.1427  0.3801
  141OSM    C1S15405   5.570   4.381   6.414  0.2937 -0.5392  0.1403
  141OSM    H1S15406   5.474   4.325   6.420 -0.2026  0.4365  2.1481
  141OSM    H1T15407   5.547   4.487   6.392 -0.8038 -0.6447  0.6899
  141OSM     NF15408   5.531   4.415   6.655 -0.0264 -0.7339 -1.2123
  141OSM    HNF15409   5.527   4.512   6.679 -1.1270 -0.2486 -3.1767
  141OSM    C2S15410   5.634   4.383   6.560 -0.7207 -0.5316  0.2343
  141OSM    H2S15411   5.666   4.278   6.575 -0.6202 -0.7345 -1.2519
  141OSM    C3S15412   5.763   4.477   6.558  0.3503 -0.2454  0.6338
  141OSM    H3S15413   5.732   4.575   6.517 -2.1307 -1.6407 -1.1031
  141OSM     O315414   5.864   4.436   6.467 -0.1738  0.7839  0.3194
  141OSM    HO315415   5.807   4.390   6.404 -0.4077 -1.2041  1.8621
  141OSM    C4S15416   5.821   4.496   6.697  0.1285 -0.6747  0.0280
  141OSM    H4S15417   5.792   4.598   6.724 -0.6338 -0.7593 -0.4392
  141OSM    C5S15418   5.896   4.420   6.776 -0.1001  0.2338 -0.5447
  141OSM    H5S15419   5.936   4.324   6.742  2.2562  1.3798 -1.2212
  141OSM    C6S15420   5.953   4.459   6.913  0.7738 -0.3549 -0.2091
  141OSM    H6S15421   5.910   4.555   6.947 -0.2079 -0.2946 -1.5493
  141OSM    H6T15422   6.062   4.448   6.927  1.1184  1.9945 -0.6878
  141OSM    C7S15423   5.896   4.352   7.013 -0.4336 -0.2572 -0.1924
  141OSM    H7S15424   5.922   4.257   6.963 -1.5925  1.4018 -4.4081
  141OSM    H7T15425   5.786   4.364   7.025 -0.5607  0.5628 -1.8956
  141OSM    C8S15426   5.953   4.360   7.160 -0.5203 -0.3815  0.1770
  141OSM    H8S15427   6.064   4.369   7.167 -0.5623  1.1872 -0.6673
  141OSM    H8T15428   5.937   4.261   7.208  2.7826 -1.1941 -0.1289
  141OSM    C9S15429   5.890   4.476   7.237  0.6367  0.0544  0.9502
  141OSM    H9S15430   5.780   4.464   7.223  0.4147  2.0712  0.6330
  141OSM    H9T15431   5.907   4.572   7.183  0.7176  0.1391  1.1267
  141OSM   C10S15432   5.935   4.478   7.379 -0.3094  0.0280 -0.2125
  141OSM   H10S15433   6.040   4.512   7.387 -0.3506  0.0240  0.3415
  141OSM   H10T15434   5.929   4.370   7.405 -0.1301  0.3695  1.3306
  141OSM   C11S15435   5.848   4.558   7.477  0.2233 -0.6486 -0.8071
  141OSM   H11S15436   5.749   4.508   7.483  0.6362 -1.6471 -1.8754
  141OSM   H11T15437   5.833   4.663   7.444  0.0186 -1.0719 -2.0859
  141OSM   C12S15438   5.912   4.567   7.615  0.2845 -0.4132 -0.4992
  141OSM   H12S15439   6.013   4.609   7.599 -1.2242  2.6678 -2.8869
  141OSM   H12T15440   5.906   4.467   7.664 -0.9838  1.1405  2.8340
  141OSM   C13S15441   5.834   4.663   7.705 -0.4265  0.2842  0.2413
  141OSM   H13S15442   5.733   4.626   7.734  0.3790 -0.9445  1.5848
  141OSM   H13T15443   5.825   4.767   7.666  1.1819  0.2281 -0.3581
  141OSM   C14S15444   5.899   4.672   7.839 -0.1795  0.3931  0.1439
  141OSM   H14S15445   6.000   4.717   7.827  0.2235 -0.8423 -1.6929
  141OSM   H14T15446   5.922   4.565   7.860 -0.0689  0.6015  1.0908
  141OSM   C15S15447   5.820   4.746   7.948  0.4405 -0.3628  0.0773
  141OSM   H15S15448   5.709   4.736   7.941  0.3538  0.1283  0.6803
  141OSM   H15T15449   5.830   4.855   7.927 -0.4274 -0.4725 -1.0221
  141OSM   C16S15450   5.873   4.733   8.089 -0.1810  0.3708 -0.1434
  141OSM   H16S15451   5.981   4.705   8.092 -0.4756 -1.1859 -1.8275
  141OSM   H16T15452   5.825   4.652   8.148  0.2877  2.4630  3.3399
  141OSM   C17S15453   5.848   4.860   8.176 -0.2457  0.5120 -0.4982
  141OSM   H17S15454   5.853   4.829   8.283  2.0026 -0.0507 -0.7134
  141OSM   H17T15455   5.748   4.906   8.158  0.7679  4.4076  2.3029
  141OSM   C18S15456   5.956   4.972   8.161  0.4683  0.5597  0.0376
  141OSM   H18S15457   5.954   5.015   8.059  0.8855  1.6133  0.4609
  141OSM   H18T15458   6.063   4.945   8.173  0.5619  1.3495  1.1112
  141OSM   H18U15459   5.933   5.050   8.236  0.8650 -0.2851  1.0810
  141OSM    C1F15460   5.432   4.342   6.696  0.8310 -0.1471  0.0341
  141OSM     OF15461   5.413   4.225   6.658  0.0719  0.0859  0.1590
  141OSM    C2F15462   5.337   4.395   6.804  0.2297 -0.1404 -0.7505
  141OSM    H2F15463   5.240   4.436   6.768  0.0849 -0.6164 -0.9111
  141OSM    H2G15464   5.383   4.483   6.853  0.3113  0.1449 -1.3328
  141OSM    C3F15465   5.316   4.292   6.917  0.7648 -0.3499 -1.0073
  141OSM    H3F15466   5.281   4.196   6.874  0.5394 -0.0154 -1.5834
  141OSM    H3G15467   5.235   4.331   6.983  2.7988  1.1773  0.7326
  141OSM    C4F15468   5.438   4.287   7.008 -0.3906 -0.1031  0.5787
  141OSM    H4F15469   5.454   4.395   7.024 -1.7726  0.4026 -1.1052
  141OSM    H4G15470   5.529   4.248   6.958 -0.6867 -0.4301  0.2891
  141OSM    C5F15471   5.416   4.214   7.141  0.1759 -0.2265 -0.4646
  141OSM    H5F15472   5.422   4.103   7.143 -0.7933 -0.3191 -1.8355
  141OSM    H5G15473   5.325   4.254   7.191  2.1745  2.3116  1.4293
  141OSM    C6F15474   5.526   4.248   7.248 -0.7904  1.1468 -0.1169
  141OSM    H6F15475   5.519   4.356   7.272 -2.2972  1.3847 -1.4610
  141OSM    H6G15476   5.621   4.224   7.195 -2.0470 -2.2440 -1.1149
  141OSM    C7F15477   5.516   4.166   7.384  0.1871  0.3962 -0.3842
  141OSM    H7F15478   5.529   4.060   7.354 -0.0183  0.7839 -1.9400
  141OSM    H7G15479   5.421   4.160   7.442  0.3438 -1.5073 -0.2715
  141OSM    C8F15480   5.629   4.209   7.484 -0.0394  0.2655  0.7344
  141OSM    H8F15481   5.630   4.319   7.502 -2.4904  0.5945 -0.7334
  141OSM    H8G15482   5.719   4.182   7.424 -0.2701 -0.9721  0.9287
  141OSM    C9F15483   5.632   4.120   7.602  0.2521 -0.2905  0.7102
  141OSM    H9F15484   5.583   4.021   7.597  1.6046 -0.9012 -1.3206
  141OSM   C10F15485   5.681   4.154   7.722  0.3818  1.0017  0.1462
  141OSM   H10F15486   5.682   4.076   7.799  2.7664 -0.2263 -1.0302
  141OSM   C11F15487   5.753   4.275   7.761  0.4192 -0.8279  0.2522
  141OSM   H11F15488   5.763   4.339   7.670  0.6170  0.7757  1.3605
  141OSM   H11G15489   5.853   4.269   7.810 -0.8883 -1.3987  3.0060
  141OSM   C12F15490   5.670   4.358   7.851  0.5687 -0.4334  0.1905
  141OSM   H12F15491   5.575   4.374   7.795  2.5539  1.7670 -2.8843
  141OSM   H12G15492   5.723   4.456   7.858  2.0662 -1.1659 -0.4048
  141OSM   C13F15493   5.650   4.295   7.986  0.4307  0.1593  0.0753
  141OSM   H13F15494   5.744   4.250   8.023 -1.5977 -3.8293  0.9473
  141OSM   H13G15495   5.581   4.209   7.968  0.7515 -0.1932  0.5013
  141OSM   C14F15496   5.602   4.382   8.104 -0.0777 -0.3767  1.4720
  141OSM   H14F15497   5.492   4.372   8.105 -0.1226  0.0588  1.0321
  141OSM   H14G15498   5.620   4.491   8.086 -3.1290 -0.4374 -3.8778
  141OSM   C15F15499   5.649   4.333   8.233 -0.5386  0.2011 -0.3644
  141OSM   H15F15500   5.758   4.347   8.245 -0.8834  2.8213  0.3711
  141OSM   H15G15501   5.637   4.223   8.244  5.2798 -0.7567 -0.7669
  141OSM   C16F15502   5.592   4.406   8.362  0.5340 -0.0463  0.0126
  141OSM   H16F15503   5.483   4.388   8.361  0.9134 -2.9712  1.0559
  141OSM   H16G15504   5.616   4.514   8.363 -0.2127  0.1186  0.5622
  141OSM   C17F15505   5.668   4.354   8.486 -0.1050  0.1394 -0.1722
  141OSM   H17F15506   5.674   4.244   8.484  1.4107  0.2254 -1.2281
  141OSM   H17G15507   5.603   4.380   8.573  0.2311  0.4075  0.0028
  141OSM   C18F15508   5.807   4.411   8.514  0.0605  0.5382  0.1113
  141OSM   H18F15509   5.887   4.358   8.458 -1.8007  0.0061 -2.2285
  141OSM   H18G15510   5.829   4.388   8.621  0.5607 -1.7051 -0.4147
  141OSM   H18H15511   5.806   4.520   8.493 -0.7716  0.4618 -0.2591
  142OSM      N15512   5.658   0.557   6.220  0.2972  0.4161 -0.2625
  142OSM    C1515513   5.629   0.679   6.145  0.2908 -0.7125 -0.4938
  142OSM   H15A15514   5.569   0.752   6.196 -1.8097 -3.5096  1.3503
  142OSM   H15B15515   5.567   0.656   6.059 -1.3316 -0.0974  0.4773
  142OSM   H15C15516   5.719   0.727   6.110 -0.4016  2.1131  1.2659
  142OSM    C1415517   5.741   0.471   6.136  0.8337 -0.1090  0.0397
  142OSM   H14A15518   5.833   0.514   6.098  0.6322  1.4936  1.2262
  142OSM   H14B15519   5.685   0.442   6.048  1.2556 -1.2683  0.1374
  142OSM   H14C15520   5.774   0.382   6.188  0.5837 -0.5534 -0.5537
  142OSM    C1315521   5.733   0.578   6.348  0.0089 -0.4345  0.1205
  142OSM   H13A15522   5.672   0.654   6.393 -0.2595  0.5194 -1.7495
  142OSM   H13B15523   5.831   0.619   6.328 -0.2582  1.3872  2.1956
  142OSM   H13C15524   5.730   0.495   6.416  1.2551 -0.3991  0.2510
  142OSM    C1215525   5.528   0.483   6.248  0.4817 -0.1794 -0.5622
  142OSM   H12A15526   5.463   0.467   6.163  0.3637  0.4617 -0.5937
  142OSM   H12B15527   5.476   0.552   6.312  1.2298  1.0091 -1.2061
  142OSM    C1115528   5.546   0.345   6.307  0.0603  0.2050 -0.0172
  142OSM   H11A15529   5.447   0.323   6.354  1.6653 -0.1768  3.5042
  142OSM   H11B15530   5.618   0.338   6.391 -1.9406 -2.1207  1.6709
  142OSM      P15531   5.632   0.109   6.206 -0.1637  0.1337  0.1433
  142OSM    O1315532   5.576   0.024   6.097  0.5179 -0.2749 -0.3218
  142OSM    O1415533   5.780   0.126   6.201  0.2455  1.0220 -0.1851
  142OSM    O1115534   5.596   0.047   6.352 -0.0755 -0.0652  0.4142
  142OSM    O1215535   5.567   0.251   6.208 -0.3184 -0.1136  0.0975
  142OSM    C1S15536   5.684   0.040   6.465  0.7258  0.0327  0.6914
  142OSM    H1S15537   5.764   0.115   6.452 -0.6001  1.2350 -1.1382
  142OSM    H1T15538   5.746  -0.052   6.463 -0.2800 -0.6615 -0.9360
  142OSM     NF15539   5.713   0.046   6.703  0.2832  0.3076 -0.5793
  142OSM    HNF15540   5.716  -0.037   6.758  2.2243 -0.3648 -1.5753
  142OSM    C2S15541   5.612   0.054   6.600  0.2189  0.4008 -0.2416
  142OSM    H2S15542   5.565   0.155   6.597 -0.6775  0.0640  1.1557
  142OSM    C3S15543   5.499  -0.050   6.631 -0.1098 -0.1802 -0.0179
  142OSM    H3S15544   5.536  -0.154   6.641 -0.4452 -0.4318 -1.2360
  142OSM     O315545   5.402  -0.062   6.531 -0.3533 -0.1573  0.7364
  142OSM    HO315546   5.455  -0.044   6.453 -1.4438  1.5169  0.3503
  142OSM    C4S15547   5.434  -0.006   6.762 -0.5469 -0.7372 -0.4206
  142OSM    H4S15548   5.472  -0.063   6.847 -0.0278  1.8319  1.1724
  142OSM    C5S15549   5.339   0.094   6.770  0.6143  0.3361 -0.5763
  142OSM    H5S15550   5.293   0.134   6.678 -3.2714 -2.3615 -0.0632
  142OSM    C6S15551   5.272   0.137   6.899 -0.2374  0.2471 -0.3540
  142OSM    H6S15552   5.162   0.121   6.896  0.1028 -2.4147 -0.6159
  142OSM    H6T15553   5.280   0.247   6.915 -0.2675  0.3799 -1.2124
  142OSM    C7S15554   5.315   0.079   7.031 -0.2333  0.3976  0.2194
  142OSM    H7S15555   5.422   0.109   7.032  0.1973 -0.8105 -2.4137
  142OSM    H7T15556   5.309  -0.031   7.040 -2.0131  0.4958  0.5197
  142OSM    C8S15557   5.256   0.148   7.154  0.2066  0.4129  0.2800
  142OSM    H8S15558   5.145   0.148   7.142  0.2560 -1.6358 -0.5718
  142OSM    H8T15559   5.292   0.253   7.158  3.0189 -0.2612 -3.1088
  142OSM    C9S15560   5.292   0.072   7.287 -0.4011 -0.4375  0.0019
  142OSM    H9S15561   5.401   0.069   7.308 -0.1999 -2.2014 -1.1509
  142OSM    H9T15562   5.279  -0.037   7.271 -2.1544 -0.4823  1.3228
  142OSM   C10S15563   5.226   0.111   7.417 -0.7631 -0.3671  0.0521
  142OSM   H10S15564   5.120   0.076   7.414 -0.9314  0.1802 -0.8159
  142OSM   H10T15565   5.239   0.220   7.431 -0.7798 -0.0728 -1.9471
  142OSM   C11S15566   5.294   0.034   7.534  0.5682  0.8321  0.1256
  142OSM   H11S15567   5.400   0.063   7.552  0.5513  0.4712  0.8729
  142OSM   H11T15568   5.292  -0.074   7.505 -4.4409  0.2572  1.5250
  142OSM   C12S15569   5.206   0.046   7.662 -0.4840 -0.0931 -0.3571
  142OSM   H12S15570   5.112  -0.013   7.662 -0.4232 -0.2302 -1.6473
  142OSM   H12T15571   5.190   0.154   7.680  0.8004  0.0112  0.2651
  142OSM   C13S15572   5.280   0.005   7.791 -0.0985 -0.2446 -0.2413
  142OSM   H13S15573   5.373   0.064   7.801  0.4334 -0.7918 -1.6903
  142OSM   H13T15574   5.311  -0.100   7.775  1.7882  0.1911  0.3221
  142OSM   C14S15575   5.177   0.023   7.904  0.8729 -0.0182 -0.1101
  142OSM   H14S15576   5.094  -0.051   7.903  2.1452 -1.4841 -0.3087
  142OSM   H14T15577   5.123   0.119   7.889 -1.2918 -1.4318 -2.1544
  142OSM   C15S15578   5.238   0.002   8.044 -0.7443  0.5695 -0.5929
  142OSM   H15S15579   5.325   0.066   8.068 -0.2785 -0.9803  2.3244
  142OSM   H15T15580   5.272  -0.103   8.054 -0.1641  0.9176  1.6825
  142OSM   C16S15581   5.141   0.022   8.166  0.0106  0.0299 -0.4606
  142OSM   H16S15582   5.067  -0.056   8.140  1.0813 -1.5308  0.9520
  142OSM   H16T15583   5.105   0.127   8.162  0.4529  0.1987 -0.1255
  142OSM   C17S15584   5.196  -0.015   8.302  0.1233 -0.3016  0.5446
  142OSM   H17S15585   5.281   0.053   8.324  1.8933 -2.4528  0.7405
  142OSM   H17T15586   5.245  -0.112   8.281  0.5683 -0.6895  3.0523
  142OSM   C18S15587   5.093  -0.031   8.410 -0.6416  0.0632 -0.7809
  142OSM   H18S15588   5.011  -0.100   8.378 -2.1388  0.1264  2.4411
  142OSM   H18T15589   5.055   0.069   8.439 -0.8009 -0.8179  2.3888
  142OSM   H18U15590   5.156  -0.074   8.491 -0.5940  0.5734 -0.5462
  142OSM    C1F15591   5.811   0.136   6.714 -0.3565 -0.3488 -0.3441
  142OSM     OF15592   5.797   0.252   6.667 -0.0491  0.0996  0.5526
  142OSM    C2F15593   5.935   0.078   6.780 -0.7256 -0.3869  0.0022
  142OSM    H2F15594   6.006   0.073   6.695 -1.1729  0.0995 -0.4126
  142OSM    H2G15595   5.916  -0.025   6.816  0.6981 -0.1081  1.6436
  142OSM    C3F15596   5.983   0.170   6.893  0.0926  0.0479  0.0702
  142OSM    H3F15597   5.909   0.194   6.972  0.2895  0.7290  0.0533
  142OSM    H3G15598   6.012   0.271   6.857  0.7951  1.0337  3.0676
  142OSM    C4F15599   6.109   0.117   6.956  0.3223  0.3883 -0.1298
  142OSM    H4F15600   6.149   0.202   7.015 -2.1691  0.6526  1.3200
  142OSM    H4G15601   6.186   0.085   6.882  0.6740  0.0991  0.3540
  142OSM    C5F15602   6.079   0.005   7.056 -0.5284 -0.3884 -0.5396
  142OSM    H5F15603   6.053  -0.087   6.999 -0.0280 -0.3853 -0.7791
  142OSM    H5G15604   5.988   0.022   7.117 -0.9857  1.0481 -1.5673
  142OSM    C6F15605   6.203  -0.026   7.137 -0.2755 -0.9506  0.1330
  142OSM    H6F15606   6.296  -0.020   7.076 -1.2890  2.0510 -1.3118
  142OSM    H6G15607   6.187  -0.130   7.173 -1.6252 -0.0012  2.5811
  142OSM    C7F15608   6.211   0.066   7.263  0.0311 -0.0086  1.1572
  142OSM    H7F15609   6.113   0.073   7.315 -0.3715  0.4090  0.3607
  142OSM    H7G15610   6.240   0.165   7.221  0.6282 -1.3917 -2.0203
  142OSM    C8F15611   6.310   0.025   7.361 -0.0791  0.5646 -0.1814
  142OSM    H8F15612   6.404   0.003   7.305 -0.5259 -1.1854 -0.3227
  142OSM    H8G15613   6.310  -0.082   7.393  2.5194  0.3636 -0.6155
  142OSM    C9F15614   6.343   0.116   7.473  0.1513 -0.7248  0.1623
  142OSM    H9F15615   6.284   0.209   7.480  0.2274 -0.6773  0.1651
  142OSM   C10F15616   6.432   0.091   7.569  0.1954 -0.6119  0.2194
  142OSM   H10F15617   6.453   0.168   7.645  2.4404  0.0515 -0.9748
  142OSM   C11F15618   6.512  -0.035   7.585 -0.2937  1.1207 -0.7348
  142OSM   H11F15619   6.617  -0.000   7.578 -0.7212  2.3322 -1.3418
  142OSM   H11G15620   6.495  -0.104   7.500 -1.1767  0.7022 -0.2348
  142OSM   C12F15621   6.489  -0.144   7.699  1.0796  0.1936  0.3435
  142OSM   H12F15622   6.576  -0.214   7.695  0.2184 -1.1451  2.6978
  142OSM   H12G15623   6.389  -0.179   7.664  1.6332  2.2966 -3.8725
  142OSM   C13F15624   6.480  -0.091   7.843  0.6598  0.4549  0.7313
  142OSM   H13F15625   6.378  -0.069   7.881  0.6004 -0.2522  0.9796
  142OSM   H13G15626   6.538   0.004   7.848 -0.2361  1.2136 -1.8150
  142OSM   C14F15627   6.542  -0.194   7.938  0.2054 -0.3626  0.1875
  142OSM   H14F15628   6.615  -0.253   7.879  1.9182  1.7445  0.0826
  142OSM   H14G15629   6.466  -0.266   7.975 -0.4680 -0.0844 -0.6071
  142OSM   C15F15630   6.627  -0.136   8.051  0.2360 -0.0613 -0.7476
  142OSM   H15F15631   6.713  -0.076   8.013  0.3033  0.7591  0.6276
  142OSM   H15G15632   6.666  -0.227   8.100 -0.8869 -0.4329 -0.5254
  142OSM   C16F15633   6.556  -0.048   8.153  0.4293 -0.2059  0.6594
  142OSM   H16F15634   6.498   0.034   8.106 -1.2821 -2.5603 -1.6537
  142OSM   H16G15635   6.629  -0.011   8.227 -1.2010  1.9580  1.2853
  142OSM   C17F15636   6.438  -0.113   8.228 -0.5195  0.6568  0.0184
  142OSM   H17F15637   6.364  -0.152   8.155  0.2398 -1.4496  0.2793
  142OSM   H17G15638   6.390  -0.034   8.289 -0.2984  0.8226 -0.0239
  142OSM   C18F15639   6.491  -0.226   8.326 -0.7093  0.8045  0.5964
  142OSM   H18F15640   6.512  -0.320   8.271  1.3164  0.4136  1.9167
  142OSM   H18G15641   6.421  -0.247   8.411 -2.1400  1.6794 -0.3308
  142OSM   H18H15642   6.586  -0.191   8.372 -0.2823 -0.3785  0.6414
  143OSM      N15643   1.175   3.143   6.068 -0.2769  0.0088  0.0760
  143OSM    C1515644   1.268   3.038   6.014 -0.2380 -0.5623 -0.6052
  143OSM   H15A15645   1.319   3.073   5.926  1.0734  0.7100  0.5987
  143OSM   H15B15646   1.223   2.941   5.999 -0.0319 -0.5090 -1.6502
  143OSM   H15C15647   1.349   3.015   6.082 -0.0928 -0.8693 -0.8741
  143OSM    C1415648   1.243   3.277   6.060  0.3873  0.1753 -1.0018
  143OSM   H14A15649   1.274   3.290   5.957  1.6884 -0.4134 -0.7019
  143OSM   H14B15650   1.333   3.274   6.120 -2.3094 -1.2470  3.4620
  143OSM   H14C15651   1.192   3.370   6.081 -0.6618 -0.0823 -2.2402
  143OSM    C1315652   1.063   3.154   5.974  0.2044 -0.7979 -0.0446
  143OSM   H13A15653   0.989   3.228   6.002  2.0247  1.4611 -0.8749
  143OSM   H13B15654   1.006   3.064   5.956 -0.0329 -0.6703  0.0516
  143OSM   H13C15655   1.095   3.181   5.874  0.1592  1.5463  0.5157
  143OSM    C1215656   1.140   3.116   6.210  0.2875 -0.1621 -0.8704
  143OSM   H12A15657   1.134   3.008   6.203  0.0498 -0.3952  2.0581
  143OSM   H12B15658   1.048   3.155   6.250  1.7051  3.3363 -0.6822
  143OSM    C1115659   1.247   3.152   6.321  0.3922  0.1807  0.0856
  143OSM   H11A15660   1.214   3.131   6.425 -0.1180  2.5073  0.4385
  143OSM   H11B15661   1.242   3.263   6.322 -0.9534  0.1356  0.6719
  143OSM      P15662   1.427   2.963   6.343  0.3014  0.1092 -0.2614
  143OSM    O1315663   1.337   2.863   6.280  0.0278  0.4819  0.1121
  143OSM    O1415664   1.568   2.955   6.305 -0.2347  0.3195  0.2101
  143OSM    O1115665   1.410   2.962   6.499 -0.1662 -0.2553  0.1025
  143OSM    O1215666   1.380   3.103   6.298 -0.7031 -0.1308  0.3744
  143OSM    C1S15667   1.384   2.841   6.575 -0.4848 -0.3359  0.2742
  143OSM    H1S15668   1.421   2.748   6.528 -2.6178 -1.2266  0.2714
  143OSM    H1T15669   1.275   2.824   6.591 -0.5964 -1.9439 -1.7373
  143OSM     NF15670   1.434   2.732   6.780  0.5843 -0.0307 -0.1605
  143OSM    HNF15671   1.361   2.718   6.847 -0.2303  0.6845 -0.8660
  143OSM    C2S15672   1.448   2.857   6.708 -0.4143  0.1511  0.3467
  143OSM    H2S15673   1.557   2.879   6.701 -0.5897  0.5439 -1.6386
  143OSM    C3S15674   1.384   2.976   6.779  0.0728 -0.0160 -0.2723
  143OSM    H3S15675   1.273   2.973   6.775  0.0801 -1.8781 -0.0193
  143OSM     O315676   1.421   3.106   6.722 -0.1322 -0.3877  0.6307
  143OSM    HO315677   1.457   3.083   6.636  0.0922  3.2998 -0.4320
  143OSM    C4S15678   1.423   2.983   6.925  0.0537  0.2622  0.1220
  143OSM    H4S15679   1.527   3.009   6.948 -0.3218  2.3801 -0.4021
  143OSM    C5S15680   1.338   2.966   7.029  0.7229 -0.8527 -0.5806
  143OSM    H5S15681   1.231   2.943   7.019 -0.3350  2.7430  0.8802
  143OSM    C6S15682   1.384   2.990   7.172 -0.2037  0.1158  1.0495
  143OSM    H6S15683   1.494   3.001   7.181 -0.1389 -0.6457  1.2783
  143OSM    H6T15684   1.370   2.895   7.228  2.3418  0.0353  1.7066
  143OSM    C7S15685   1.310   3.108   7.226 -0.3301  0.2467  0.4512
  143OSM    H7S15686   1.199   3.101   7.235 -0.3616 -0.8548 -0.6373
  143OSM    H7T15687   1.344   3.190   7.159  2.5734 -0.1970  1.2511
  143OSM    C8S15688   1.358   3.131   7.371  0.0402 -0.1259 -0.4443
  143OSM    H8S15689   1.315   3.228   7.402 -0.0079 -0.3110  0.0828
  143OSM    H8T15690   1.468   3.150   7.371 -0.0151  0.6408  2.5204
  143OSM    C9S15691   1.316   3.012   7.463  0.2162  0.3803  0.1941
  143OSM    H9S15692   1.399   2.938   7.465 -3.3592 -4.0902 -0.4875
  143OSM    H9T15693   1.229   2.957   7.421 -0.8172  0.4616  2.0961
  143OSM   C10S15694   1.291   3.059   7.600  0.3906 -0.0581 -0.5302
  143OSM   H10S15695   1.229   2.988   7.658  0.9078  0.6641  0.9628
  143OSM   H10T15696   1.229   3.151   7.609  3.0781  1.7914  0.2739
  143OSM   C11S15697   1.421   3.071   7.684  0.4505 -0.7323  0.4612
  143OSM   H11S15698   1.479   3.162   7.655  2.0722 -1.4373  1.3945
  143OSM   H11T15699   1.473   2.974   7.670 -0.2201 -0.8084 -2.1958
  143OSM   C12S15700   1.385   3.090   7.831  0.6746  0.3134 -0.4287
  143OSM   H12S15701   1.315   3.011   7.867  0.7809  0.6244  0.4928
  143OSM   H12T15702   1.341   3.190   7.854 -2.8182 -1.1227 -0.1879
  143OSM   C13S15703   1.507   3.081   7.928 -0.4477  0.1672 -0.0280
  143OSM   H13S15704   1.467   3.132   8.018  0.4886  0.9397 -0.0240
  143OSM   H13T15705   1.591   3.147   7.895 -0.2877  1.2502  2.3395
  143OSM   C14S15706   1.560   2.939   7.964 -0.3799 -0.2150 -0.6576
  143OSM   H14S15707   1.590   2.893   7.867 -0.1970 -1.4050 -0.0597
  143OSM   H14T15708   1.477   2.872   7.996  1.5275 -2.9126 -1.0543
  143OSM   C15S15709   1.675   2.934   8.063  0.1058 -0.5001  0.0804
  143OSM   H15S15710   1.760   2.983   8.011 -1.5378  0.3794 -1.8924
  143OSM   H15T15711   1.697   2.830   8.096  1.9492 -0.0701  0.3002
  143OSM   C16S15712   1.648   3.027   8.187  0.0735  0.0744  0.1225
  143OSM   H16S15713   1.663   3.134   8.161  1.0803  0.4515  2.0900
  143OSM   H16T15714   1.727   3.007   8.262  0.2611  0.8678  0.1440
  143OSM   C17S15715   1.519   3.006   8.270 -0.1509  0.2209 -0.3259
  143OSM   H17S15716   1.523   2.899   8.300 -0.3986  0.7373  1.7010
  143OSM   H17T15717   1.430   3.022   8.206 -0.7940 -2.4421 -0.2031
  143OSM   C18S15718   1.510   3.088   8.396  0.1001  0.1165 -0.1538
  143OSM   H18S15719   1.408   3.079   8.439  0.6964  1.9627  1.8618
  143OSM   H18T15720   1.524   3.196   8.372  0.5414  0.7984  2.7645
  143OSM   H18U15721   1.590   3.064   8.469 -1.1850 -1.7578  0.7280
  143OSM    C1F15722   1.511   2.627   6.752  0.1898 -0.2145  0.1051
  143OSM     OF15723   1.616   2.642   6.687 -0.0403 -0.0549 -0.4972
  143OSM    C2F15724   1.462   2.502   6.805  0.0852  0.2089  0.0388
  143OSM    H2F15725   1.401   2.463   6.721  2.0683  0.6467 -1.6923
  143OSM    H2G15726   1.401   2.517   6.896  2.9987 -2.7701  2.7374
  143OSM    C3F15727   1.566   2.400   6.849 -0.1439  0.2528  0.3689
  143OSM    H3F15728   1.642   2.455   6.909  0.6303  0.4141 -0.7245
  143OSM    H3G15729   1.620   2.364   6.759  0.2334  1.8806 -0.0886
  143OSM    C4F15730   1.522   2.284   6.941  0.5696  0.4013  0.2566
  143OSM    H4F15731   1.555   2.184   6.905 -0.0426  0.3838 -0.2785
  143OSM    H4G15732   1.412   2.277   6.935  0.6673 -1.7184  0.0127
  143OSM    C5F15733   1.564   2.313   7.085 -0.1440 -0.4276  0.3939
  143OSM    H5F15734   1.529   2.418   7.100 -1.4138 -0.4504 -1.9082
  143OSM    H5G15735   1.671   2.338   7.097 -0.4931  2.1970 -1.0348
  143OSM    C6F15736   1.509   2.219   7.191  0.3297 -0.1532 -0.5950
  143OSM    H6F15737   1.558   2.120   7.187 -0.3367 -0.4566 -1.7347
  143OSM    H6G15738   1.404   2.202   7.159  0.2776  1.1189 -1.1669
  143OSM    C7F15739   1.510   2.270   7.339  0.7361 -0.0078  0.5329
  143OSM    H7F15740   1.444   2.196   7.389  2.7562 -2.3495 -0.1099
  143OSM    H7G15741   1.452   2.364   7.330  2.0639  0.7032 -1.2213
  143OSM    C8F15742   1.643   2.279   7.415 -0.9029  0.3841  0.3347
  143OSM    H8F15743   1.619   2.331   7.511 -2.3749  0.6950 -0.1743
  143OSM    H8G15744   1.712   2.350   7.363  0.6522 -1.6863 -0.5853
  143OSM    C9F15745   1.704   2.139   7.440  0.7883  0.1641 -0.6208
  143OSM    H9F15746   1.736   2.098   7.343  2.3385  1.7298 -0.8264
  143OSM   C10F15747   1.726   2.078   7.557 -0.0220  0.1909 -0.1696
  143OSM   H10F15748   1.771   1.978   7.564 -0.1494  0.0954 -0.7122
  143OSM   C11F15749   1.699   2.134   7.694 -0.2236  0.5548  0.4835
  143OSM   H11F15750   1.677   2.243   7.685 -0.2078  0.4532 -1.1368
  143OSM   H11G15751   1.788   2.126   7.760  0.3765  1.2504 -0.2299
  143OSM   C12F15752   1.579   2.072   7.767  0.1943 -0.1794  0.1474
  143OSM   H12F15753   1.482   2.110   7.729  0.9557  0.9225 -0.7644
  143OSM   H12G15754   1.581   2.098   7.874  1.7334  0.9278 -0.1209
  143OSM   C13F15755   1.558   1.918   7.759  0.2576 -0.3079  0.3332
  143OSM   H13F15756   1.649   1.874   7.805 -0.5602 -1.3971  0.9540
  143OSM   H13G15757   1.554   1.883   7.654 -3.0665 -1.9652  0.8802
  143OSM   C14F15758   1.438   1.864   7.840 -0.2831  0.4290  0.3162
  143OSM   H14F15759   1.444   1.753   7.848  0.1596  0.5785  3.0057
  143OSM   H14G15760   1.343   1.900   7.794  1.6283  3.8246 -1.3423
  143OSM   C15F15761   1.433   1.906   7.985 -0.4258 -0.0807  0.0184
  143OSM   H15F15762   1.328   1.928   8.012 -0.3802 -0.2947  0.3770
  143OSM   H15G15763   1.496   1.993   8.010  0.2487 -0.3597 -0.6523
  143OSM   C16F15764   1.484   1.787   8.063  0.4981  0.1920  0.2121
  143OSM   H16F15765   1.579   1.764   8.011 -0.5118  1.3698 -2.3585
  143OSM   H16G15766   1.405   1.712   8.042 -0.1992  0.7798  0.6915
  143OSM   C17F15767   1.478   1.802   8.219  0.5054  0.3855 -0.6929
  143OSM   H17F15768   1.463   1.699   8.256  2.5998  0.5652  0.8237
  143OSM   H17G15769   1.386   1.858   8.249  0.4754  0.5620 -1.0983
  143OSM   C18F15770   1.605   1.859   8.274  0.3043  0.4922 -0.2268
  143OSM   H18F15771   1.590   1.969   8.278  1.3559  0.6017  1.2597
  143OSM   H18G15772   1.692   1.826   8.212  1.7123  0.5810  1.6279
  143OSM   H18H15773   1.628   1.810   8.371 -0.6370 -1.4858 -0.9487
  144OSM      N15774   0.591   6.016   6.077  0.0375 -0.1912 -0.2341
  144OSM    C1515775   0.692   6.119   6.112  0.4216  0.2742 -0.1049
  144OSM   H15A15776   0.653   6.218   6.128 -0.3373 -0.0193 -0.0797
  144OSM   H15B15777   0.774   6.129   6.043 -0.7580  1.2250 -1.4218
  144OSM   H15C15778   0.738   6.079   6.202 -0.5208 -0.7688 -0.0570
  144OSM    C1415779   0.507   6.067   5.966  0.6288 -0.0564  0.1758
  144OSM   H14A15780   0.454   6.158   5.992  3.2762  1.5091  0.4814
  144OSM   H14B15781   0.435   6.000   5.922  1.2168 -1.2291  0.9341
  144OSM   H14C15782   0.577   6.086   5.885  0.9622  0.5438  0.5930
  144OSM    C1315783   0.659   5.885   6.033  0.5951  0.0955 -0.4176
  144OSM   H13A15784   0.594   5.808   5.993  0.3992 -1.7555  3.0587
  144OSM   H13B15785   0.721   5.854   6.116  1.7423  1.4202 -0.7562
  144OSM   H13C15786   0.724   5.905   5.950  1.1392 -0.5752 -0.1611
  144OSM    C1215787   0.499   5.988   6.198 -0.2007 -0.2852 -0.1944
  144OSM   H12A15788   0.572   5.948   6.267 -0.2744  1.2294  0.8113
  144OSM   H12B15789   0.433   5.907   6.172  1.1064 -2.0012  1.4867
  144OSM    C1115790   0.432   6.109   6.268  0.1950  0.6049 -0.2321
  144OSM   H11A15791   0.509   6.186   6.291 -2.2334  3.0205  0.4571
  144OSM   H11B15792   0.405   6.085   6.373 -0.9845  0.6041 -0.5206
  144OSM      P15793   0.179   6.098   6.178  0.3468  0.3148  0.0088
  144OSM    O1315794   0.086   6.193   6.112  0.6096  0.0053  0.2952
  144OSM    O1415795   0.194   5.965   6.105 -0.3375  0.4358 -0.7163
  144OSM    O1115796   0.120   6.070   6.324 -0.0002  0.4910 -0.0563
  144OSM    O1215797   0.323   6.171   6.197  0.5525 -0.6615 -0.1234
  144OSM    C1S15798   0.137   5.939   6.386  0.4803 -0.5488 -0.5185
  144OSM    H1S15799   0.239   5.900   6.366  0.0158 -2.2748  0.3490
  144OSM    H1T15800   0.057   5.871   6.350  0.7100 -1.2880  0.3443
  144OSM     NF15801   0.148   5.808   6.594  0.8873  0.5589  0.1040
  144OSM    HNF15802   0.068   5.749   6.594  0.8977  0.5263 -1.1245
  144OSM    C2S15803   0.122   5.939   6.538  0.1911  0.2618 -0.1231
  144OSM    H2S15804   0.186   6.018   6.581 -0.1803  1.9448 -2.4517
  144OSM    C3S15805  -0.026   5.976   6.573  0.4671  0.2966 -0.3161
  144OSM    H3S15806  -0.094   5.916   6.508  0.5390  0.3936 -0.4845
  144OSM     O315807  -0.062   6.107   6.534  0.4137 -0.0434 -0.2813
  144OSM    HO315808   0.002   6.146   6.474 -0.0253  0.0711 -0.6807
  144OSM    C4S15809  -0.062   5.939   6.716 -0.0736  0.1754  0.1810
  144OSM    H4S15810  -0.121   5.846   6.714 -0.3180  0.3287 -1.4907
  144OSM    C5S15811  -0.033   6.018   6.822  0.2925 -0.0304 -0.0626
  144OSM    H5S15812   0.023   6.113   6.811 -2.5356  1.6534 -0.8813
  144OSM    C6S15813  -0.072   5.987   6.962  0.6799 -0.7465 -0.4132
  144OSM    H6S15814   0.014   5.983   7.032 -0.2658 -0.6718  0.7678
  144OSM    H6T15815  -0.109   5.882   6.957 -0.7441 -0.2944  0.2023
  144OSM    C7S15816  -0.184   6.077   7.025 -0.3195  0.4565  0.2775
  144OSM    H7S15817  -0.278   6.077   6.966  0.1569  0.5503 -0.4959
  144OSM    H7T15818  -0.137   6.178   7.032  0.9278 -0.1637  1.4681
  144OSM    C8S15819  -0.214   6.047   7.172 -0.3030  0.3587 -0.1430
  144OSM    H8S15820  -0.222   5.937   7.185  2.6418  0.4033  3.7355
  144OSM    H8T15821  -0.308   6.096   7.204 -0.7544 -1.5492  1.6706
  144OSM    C9S15822  -0.117   6.078   7.286  0.1220 -0.7143  0.1007
  144OSM    H9S15823  -0.091   6.186   7.290  1.1332 -0.8676 -1.4048
  144OSM    H9T15824  -0.020   6.029   7.263  0.6079 -0.1120  0.8227
  144OSM   C10S15825  -0.158   6.025   7.424  0.0214 -0.2173  0.5654
  144OSM   H10S15826  -0.174   5.915   7.420 -0.1503 -0.1847  0.3709
  144OSM   H10T15827  -0.252   6.075   7.454  1.5391  2.2844  1.5347
  144OSM   C11S15828  -0.040   6.048   7.529  0.1741  0.0927 -0.4719
  144OSM   H11S15829  -0.004   6.153   7.528  1.4535 -0.2899 -2.6685
  144OSM   H11T15830   0.047   5.986   7.497  0.3967  1.4257 -2.6123
  144OSM   C12S15831  -0.083   6.026   7.680  0.2198  0.1917  0.6747
  144OSM   H12S15832  -0.113   5.919   7.675 -0.0552  0.3277 -3.3598
  144OSM   H12T15833  -0.168   6.094   7.701  0.4484  0.1772  1.7328
  144OSM   C13S15834   0.025   6.072   7.775 -0.4811  0.3069 -0.4329
  144OSM   H13S15835   0.067   6.168   7.739  2.3693 -0.9511 -0.7284
  144OSM   H13T15836   0.113   6.005   7.766 -1.1054 -0.6389  0.3113
  144OSM   C14S15837  -0.010   6.087   7.922  0.4036 -0.0488 -0.0178
  144OSM   H14S15838   0.086   6.090   7.978  1.9582 -0.2172 -2.5210
  144OSM   H14T15839  -0.062   5.995   7.957 -0.6506  0.9855  1.2525
  144OSM   C15S15840  -0.121   6.192   7.943  0.8336 -0.2935 -0.1967
  144OSM   H15S15841  -0.215   6.167   7.890 -0.1439  2.1001  0.2948
  144OSM   H15T15842  -0.074   6.279   7.892  0.7498 -1.3637 -2.1903
  144OSM   C16S15843  -0.152   6.222   8.087  0.1877 -0.4881  0.0080
  144OSM   H16S15844  -0.186   6.327   8.098 -0.3321 -0.6125 -0.3758
  144OSM   H16T15845  -0.061   6.209   8.149 -0.5184  1.7447  1.6473
  144OSM   C17S15846  -0.251   6.127   8.158  1.6782 -0.2272  0.8173
  144OSM   H17S15847  -0.226   6.021   8.138  0.3774 -0.0965 -2.0909
  144OSM   H17T15848  -0.351   6.147   8.113  2.3864 -0.6342 -1.0514
  144OSM   C18S15849  -0.273   6.149   8.305 -0.6001  0.1146  0.4263
  144OSM   H18S15850  -0.356   6.085   8.342  0.8381 -1.7170  0.6343
  144OSM   H18T15851  -0.280   6.254   8.343  1.3407 -0.2615  2.0348
  144OSM   H18U15852  -0.186   6.107   8.360 -1.9878 -0.5048  2.2368
  144OSM    C1F15853   0.270   5.762   6.604  0.4273 -0.1688  0.0087
  144OSM     OF15854   0.362   5.829   6.560 -0.1804  0.0894 -0.2326
  144OSM    C2F15855   0.278   5.623   6.658 -0.4552  1.0844  0.5229
  144OSM    H2F15856   0.374   5.569   6.640  0.9190  1.8733  4.4948
  144OSM    H2G15857   0.201   5.571   6.597  0.5855  0.7800 -0.5777
  144OSM    C3F15858   0.231   5.613   6.811  0.0551 -0.7747  0.5676
  144OSM    H3F15859   0.241   5.504   6.826  1.1629 -0.7621 -0.0238
  144OSM    H3G15860   0.122   5.636   6.805  0.3287  0.2287 -1.4362
  144OSM    C4F15861   0.310   5.689   6.920  0.2172  0.8527 -0.2728
  144OSM    H4F15862   0.295   5.799   6.908 -0.6442  0.7391 -0.2332
  144OSM    H4G15863   0.412   5.644   6.915 -0.4369 -1.0377  1.9061
  144OSM    C5F15864   0.263   5.653   7.062  0.3699 -0.0651 -0.0341
  144OSM    H5F15865   0.290   5.545   7.063  0.1391 -0.1234 -0.1050
  144OSM    H5G15866   0.155   5.675   7.071 -0.2101 -1.3608 -2.8900
  144OSM    C6F15867   0.345   5.724   7.172 -0.1376  0.0902  0.1278
  144OSM    H6F15868   0.302   5.826   7.161 -1.9603 -0.4812  1.5170
  144OSM    H6G15869   0.455   5.718   7.153  0.0121  2.6723 -0.2026
  144OSM    C7F15870   0.300   5.679   7.309  0.2197 -0.8042  0.3070
  144OSM    H7F15871   0.325   5.574   7.336  0.2955 -1.0744 -0.7786
  144OSM    H7G15872   0.189   5.683   7.305  0.2592 -0.4832 -0.8545
  144OSM    C8F15873   0.332   5.772   7.429  0.3975  0.6327 -0.1924
  144OSM    H8F15874   0.252   5.750   7.503 -0.4790  2.3304 -0.5789
  144OSM    H8G15875   0.306   5.874   7.392  0.7419  0.4296 -1.0136
  144OSM    C9F15876   0.468   5.763   7.483  0.1824 -0.6734  0.5540
  144OSM    H9F15877   0.540   5.731   7.406  4.4759  0.8705  3.5311
  144OSM   C10F15878   0.515   5.807   7.599  0.3029  0.3262  0.2121
  144OSM   H10F15879   0.621   5.794   7.625  0.0099 -0.1844  1.1605
  144OSM   C11F15880   0.431   5.871   7.715 -0.5271  0.3189  0.4201
  144OSM   H11F15881   0.435   5.794   7.795  1.7924  0.9543  0.9833
  144OSM   H11G15882   0.325   5.900   7.698 -0.5584  0.7216  1.2583
  144OSM   C12F15883   0.500   5.997   7.772  0.7311 -0.0364  0.0615
  144OSM   H12F15884   0.494   6.089   7.709 -2.4354  2.0689  3.0265
  144OSM   H12G15885   0.608   5.974   7.788  1.4687  1.4148 -2.3063
  144OSM   C13F15886   0.437   6.044   7.908  0.2473 -0.0293 -0.6548
  144OSM   H13F15887   0.340   6.094   7.885 -0.8058 -1.3042  0.7851
  144OSM   H13G15888   0.507   6.124   7.939  0.3586 -0.0336 -0.8865
  144OSM   C14F15889   0.427   5.943   8.025 -0.3961 -0.3951  0.0132
  144OSM   H14F15890   0.524   5.890   8.014 -1.4120 -2.3994  0.1142
  144OSM   H14G15891   0.346   5.870   8.002  0.3336 -1.2526  0.1121
  144OSM   C15F15892   0.407   6.006   8.166  0.7912 -0.0414 -0.1724
  144OSM   H15F15893   0.411   5.937   8.253  1.6666  1.4237  0.9986
  144OSM   H15G15894   0.305   6.049   8.162  1.0713  0.7143  0.3902
  144OSM   C16F15895   0.508   6.115   8.206 -0.2887 -0.3069  0.2714
  144OSM   H16F15896   0.515   6.201   8.136  0.8511 -3.4506 -3.8908
  144OSM   H16G15897   0.610   6.071   8.199  0.0092  0.3245  0.5600
  144OSM   C17F15898   0.478   6.161   8.353 -0.3100 -0.1901  0.4602
  144OSM   H17F15899   0.570   6.214   8.388 -0.6947 -1.2936  3.4047
  144OSM   H17G15900   0.458   6.071   8.416 -0.5314 -1.4855 -1.3824
  144OSM   C18F15901   0.364   6.260   8.361 -1.1240  0.2034  0.4835
  144OSM   H18F15902   0.343   6.288   8.466  0.2959 -0.4919  0.9743
  144OSM   H18G15903   0.274   6.199   8.338 -0.7271 -0.2561  0.1161
  144OSM   H18H15904   0.374   6.345   8.290 -1.2012  0.5504  0.8854
  145SAPE     N15905   5.723   5.037  10.670 -0.0456  0.5941 -0.2866
  145SAPE   HN115906   5.797   5.080  10.729 -1.1972 -1.2794  2.7550
  145SAPE   HN215907   5.641   5.092  10.702 -0.4101 -2.0085  3.9669
  145SAPE   HN315908   5.708   4.936  10.690 -0.2919  0.3544 -1.6157
  145SAPE   C1215909   5.751   5.067  10.531 -0.8898  0.3108 -0.5200
  145SAPE  H12A15910   5.658   5.043  10.476 -0.4279  1.3654 -1.8212
  145SAPE  H12B15911   5.840   5.011  10.496  0.0779  0.5886  1.3751
  145SAPE   C1115912   5.782   5.215  10.528 -0.6363  0.3864  1.3142
  145SAPE  H11A15913   5.796   5.239  10.420  0.3686  0.7047  1.5026
  145SAPE  H11B15914   5.881   5.227  10.576  1.6073  0.1666 -2.7483
  145SAPE     P15915   5.709   5.455  10.573 -0.1783  0.1082 -0.0413
  145SAPE   O1315916   5.588   5.532  10.608  0.0108  0.1550  0.0567
  145SAPE   O1415917   5.835   5.495  10.645  0.3135  0.3693  0.2256
  145SAPE   O1215918   5.681   5.303  10.586  0.0344  0.4674 -0.5972
  145SAPE   O1115919   5.733   5.476  10.416  0.1339  0.5411 -0.8106
  145SAPE    C115920   5.839   5.562  10.373  0.1510 -0.1302 -0.4070
  145SAPE    HA15921   5.814   5.669  10.389 -0.4317 -0.2575 -0.4652
  145SAPE    HB15922   5.935   5.540  10.425 -0.2923 -0.8914  0.0999
  145SAPE    C215923   5.886   5.545  10.222  0.7343  0.0384  0.0611
  145SAPE    HS15924   5.961   5.620  10.188  0.2262  0.3445 -0.4094
  145SAPE   O2115925   5.774   5.543  10.132  0.5073  0.6291  0.2682
  145SAPE   C2115926   5.724   5.669  10.112 -0.1796  0.0067 -0.3780
  145SAPE   O2215927   5.790   5.766  10.150 -0.0322 -1.1900  0.0015
  145SAPE   C2215928   5.596   5.671  10.025 -0.0206 -0.8855  0.3930
  145SAPE   H2R15929   5.619   5.605   9.939 -2.0123 -0.9798 -0.1148
  145SAPE   H2S15930   5.527   5.622  10.097  1.3059 -0.4709  2.0144
  145SAPE    C315931   5.956   5.409  10.202 -1.0129  0.1731  0.8048
  145SAPE    HX15932   5.888   5.327  10.235 -1.4449 -1.2207 -3.0789
  145SAPE    HY15933   6.046   5.409  10.267  0.0002 -1.1395 -0.5514
  145SAPE   O3115934   6.002   5.384  10.064  0.4076  0.1955 -0.1979
  145SAPE   C3115935   5.914   5.313   9.986  0.5332  0.3945 -0.1330
  145SAPE   O3215936   5.807   5.261  10.028 -0.5989  0.0960 -0.4332
  145SAPE   C3215937   5.958   5.312   9.843 -0.4041 -0.5371 -0.2014
  145SAPE   H2X15938   5.884   5.257   9.781 -0.9073 -0.0956  0.0042
  145SAPE   H2Y15939   6.058   5.262   9.842  0.8682  1.8072  1.3484
  145SAPE   C2315940   5.550   5.824   9.988  0.0380  1.1767  0.3960
  145SAPE   H3R15941   5.536   5.882  10.082  0.6034 -1.7281  2.3886
  145SAPE   H3S15942   5.447   5.805   9.949  0.1968  2.3872 -0.6803
  145SAPE   C2415943   5.624   5.891   9.870  0.7036  0.7558 -0.7600
  145SAPE   H4R15944   5.566   5.984   9.854  0.4634  1.1024  1.7230
  145SAPE   H4S15945   5.617   5.818   9.786  0.8480  0.0936 -0.2076
  145SAPE   C2515946   5.760   5.933   9.892 -0.5001  0.4263 -0.0182
  145SAPE   H5R15947   5.765   5.991   9.986 -1.3003 -0.5515  0.6524
  145SAPE   C2615948   5.869   5.911   9.811  0.4529  0.0593  0.3834
  145SAPE   H6R15949   5.969   5.951   9.833  0.5029 -0.7279  1.6799
  145SAPE   C2715950   5.870   5.826   9.681 -0.4309  0.4696  0.1407
  145SAPE   H7R15951   5.819   5.728   9.695  2.1962 -1.1156 -0.7344
  145SAPE   H7S15952   5.973   5.787   9.668 -0.5562  0.6127 -1.3819
  145SAPE   C2815953   5.803   5.883   9.559 -0.1580  0.2695  0.1797
  145SAPE   H8R15954   5.731   5.962   9.585  1.2017  2.0213 -1.1108
  145SAPE   C2915955   5.835   5.861   9.430 -0.2112 -0.1848 -0.1649
  145SAPE   H9R15956   5.790   5.913   9.344 -1.0802 -1.1551 -0.3072
  145SAPE  C21015957   5.950   5.765   9.387 -0.8057  0.2750 -0.1860
  145SAPE  H10R15958   5.910   5.692   9.313 -0.0379 -1.4295  1.0053
  145SAPE  H10S15959   5.991   5.697   9.466  2.6233  0.1558 -1.9036
  145SAPE  C21115960   6.073   5.837   9.336 -0.6386 -0.3461  0.2842
  145SAPE  H11R15961   6.157   5.843   9.407 -0.0670  0.2577 -0.4243
  145SAPE  C21215962   6.094   5.888   9.213 -0.0941  0.6850 -0.4784
  145SAPE  H12R15963   6.187   5.939   9.184  0.9596 -0.1648  1.2140
  145SAPE  C21315964   5.995   5.881   9.094 -0.1102 -0.1193  1.0337
  145SAPE  H13R15965   5.895   5.840   9.121 -1.0273  1.6714  0.5250
  145SAPE  H13S15966   6.032   5.810   9.017 -1.4055 -1.3564  1.5031
  145SAPE  C21415967   5.965   6.015   9.028 -0.5139  0.3371  0.4845
  145SAPE  H14R15968   6.002   6.098   9.089 -0.6069  0.5874  0.1995
  145SAPE  C21515969   5.906   6.032   8.910 -0.7839  0.7047  0.3121
  145SAPE  H15R15970   5.908   6.133   8.868  1.6294  1.4480  1.9917
  145SAPE  C21615971   5.860   5.931   8.807 -0.2700 -0.0134  0.5712
  145SAPE  H16R15972   5.749   5.936   8.800 -0.2578  0.4123  0.6128
  145SAPE  H16S15973   5.871   5.825   8.839  1.9416 -0.2091 -0.6776
  145SAPE  C21715974   5.919   5.954   8.669 -0.7197 -0.0892  0.5791
  145SAPE  H17R15975   6.022   5.913   8.673 -0.6450  0.0004 -0.2475
  145SAPE  H17S15976   5.924   6.063   8.648  1.5135  0.0377  1.5013
  145SAPE  C21815977   5.848   5.887   8.556  0.2748  0.2901 -0.5909
  145SAPE  H18R15978   5.740   5.910   8.545 -0.2327 -1.4846  0.2976
  145SAPE  H18S15979   5.856   5.781   8.590  1.1376  0.6791  0.4863
  145SAPE  C21915980   5.905   5.902   8.418  0.4858 -0.0269  0.0822
  145SAPE  H19R15981   5.880   6.004   8.382 -0.3125  0.5428  2.0927
  145SAPE  H19S15982   5.846   5.836   8.351  1.3685 -1.3135  0.5188
  145SAPE  C22015983   6.047   5.861   8.407  0.1967 -0.6328 -0.3020
  145SAPE  H20R15984   6.076   5.811   8.312  1.8140 -1.5541  0.6262
  145SAPE  H20S15985   6.084   5.795   8.489 -0.1949  1.3798  1.5807
  145SAPE  H20T15986   6.101   5.957   8.414 -4.0863  1.9314  1.7173
  145SAPE   C3315987   5.976   5.449   9.778 -0.3760  0.7821  1.1503
  145SAPE   H3X15988   6.036   5.510   9.849  0.1044  1.6122  0.0590
  145SAPE   H3Y15989   5.880   5.503   9.759 -1.7606 -0.8434  3.0933
  145SAPE   C3415990   6.054   5.449   9.647  0.8048  0.0061  0.0688
  145SAPE   H4X15991   6.159   5.428   9.678  0.2165 -3.2707  0.2026
  145SAPE   H4Y15992   6.039   5.554   9.616  0.0090 -0.1961 -0.2569
  145SAPE   C3515993   5.990   5.353   9.543 -0.0370  0.0789  0.1734
  145SAPE   H5X15994   5.890   5.394   9.518 -0.5760 -1.5302 -0.4203
  145SAPE   H5Y15995   5.993   5.249   9.583 -0.4978  0.7684  2.1356
  145SAPE   C3615996   6.081   5.366   9.420 -0.1989 -0.1287 -0.9848
  145SAPE   H6X15997   6.184   5.330   9.438  0.1859  0.9588 -0.9195
  145SAPE   H6Y15998   6.084   5.471   9.383  2.3073 -0.2204 -1.2044
  145SAPE   C3715999   6.034   5.271   9.309 -1.0196 -0.2300  0.6859
  145SAPE   H7X16000   5.924   5.286   9.314 -0.7811  1.4408  2.3516
  145SAPE   H7Y16001   6.065   5.167   9.333  2.8002  0.8533  1.1095
  145SAPE   C3816002   6.088   5.308   9.172 -0.2152  0.6862 -0.4357
  145SAPE   H8X16003   6.198   5.314   9.190  0.0296 -0.5077 -1.4361
  145SAPE   H8Y16004   6.055   5.409   9.138  0.0609  0.7011 -0.6687
  145SAPE   C3916005   6.067   5.213   9.056  0.2449 -0.3081 -0.4990
  145SAPE   H9X16006   6.097   5.109   9.081 -0.6107 -0.4609 -0.0860
  145SAPE   H9Y16007   6.137   5.243   8.975 -1.5401  1.7729 -1.3701
  145SAPE  C31016008   5.920   5.217   9.005 -0.4232  0.2322  0.1684
  145SAPE  H10X16009   5.906   5.320   8.966  2.3891  1.2754  1.6324
  145SAPE  H10Y16010   5.849   5.217   9.091 -0.7906 -1.5804 -0.0762
  145SAPE  C31116011   5.889   5.099   8.912  0.1146 -0.0185  0.2663
  145SAPE  H11X16012   5.885   5.006   8.972  2.2965 -1.1991 -1.3195
  145SAPE  H11Y16013   5.975   5.101   8.842  0.0301  2.1817  0.1585
  145SAPE  C31216014   5.757   5.115   8.842  0.2008  0.0943 -0.7583
  145SAPE  H12X16015   5.771   5.210   8.785 -0.1921  0.9702  0.5619
  145SAPE  H12Y16016   5.669   5.120   8.910 -0.1644  2.2535 -1.2908
  145SAPE  C31316017   5.739   5.000   8.742 -0.8995  0.2726  0.1763
  145SAPE  H13X16018   5.727   4.903   8.794  0.0726  0.6956  1.2336
  145SAPE  H13Y16019   5.828   4.988   8.676 -0.5823  0.1730  0.6231
  145SAPE  C31416020   5.624   5.012   8.643 -0.3000  0.4447 -0.4760
  145SAPE  H14X16021   5.621   5.116   8.604 -0.8800  0.6978  0.2151
  145SAPE  H14Y16022   5.530   4.999   8.701  0.0539  1.0999  0.2609
  145SAPE  C31516023   5.628   4.907   8.528 -0.0042 -0.6017  0.0589
  145SAPE  H15X16024   5.665   4.815   8.578  1.2309 -0.2134 -0.0936
  145SAPE  H15Y16025   5.713   4.931   8.461 -1.0516 -1.0770 -1.4693
  145SAPE  C31616026   5.505   4.901   8.434 -0.6963  0.6583 -0.4619
  145SAPE  H16X16027   5.542   4.920   8.331 -2.1618 -0.0863 -1.1571
  145SAPE  H16Y16028   5.418   4.963   8.464 -1.2794 -0.7987  0.9505
  145SAPE  C31716029   5.454   4.755   8.445 -0.1384 -0.4553  0.3898
  145SAPE  H17X16030   5.539   4.684   8.453 -1.4661 -2.5849 -2.4245
  145SAPE  H17Y16031   5.407   4.744   8.345  2.2205  1.2102 -1.0139
  145SAPE  C31816032   5.368   4.701   8.550  0.0949  0.3432 -0.9519
  145SAPE  H18X16033   5.258   4.715   8.545 -0.1131  1.1098  2.9380
  145SAPE  H18Y16034   5.393   4.744   8.649 -0.5912 -0.0340 -0.6069
  145SAPE  H18Z16035   5.389   4.592   8.551  0.1580  0.3549  0.1955
  146SAPE     N16036   3.509   5.410  10.897  0.6163 -0.1878 -0.1430
  146SAPE   HN116037   3.586   5.470  10.931  1.9304 -1.0668 -1.4690
  146SAPE   HN216038   3.453   5.479  10.843 -0.8340 -0.1173  1.3792
  146SAPE   HN316039   3.444   5.382  10.974  2.0426  0.7343  1.4572
  146SAPE   C1216040   3.565   5.306  10.811 -0.2833 -0.0539  0.1725
  146SAPE  H12A16041   3.486   5.263  10.745 -0.1300 -1.7967  1.0699
  146SAPE  H12B16042   3.620   5.231  10.872  0.1335 -0.6582 -0.9075
  146SAPE   C1116043   3.662   5.368  10.709 -0.0969 -0.2609 -0.3105
  146SAPE  H11A16044   3.611   5.455  10.664  0.2583  0.4846  0.6860
  146SAPE  H11B16045   3.689   5.300  10.626  0.9442  1.4000 -1.3812
  146SAPE     P16046   3.819   5.560  10.787  0.5555 -0.3514 -0.2068
  146SAPE   O1316047   3.714   5.626  10.864 -0.0860 -0.3460  0.2079
  146SAPE   O1416048   3.955   5.572  10.841  0.3658  0.4502  0.1288
  146SAPE   O1216049   3.773   5.409  10.783  0.5471  0.2109 -0.5326
  146SAPE   O1116050   3.821   5.602  10.637 -0.2676 -0.4987 -0.4019
  146SAPE    C116051   3.855   5.733  10.605  0.3596 -0.2322 -0.6423
  146SAPE    HA16052   3.828   5.797  10.692 -0.1887 -2.0591  0.5979
  146SAPE    HB16053   3.961   5.739  10.574  0.1893  0.0005 -1.1993
  146SAPE    C216054   3.770   5.772  10.480 -0.1425  0.3762  0.1129
  146SAPE    HS16055   3.831   5.856  10.440  2.0654 -0.7426  0.9933
  146SAPE   O2116056   3.634   5.802  10.510  0.2145 -0.0408  0.4298
  146SAPE   C2116057   3.613   5.932  10.535 -0.9300  0.0088  0.8383
  146SAPE   O2216058   3.690   6.027  10.524 -0.0612  0.2175 -0.2164
  146SAPE   C2216059   3.480   5.955  10.598  0.6756 -0.0153 -0.4569
  146SAPE   H2R16060   3.421   5.864  10.578  1.2263 -0.3748 -0.4658
  146SAPE   H2S16061   3.490   5.961  10.709  0.6330  1.4890 -0.5073
  146SAPE    C316062   3.776   5.662  10.377  0.5414  0.2806 -0.8497
  146SAPE    HX16063   3.718   5.572  10.406  0.1490  0.9296  0.4461
  146SAPE    HY16064   3.880   5.623  10.382 -0.2658 -1.7571  2.3308
  146SAPE   O3116065   3.726   5.712  10.245 -0.0106 -0.5727  0.1818
  146SAPE   C3116066   3.822   5.768  10.176 -0.2764  0.0944 -0.3208
  146SAPE   O3216067   3.937   5.776  10.216 -0.4163 -0.1188 -0.4021
  146SAPE   C3216068   3.772   5.825  10.042  0.3016 -0.1811 -1.1662
  146SAPE   H2X16069   3.721   5.922  10.059  1.7504  0.3470  0.5489
  146SAPE   H2Y16070   3.690   5.759  10.006 -1.0854  0.4667  0.6412
  146SAPE   C2316071   3.400   6.071  10.525 -0.4385  0.3051  0.4600
  146SAPE   H3R16072   3.459   6.162  10.503 -0.5563  0.7893  2.0665
  146SAPE   H3S16073   3.310   6.104  10.582 -1.1342  0.8461 -0.8805
  146SAPE   C2416074   3.330   6.030  10.395  0.5295 -0.0129 -0.3215
  146SAPE   H4R16075   3.289   6.122  10.349 -2.4252 -0.3526  1.3430
  146SAPE   H4S16076   3.254   5.958  10.434  0.2629 -0.5124 -1.6966
  146SAPE   C2516077   3.415   5.945  10.304 -0.4950 -0.0416 -0.5068
  146SAPE   H5R16078   3.412   5.837  10.327 -0.1757 -0.2991 -1.6400
  146SAPE   C2616079   3.470   5.986  10.189 -0.7299  0.6288  0.1327
  146SAPE   H6R16080   3.521   5.907  10.132 -4.5597 -0.8054 -1.5728
  146SAPE   C2716081   3.484   6.123  10.120 -0.0404 -0.3801  0.3680
  146SAPE   H7R16082   3.584   6.143  10.077  0.1207 -0.3482  0.7610
  146SAPE   H7S16083   3.473   6.198  10.201  1.4087 -0.0012  0.2458
  146SAPE   C2816084   3.379   6.154  10.009 -0.2453 -0.3664 -0.2196
  146SAPE   H8R16085   3.282   6.186  10.051  0.1972  0.7809 -0.0450
  146SAPE   C2916086   3.402   6.143   9.877 -0.2821  0.2344  0.4478
  146SAPE   H9R16087   3.323   6.175   9.807 -0.5161  0.4309  0.8002
  146SAPE  C21016088   3.527   6.096   9.811 -0.0031 -0.1614 -0.2039
  146SAPE  H10R16089   3.609   6.114   9.884 -1.7961 -0.7579  2.0362
  146SAPE  H10S16090   3.557   6.140   9.713 -3.1753  1.7427 -0.4550
  146SAPE  C21116091   3.511   5.943   9.790 -0.2553 -0.6071  0.1891
  146SAPE  H11R16092   3.536   5.893   9.885 -0.0843  3.7269  2.7062
  146SAPE  C21216093   3.490   5.877   9.670 -0.0881 -0.3579  0.6476
  146SAPE  H12R16094   3.481   5.767   9.671  0.8676 -0.4556  2.2164
  146SAPE  C21316095   3.473   5.939   9.535 -0.4660 -0.0331  0.7488
  146SAPE  H13R16096   3.438   6.042   9.557 -0.9870 -0.0471  0.0208
  146SAPE  H13S16097   3.399   5.895   9.466 -0.3470  1.0020 -0.0713
  146SAPE  C21416098   3.602   5.961   9.455 -0.1847 -0.1239  0.5977
  146SAPE  H14R16099   3.682   5.893   9.485 -1.0486 -0.4739  2.2360
  146SAPE  C21516100   3.608   6.034   9.339  0.3229  0.0120  0.0814
  146SAPE  H15R16101   3.705   6.056   9.292  0.1747 -0.1775 -0.3141
  146SAPE  C21616102   3.492   6.110   9.283  0.6778 -0.2739  0.3793
  146SAPE  H16R16103   3.529   6.204   9.236  0.6400 -1.2316 -1.7160
  146SAPE  H16S16104   3.414   6.138   9.356  0.2788 -0.8113  0.1656
  146SAPE  C21716105   3.422   6.028   9.175  0.0301  0.1132  0.0196
  146SAPE  H17R16106   3.358   5.957   9.232 -1.9778 -0.5438 -2.8285
  146SAPE  H17S16107   3.490   5.960   9.119  0.2574  0.5824 -0.2786
  146SAPE  C21816108   3.355   6.119   9.071  0.7862  0.3280  0.3328
  146SAPE  H18R16109   3.428   6.196   9.039  1.1188  0.7883  2.1320
  146SAPE  H18S16110   3.282   6.186   9.121  0.4649 -0.7720  1.3637
  146SAPE  C21916111   3.320   6.059   8.937 -0.4390 -0.3408  0.5230
  146SAPE  H19R16112   3.412   6.009   8.900 -1.0626 -0.8986 -0.3073
  146SAPE  H19S16113   3.308   6.134   8.856  1.3790 -2.7256 -2.1593
  146SAPE  C22016114   3.192   5.972   8.931  0.2975  0.0170 -0.3227
  146SAPE  H20R16115   3.204   5.875   8.984  0.1915  0.1528 -0.0483
  146SAPE  H20S16116   3.160   5.957   8.826  0.0019 -0.5598 -0.1530
  146SAPE  H20T16117   3.107   6.018   8.986  1.5512  0.8257  1.0123
  146SAPE   C3316118   3.888   5.828   9.941  0.3654  0.3818 -0.4642
  146SAPE   H3X16119   3.961   5.749   9.968 -0.3772 -0.1778 -0.0448
  146SAPE   H3Y16120   3.944   5.923   9.953 -1.0536  1.0456  1.3289
  146SAPE   C3416121   3.840   5.799   9.791 -0.0686 -0.2215 -0.2060
  146SAPE   H4X16122   3.782   5.885   9.752 -1.2101 -1.9299 -2.5028
  146SAPE   H4Y16123   3.786   5.702   9.796  1.8540 -1.3528 -0.5587
  146SAPE   C3516124   3.974   5.785   9.716  0.8380 -0.0736  0.3884
  146SAPE   H5X16125   4.016   5.689   9.752  1.5664  0.2201  0.3443
  146SAPE   H5Y16126   4.046   5.869   9.727 -0.2890  0.6932  2.4959
  146SAPE   C3616127   3.945   5.787   9.564 -0.4579 -0.4847 -0.8051
  146SAPE   H6X16128   3.913   5.889   9.534  1.7758  0.1401 -1.2794
  146SAPE   H6Y16129   3.856   5.727   9.538 -1.4051 -0.0197  1.1569
  146SAPE   C3716130   4.070   5.765   9.474  0.3742  0.2344 -0.0764
  146SAPE   H7X16131   4.126   5.675   9.507 -1.2744 -0.0967  2.0424
  146SAPE   H7Y16132   4.136   5.854   9.473  2.4236 -1.1891 -1.1536
  146SAPE   C3816133   4.036   5.731   9.325  0.4440 -0.2602 -0.2199
  146SAPE   H8X16134   3.986   5.631   9.328  1.0112 -0.5225  0.9925
  146SAPE   H8Y16135   4.129   5.708   9.268 -0.7514 -0.8050 -2.0522
  146SAPE   C3916136   3.952   5.842   9.263 -0.1705  0.6311 -0.0421
  146SAPE   H9X16137   4.004   5.931   9.304 -0.3186  0.5618  0.2958
  146SAPE   H9Y16138   3.848   5.830   9.301 -0.9588  0.7133 -2.0635
  146SAPE  C31016139   3.949   5.845   9.103 -0.3379 -0.6668 -0.5665
  146SAPE  H10X16140   3.879   5.929   9.081 -0.1444  0.0912  1.5221
  146SAPE  H10Y16141   3.905   5.750   9.065  0.4543 -0.2206 -2.7621
  146SAPE  C31116142   4.092   5.877   9.049 -0.2247  0.2795  0.4735
  146SAPE  H11X16143   4.160   5.801   9.091 -0.9675 -0.9899 -0.5463
  146SAPE  H11Y16144   4.118   5.983   9.070 -4.7621  2.0677 -1.4296
  146SAPE  C31216145   4.106   5.857   8.897 -0.1623  0.0876  0.1651
  146SAPE  H12X16146   4.049   5.932   8.840  0.5756  0.2862 -0.3260
  146SAPE  H12Y16147   4.082   5.755   8.860 -0.0952  0.3785 -0.7015
  146SAPE  C31316148   4.259   5.879   8.858 -0.1601 -0.2095 -0.7827
  146SAPE  H13X16149   4.317   5.831   8.939 -1.5401 -0.9248 -0.1958
  146SAPE  H13Y16150   4.278   5.989   8.864 -0.0281  0.0259 -3.8270
  146SAPE  C31416151   4.299   5.819   8.724  0.4527 -0.3184 -0.8841
  146SAPE  H14X16152   4.270   5.712   8.736  0.2861  0.0391  2.8041
  146SAPE  H14Y16153   4.410   5.824   8.722  0.4525  1.3915  0.8468
  146SAPE  C31516154   4.227   5.884   8.607  0.0995  0.4106 -0.7680
  146SAPE  H15X16155   4.171   5.967   8.655  1.0757  0.4457  0.3749
  146SAPE  H15Y16156   4.144   5.821   8.568 -1.0024 -1.1148  3.4441
  146SAPE  C31616157   4.316   5.951   8.512 -0.3871  0.1532  0.1734
  146SAPE  H16X16158   4.366   5.877   8.446 -0.1193  0.6623 -0.1983
  146SAPE  H16Y16159   4.393   6.003   8.574 -1.5466  1.6908  0.3777
  146SAPE  C31716160   4.253   6.062   8.421  0.2952  0.0511  0.4658
  146SAPE  H17X16161   4.324   6.127   8.365 -0.5177  0.2937 -0.2886
  146SAPE  H17Y16162   4.196   6.115   8.500 -0.0620 -1.1702  1.0552
  146SAPE  C31816163   4.149   6.014   8.315  0.0061 -0.1341 -0.4742
  146SAPE  H18X16164   4.154   6.086   8.230 -0.4893  0.4684 -0.0055
  146SAPE  H18Y16165   4.050   6.019   8.366  0.0207  1.1855 -0.5276
  146SAPE  H18Z16166   4.165   5.911   8.276 -1.8332 -0.3779 -0.6975
  147SAPE     N16167   6.365   0.674  10.757  0.6609  0.1170  0.3942
  147SAPE   HN116168   6.364   0.601  10.831  2.8960 -0.7540 -0.3269
  147SAPE   HN216169   6.423   0.624  10.686  0.9293  1.1858 -0.1672
  147SAPE   HN316170   6.425   0.745  10.804  1.1473 -1.2734  1.9686
  147SAPE   C1216171   6.225   0.710  10.723  0.1100 -0.0703  0.6912
  147SAPE  H12A16172   6.164   0.618  10.722  0.6167 -0.4125 -0.1565
  147SAPE  H12B16173   6.236   0.753  10.620  2.3356 -0.5701  0.6681
  147SAPE   C1116174   6.168   0.801  10.832  0.2778  0.4462  0.0309
  147SAPE  H11A16175   6.170   0.747  10.928 -2.5940  1.8330  0.9880
  147SAPE  H11B16176   6.060   0.822  10.825 -0.7402 -2.6437  3.4306
  147SAPE     P16177   6.177   1.061  10.875 -0.6330  0.1703 -0.2661
  147SAPE   O1316178   6.073   1.102  10.783  0.2868 -0.1877 -0.3895
  147SAPE   O1416179   6.152   1.071  11.025  0.0913 -0.0063 -0.3168
  147SAPE   O1216180   6.241   0.922  10.845  0.1877  0.3146  0.4046
  147SAPE   O1116181   6.310   1.157  10.853 -0.0307 -0.1119  0.3435
  147SAPE    C116182   6.370   1.159  10.720  0.0773 -0.0336 -0.5545
  147SAPE    HA16183   6.480   1.162  10.735  0.2580 -0.5800 -1.6564
  147SAPE    HB16184   6.361   1.069  10.656  3.5396 -0.1496 -1.0471
  147SAPE    C216185   6.338   1.289  10.635 -0.2981 -0.0948 -0.0849
  147SAPE    HS16186   6.329   1.371  10.709  1.2008  0.4539 -0.4773
  147SAPE   O2116187   6.211   1.274  10.556 -0.8988 -0.2007 -0.0605
  147SAPE   C2116188   6.113   1.366  10.586 -1.0466  0.3324 -0.1369
  147SAPE   O2216189   6.133   1.470  10.642 -0.0663 -0.2237  0.1204
  147SAPE   C2216190   5.987   1.327  10.521  0.0135  0.4783  0.5340
  147SAPE   H2R16191   6.002   1.233  10.463  0.3235 -0.3409  1.8984
  147SAPE   H2S16192   5.922   1.294  10.604 -0.7147 -0.0231 -0.2187
  147SAPE    C316193   6.453   1.333  10.534 -1.1060 -0.1539 -0.4077
  147SAPE    HX16194   6.547   1.319  10.591 -1.7657  3.8566  2.0701
  147SAPE    HY16195   6.436   1.443  10.533 -0.4752  0.0591  2.4738
  147SAPE   O3116196   6.457   1.272  10.405 -0.4479  0.7765  0.6413
  147SAPE   C3116197   6.403   1.325  10.298  0.5694  0.1639 -0.6937
  147SAPE   O3216198   6.365   1.439  10.294  0.1995  0.4542 -0.6380
  147SAPE   C3216199   6.425   1.230  10.181  0.2728  0.6687 -0.2182
  147SAPE   H2X16200   6.393   1.126  10.205  0.2871  0.3342 -1.5770
  147SAPE   H2Y16201   6.532   1.219  10.152  1.0349  1.8495  1.8902
  147SAPE   C2316202   5.917   1.445  10.447  0.3749 -0.0177 -0.1397
  147SAPE   H3R16203   5.905   1.529  10.518  0.3768  1.3477 -1.6811
  147SAPE   H3S16204   5.814   1.410  10.423 -0.5003  2.2570  0.1103
  147SAPE   C2416205   6.009   1.493  10.325  0.7129  0.4787 -0.6684
  147SAPE   H4R16206   6.033   1.404  10.263  1.3760 -0.9354  1.5187
  147SAPE   H4S16207   6.110   1.518  10.364  0.4110 -0.0001  0.4807
  147SAPE   C2516208   5.941   1.608  10.246  0.0187  0.0505 -0.2113
  147SAPE   H5R16209   5.878   1.671  10.311  1.4296  1.2109  0.0847
  147SAPE   C2616210   5.945   1.643  10.113  0.4920 -0.1017  0.1514
  147SAPE   H6R16211   5.892   1.734  10.081 -2.4422 -1.4790  0.7970
  147SAPE   C2716212   6.036   1.567  10.014  0.4228 -0.4365 -0.2756
  147SAPE   H7R16213   5.980   1.551   9.919  1.4128 -0.3594 -0.8878
  147SAPE   H7S16214   6.047   1.462  10.048  1.9312 -0.1484  0.1674
  147SAPE   C2816215   6.176   1.626   9.989  0.7028  0.6058 -0.0235
  147SAPE   H8R16216   6.246   1.626  10.074 -0.3953  0.0181  0.9044
  147SAPE   C2916217   6.224   1.690   9.880  0.3576  0.8632 -0.1279
  147SAPE   H9R16218   6.328   1.725   9.879  0.8906 -0.6593 -0.8386
  147SAPE  C21016219   6.148   1.718   9.747  0.6906  0.4091 -0.4731
  147SAPE  H10R16220   6.185   1.811   9.700  2.1124 -0.2497 -0.7131
  147SAPE  H10S16221   6.045   1.731   9.787  0.9873 -0.4543  0.6408
  147SAPE  C21116222   6.149   1.595   9.660  0.0273  0.3643 -0.3574
  147SAPE  H11R16223   6.147   1.494   9.703 -2.0909  1.4233  2.3234
  147SAPE  C21216224   6.145   1.612   9.524 -0.4030 -0.2466  0.4506
  147SAPE  H12R16225   6.153   1.520   9.465 -1.6522  0.2642 -0.5430
  147SAPE  C21316226   6.132   1.738   9.443 -1.1418  0.3193 -0.0168
  147SAPE  H13R16227   6.222   1.803   9.442 -1.4013  0.6907 -1.0564
  147SAPE  H13S16228   6.051   1.794   9.493 -1.1353  0.8131 -0.5491
  147SAPE  C21416229   6.086   1.713   9.300 -0.0402  0.5038 -0.9303
  147SAPE  H14R16230   5.994   1.762   9.264  0.1492 -0.3161 -2.6193
  147SAPE  C21516231   6.168   1.676   9.199  0.1777  0.2318 -0.6531
  147SAPE  H15R16232   6.125   1.668   9.098 -1.3860 -0.7329  0.0549
  147SAPE  C21616233   6.312   1.627   9.210  0.2602 -0.2693 -0.5216
  147SAPE  H16R16234   6.315   1.523   9.169 -0.0477 -0.5446  0.1443
  147SAPE  H16S16235   6.356   1.633   9.311  2.2692  0.5849 -1.3978
  147SAPE  C21716236   6.394   1.716   9.111  0.0528 -0.3664  1.1201
  147SAPE  H17R16237   6.350   1.702   9.010  0.9185  0.4689  0.6161
  147SAPE  H17S16238   6.501   1.685   9.102 -0.6297 -3.3328  1.8923
  147SAPE  C21816239   6.396   1.866   9.147 -0.1584  0.3528  0.5136
  147SAPE  H18R16240   6.431   1.875   9.252  1.1291 -1.9194  0.3382
  147SAPE  H18S16241   6.294   1.907   9.132  0.1605  0.4149 -1.7861
  147SAPE  C21916242   6.481   1.948   9.042  0.0866 -0.1994  0.7051
  147SAPE  H19R16243   6.584   1.908   9.055 -0.2836 -1.3035  0.3348
  147SAPE  H19S16244   6.493   2.058   9.055  1.2007 -0.0524 -1.2513
  147SAPE  C22016245   6.457   1.919   8.899 -0.4585 -0.1681  0.2720
  147SAPE  H20R16246   6.466   1.811   8.874 -1.3969 -0.1384 -0.2339
  147SAPE  H20S16247   6.521   1.977   8.829 -1.9144 -0.2667 -1.1914
  147SAPE  H20T16248   6.350   1.939   8.879 -0.8940 -1.1480  1.5137
  147SAPE   C3316249   6.330   1.276  10.064 -0.7452 -0.0883  0.7378
  147SAPE   H3X16250   6.327   1.386  10.053  0.3918 -0.0462  0.7511
  147SAPE   H3Y16251   6.227   1.239  10.082 -1.4516  1.1664 -0.5154
  147SAPE   C3416252   6.365   1.218   9.930 -0.0229 -0.0560 -0.2891
  147SAPE   H4X16253   6.352   1.108   9.929  3.5485 -0.6171 -1.5581
  147SAPE   H4Y16254   6.476   1.231   9.925  0.1176 -1.2042 -0.2558
  147SAPE   C3516255   6.293   1.283   9.814 -0.4248 -0.4756  0.4958
  147SAPE   H5X16256   6.319   1.391   9.820  0.9832 -0.6169 -1.8237
  147SAPE   H5Y16257   6.182   1.278   9.815 -0.6067 -1.2840 -3.9298
  147SAPE   C3616258   6.337   1.224   9.680 -0.5811 -0.2041  0.5537
  147SAPE   H6X16259   6.289   1.124   9.681 -1.7265  0.3339  0.6104
  147SAPE   H6Y16260   6.448   1.219   9.684 -0.3549  1.4709 -1.4991
  147SAPE   C3716261   6.297   1.284   9.552 -0.2026  0.5002 -0.4846
  147SAPE   H7X16262   6.347   1.382   9.538 -1.6714  1.1935 -1.1762
  147SAPE   H7Y16263   6.187   1.301   9.558 -0.2296 -0.3213  3.3592
  147SAPE   C3816264   6.314   1.184   9.434 -0.4227 -0.4953 -0.1652
  147SAPE   H8X16265   6.252   1.095   9.459 -1.1217 -0.2012 -0.8248
  147SAPE   H8Y16266   6.420   1.150   9.429 -0.6157 -2.2501  3.6408
  147SAPE   C3916267   6.254   1.234   9.296 -0.5746  0.3481 -0.2704
  147SAPE   H9X16268   6.313   1.327   9.278  0.6267  0.3492  3.0322
  147SAPE   H9Y16269   6.148   1.265   9.303 -0.5729  0.2014  0.4455
  147SAPE  C31016270   6.260   1.133   9.181  0.2111  0.2692  0.3242
  147SAPE  H10X16271   6.239   1.032   9.222 -0.3744  0.3917  0.3401
  147SAPE  H10Y16272   6.359   1.134   9.131  1.3042  0.9732  2.4043
  147SAPE  C31116273   6.153   1.168   9.074 -0.3496 -0.2944 -0.1196
  147SAPE  H11X16274   6.058   1.174   9.132 -0.6831 -0.5048 -0.6435
  147SAPE  H11Y16275   6.149   1.093   8.993  2.7996  0.5261 -1.1669
  147SAPE  C31216276   6.195   1.295   8.999  0.2200 -0.2212 -0.8208
  147SAPE  H12X16277   6.263   1.266   8.916  1.4205 -1.2093  0.4474
  147SAPE  H12Y16278   6.252   1.360   9.069 -2.7841  0.2755  1.3935
  147SAPE  C31316279   6.073   1.370   8.939 -0.0262  0.5261  0.6528
  147SAPE  H13X16280   6.013   1.413   9.021  1.8458  1.7332  1.4512
  147SAPE  H13Y16281   6.022   1.292   8.879  1.2797 -1.5905  2.1652
  147SAPE  C31416282   6.126   1.480   8.844  0.5918  0.6967 -0.0792
  147SAPE  H14X16283   6.195   1.430   8.773  0.6054 -0.3157  0.6281
  147SAPE  H14Y16284   6.185   1.559   8.894  1.0342  2.6163 -3.3460
  147SAPE  C31516285   6.022   1.553   8.768  0.9102 -0.6804  0.3389
  147SAPE  H15X16286   5.968   1.627   8.832 -0.9787 -1.0181 -0.7913
  147SAPE  H15Y16287   5.945   1.487   8.723 -0.6836  0.7615  0.8328
  147SAPE  C31616288   6.077   1.636   8.651 -0.4818 -0.9698  0.4970
  147SAPE  H16X16289   6.172   1.585   8.625 -0.0856 -0.9311  1.8068
  147SAPE  H16Y16290   6.101   1.734   8.696 -1.2286 -0.3928 -0.3169
  147SAPE  C31716291   5.990   1.656   8.525  0.0273 -0.6080 -0.3372
  147SAPE  H17X16292   5.903   1.721   8.549  0.4771 -0.5236  1.1372
  147SAPE  H17Y16293   5.947   1.563   8.481 -0.9239  0.3377 -1.4796
  147SAPE  C31816294   6.067   1.738   8.415  0.0906 -0.4646 -0.2570
  147SAPE  H18X16295   6.006   1.760   8.325  1.3741  1.1630 -0.7838
  147SAPE  H18Y16296   6.162   1.688   8.389  1.1084  0.7680  0.9557
  147SAPE  H18Z16297   6.102   1.837   8.452  1.5572 -0.1851 -2.2173
  148SAPE     N16298   0.008   3.932  10.697 -0.3008 -0.7045  0.2709
  148SAPE   HN116299  -0.094   3.947  10.700 -0.3231 -0.3691 -1.3096
  148SAPE   HN216300   0.056   3.978  10.777  0.8949  1.4645 -1.5705
  148SAPE   HN316301   0.052   3.980  10.615 -0.1016 -0.0694  0.7418
  148SAPE   C1216302   0.047   3.791  10.671 -0.6127 -0.6014  0.0000
  148SAPE  H12A16303   0.011   3.740  10.763  0.6059  0.5404  1.1610
  148SAPE  H12B16304   0.158   3.778  10.664 -0.9698 -3.5572 -1.9351
  148SAPE   C1116305  -0.027   3.741  10.545 -0.3495 -0.5828  0.1089
  148SAPE  H11A16306  -0.004   3.633  10.537 -1.8392 -0.9300  0.2580
  148SAPE  H11B16307   0.015   3.795  10.457 -1.9313 -0.0635 -0.3653
  148SAPE     P16308  -0.285   3.668  10.605 -0.4130  0.1212  0.0442
  148SAPE   O1316309  -0.274   3.690  10.749  0.1559 -0.2318  0.4627
  148SAPE   O1416310  -0.415   3.689  10.541  0.3059 -0.0585  0.3146
  148SAPE   O1216311  -0.168   3.770  10.548 -0.4201  0.3798 -0.0066
  148SAPE   O1116312  -0.223   3.529  10.573 -0.4555  0.0997  0.0546
  148SAPE    C116313  -0.231   3.468  10.444 -0.5199  0.2933 -0.2585
  148SAPE    HA16314  -0.260   3.540  10.365 -0.7226  0.5824  0.0773
  148SAPE    HB16315  -0.131   3.428  10.417  0.4992  1.6493  1.2766
  148SAPE    C216316  -0.331   3.350  10.426  0.2403  0.6944 -0.2108
  148SAPE    HS16317  -0.309   3.304  10.327  0.8680 -0.3851  0.4194
  148SAPE   O2116318  -0.464   3.401  10.425 -0.1823  0.4156 -0.8333
  148SAPE   C2116319  -0.522   3.417  10.302 -0.2499  0.4795  0.0414
  148SAPE   O2216320  -0.467   3.386  10.196 -0.3119  0.1563 -0.2124
  148SAPE   C2216321  -0.656   3.487  10.321 -0.7399  0.1901  0.5080
  148SAPE   H2R16322  -0.724   3.431  10.389 -1.4624  0.2012 -0.1924
  148SAPE   H2S16323  -0.633   3.584  10.371 -0.8500  0.9804 -0.9329
  148SAPE    C316324  -0.299   3.240  10.532 -0.1819  0.4507  0.8260
  148SAPE    HX16325  -0.330   3.265  10.636 -1.3180 -1.2162  0.9190
  148SAPE    HY16326  -0.188   3.228  10.533 -0.2451 -0.4759  2.7513
  148SAPE   O3116327  -0.367   3.117  10.486  0.9904 -0.0944  0.5311
  148SAPE   C3116328  -0.453   3.046  10.563  0.4374  0.0159 -0.2030
  148SAPE   O3216329  -0.466   3.059  10.681 -0.4641  0.2778 -0.4649
  148SAPE   C3216330  -0.541   2.946  10.479 -0.0181 -0.5635  0.6019
  148SAPE   H2X16331  -0.649   2.970  10.494 -0.1092  0.3406 -1.2626
  148SAPE   H2Y16332  -0.530   2.849  10.532  0.5035 -0.0696  1.4065
  148SAPE   C2316333  -0.729   3.511  10.188  0.4605  0.9125  0.0907
  148SAPE   H3R16334  -0.831   3.539  10.221  0.9845  0.1169  2.6607
  148SAPE   H3S16335  -0.744   3.411  10.142 -2.1197  0.8548  0.8791
  148SAPE   C2416336  -0.678   3.618  10.101  0.2108 -0.3391  0.1207
  148SAPE   H4R16337  -0.586   3.589  10.046 -1.1441  1.4053 -3.3469
  148SAPE   H4S16338  -0.657   3.712  10.157  2.9407 -0.4952 -0.4790
  148SAPE   C2516339  -0.780   3.656  10.000  0.2799 -0.1274  0.0313
  148SAPE   H5R16340  -0.868   3.707  10.040  0.0243 -1.0459  0.6905
  148SAPE   C2616341  -0.779   3.623   9.865 -0.2571 -0.4492  0.5187
  148SAPE   H6R16342  -0.853   3.671   9.799  0.7925  2.3390  1.2016
  148SAPE   C2716343  -0.671   3.550   9.798 -0.4164 -0.0465 -1.0797
  148SAPE   H7R16344  -0.598   3.497   9.863 -0.2715  0.8563 -0.4915
  148SAPE   H7S16345  -0.612   3.626   9.742 -0.6433 -0.5072 -1.9563
  148SAPE   C2816346  -0.720   3.456   9.693 -0.7754 -0.2027  0.2108
  148SAPE   H8R16347  -0.779   3.368   9.723  0.9442 -1.5101 -0.0753
  148SAPE   C2916348  -0.690   3.459   9.564  0.2002  0.2401  0.6557
  148SAPE   H9R16349  -0.749   3.389   9.503 -1.2309  1.3622  0.6848
  148SAPE  C21016350  -0.603   3.555   9.492 -0.7048  0.4470  0.2272
  148SAPE  H10R16351  -0.510   3.499   9.468 -0.5523  0.0023  1.7590
  148SAPE  H10S16352  -0.578   3.639   9.560 -3.1176 -0.3586  2.2619
  148SAPE  C21116353  -0.655   3.620   9.364  0.1993  0.2940  0.2098
  148SAPE  H11R16354  -0.757   3.661   9.359  0.3415  0.5356 -0.9700
  148SAPE  C21216355  -0.586   3.651   9.252 -0.1739  0.1220 -0.1087
  148SAPE  H12R16356  -0.648   3.685   9.167 -1.1505  1.5049  1.1069
  148SAPE  C21316357  -0.445   3.619   9.224  0.7977  0.7061 -0.0751
  148SAPE  H13R16358  -0.437   3.523   9.168 -1.6391 -0.4147  1.3404
  148SAPE  H13S16359  -0.399   3.616   9.325 -1.8500  0.9835  1.2338
  148SAPE  C21416360  -0.381   3.732   9.154  0.3162  0.0519 -0.3821
  148SAPE  H14R16361  -0.393   3.828   9.205  4.4266  0.2636  0.5689
  148SAPE  C21516362  -0.318   3.736   9.036 -0.5212  0.2400  0.4357
  148SAPE  H15R16363  -0.268   3.828   9.003  0.9212 -0.6021  0.1367
  148SAPE  C21616364  -0.289   3.614   8.941  0.1832 -0.0739 -0.1606
  148SAPE  H16R16365  -0.240   3.528   8.993 -0.6233  0.8327  2.2637
  148SAPE  H16S16366  -0.209   3.649   8.873 -0.0046  0.3732 -0.1572
  148SAPE  C21716367  -0.407   3.565   8.854 -0.6013 -0.1648 -0.2658
  148SAPE  H17R16368  -0.472   3.501   8.918 -0.3254 -1.0890 -0.8965
  148SAPE  H17S16369  -0.359   3.494   8.783 -1.7149  0.3759 -1.5943
  148SAPE  C21816370  -0.471   3.675   8.779 -0.1878 -0.2885 -0.4247
  148SAPE  H18R16371  -0.396   3.737   8.726 -0.4401  1.1359  0.8376
  148SAPE  H18S16372  -0.539   3.733   8.845 -1.1749 -1.7504 -0.1000
  148SAPE  C21916373  -0.572   3.613   8.686  0.2239 -0.0140  0.4078
  148SAPE  H19R16374  -0.643   3.557   8.750 -1.0940 -0.5429 -1.4439
  148SAPE  H19S16375  -0.515   3.554   8.611  1.0687 -1.6221  2.2296
  148SAPE  C22016376  -0.665   3.713   8.616  0.3040 -0.2264 -0.9580
  148SAPE  H20R16377  -0.707   3.660   8.528 -1.0916  2.5639 -2.0825
  148SAPE  H20S16378  -0.610   3.805   8.588 -0.2986 -0.1821 -2.0422
  148SAPE  H20T16379  -0.749   3.730   8.686  1.4308  0.7751  0.1905
  148SAPE   C3316380  -0.502   2.913  10.339  0.3576  0.7809  0.4668
  148SAPE   H3X16381  -0.529   2.813  10.299  0.4024  0.8522  0.2611
  148SAPE   H3Y16382  -0.392   2.913  10.324  0.2061  1.0523 -0.7122
  148SAPE   C3416383  -0.564   3.008  10.238  0.2897 -0.3960  0.4377
  148SAPE   H4X16384  -0.544   3.104  10.290 -1.9423 -0.4189  1.4363
  148SAPE   H4Y16385  -0.675   3.009  10.229  0.2790 -0.0174  0.6145
  148SAPE   C3516386  -0.496   3.023  10.102  0.8366  0.2138  0.3935
  148SAPE   H5X16387  -0.488   2.925  10.050  1.3632 -0.2696  1.3623
  148SAPE   H5Y16388  -0.395   3.066  10.115  0.7555  0.9305 -1.1021
  148SAPE   C3616389  -0.577   3.117  10.001  0.3178  0.0110  0.4792
  148SAPE   H6X16390  -0.563   3.219  10.044 -1.1155  0.5847 -0.3556
  148SAPE   H6Y16391  -0.685   3.089   9.994  0.5551 -0.7767 -0.1687
  148SAPE   C3716392  -0.537   3.130   9.855 -1.3408 -0.7778  1.2544
  148SAPE   H7X16393  -0.437   3.176   9.863 -1.0569 -1.3871  1.2335
  148SAPE   H7Y16394  -0.601   3.205   9.804 -0.9958 -1.6894 -0.6097
  148SAPE   C3816395  -0.533   3.003   9.769 -0.0026 -0.1366 -0.5867
  148SAPE   H8X16396  -0.634   2.960   9.752 -0.1144 -0.3777  0.6515
  148SAPE   H8Y16397  -0.478   2.926   9.826 -3.1553 -0.4167  2.3736
  148SAPE   C3916398  -0.469   3.008   9.629 -0.5443 -0.2095  0.3748
  148SAPE   H9X16399  -0.464   2.904   9.591  1.1391  0.7527 -2.3171
  148SAPE   H9Y16400  -0.360   3.030   9.635 -1.0445  2.7123  0.0269
  148SAPE  C31016401  -0.536   3.108   9.531  0.0112  0.5589  0.3508
  148SAPE  H10X16402  -0.524   3.207   9.579 -0.9272  1.9766 -2.1526
  148SAPE  H10Y16403  -0.645   3.090   9.517  0.1364  0.2436 -0.2866
  148SAPE  C31116404  -0.473   3.101   9.390  0.2962  0.1976 -0.8147
  148SAPE  H11X16405  -0.464   2.997   9.352  3.9897  0.2577 -0.5334
  148SAPE  H11Y16406  -0.370   3.141   9.401  0.4571 -0.5535  0.6694
  148SAPE  C31216407  -0.546   3.170   9.285  0.2723 -0.1597  0.6722
  148SAPE  H12X16408  -0.572   3.277   9.300 -1.9251 -0.4654 -0.4926
  148SAPE  H12Y16409  -0.643   3.116   9.277  0.0798  0.1348  1.0106
  148SAPE  C31316410  -0.468   3.150   9.153  0.8083 -0.1220 -0.9379
  148SAPE  H13X16411  -0.455   3.045   9.120 -0.8602 -0.5502 -0.3660
  148SAPE  H13Y16412  -0.363   3.179   9.175  1.3569 -1.8588 -1.0961
  148SAPE  C31416413  -0.509   3.240   9.036  0.5339 -0.2684 -0.2835
  148SAPE  H14X16414  -0.434   3.239   8.954  0.3658  1.4486 -0.4926
  148SAPE  H14Y16415  -0.525   3.343   9.076  2.0276 -0.0414 -0.1833
  148SAPE  C31516416  -0.644   3.195   8.976 -0.2005 -0.1764  0.0306
  148SAPE  H15X16417  -0.730   3.263   8.998 -0.9848 -1.2581  0.4300
  148SAPE  H15Y16418  -0.672   3.106   9.037  0.7051  0.0621  0.8162
  148SAPE  C31616419  -0.646   3.151   8.833 -0.6280  0.2298 -0.2493
  148SAPE  H16X16420  -0.744   3.101   8.817 -0.9229  0.9971 -0.8908
  148SAPE  H16Y16421  -0.562   3.083   8.806  0.6818  1.0477  1.6159
  148SAPE  C31716422  -0.639   3.273   8.741  0.3689 -0.0869  0.3419
  148SAPE  H17X16423  -0.542   3.326   8.760  0.2974  0.9399 -1.7773
  148SAPE  H17Y16424  -0.717   3.349   8.764  0.9399  0.9203 -0.8861
  148SAPE  C31816425  -0.645   3.221   8.597  0.6693 -0.0864  0.7063
  148SAPE  H18X16426  -0.550   3.169   8.569  3.0275  3.4063  1.5527
  148SAPE  H18Y16427  -0.669   3.308   8.532  0.3505  0.7179  1.8835
  148SAPE  H18Z16428  -0.729   3.150   8.584 -0.5376  1.5362 -0.7863
  149SAPE     N16429   3.637   0.057  10.695  0.1565 -0.3940 -0.3922
  149SAPE   HN116430   3.702   0.119  10.748 -1.4150 -1.1661  2.6639
  149SAPE   HN216431   3.684   0.014  10.613 -1.1820 -0.2503 -1.2671
  149SAPE   HN316432   3.554   0.113  10.666 -0.7920 -1.7001 -0.2827
  149SAPE   C1216433   3.584  -0.050  10.790 -0.0345 -0.1624 -0.0261
  149SAPE  H12A16434   3.546  -0.131  10.724 -0.7567  0.7983 -0.8301
  149SAPE  H12B16435   3.498  -0.004  10.843 -0.0771 -0.4283  0.1360
  149SAPE   C1116436   3.681  -0.096  10.899 -0.1544  0.6060 -0.5327
  149SAPE  H11A16437   3.776  -0.126  10.850 -0.2237  0.0988 -0.3694
  149SAPE  H11B16438   3.644  -0.188  10.950  0.3414  0.6006 -0.1788
  149SAPE     P16439   3.835   0.076  11.010 -0.2071 -0.1151  0.2851
  149SAPE   O1316440   3.819   0.205  11.080  0.2431  0.1124  1.1744
  149SAPE   O1416441   3.933  -0.017  11.072 -0.9001  0.4954 -0.0436
  149SAPE   O1216442   3.700   0.005  10.997  0.3886 -0.7154 -0.1653
  149SAPE   O1116443   3.863   0.100  10.855 -0.0375 -0.3424 -0.0027
  149SAPE    C116444   3.987   0.062  10.790  0.8818 -0.0106 -0.1357
  149SAPE    HA16445   4.065   0.033  10.863  0.5631  0.8340  0.5645
  149SAPE    HB16446   3.965  -0.024  10.724 -1.8699  0.0978  0.5195
  149SAPE    C216447   4.039   0.177  10.696  0.4503 -0.0065 -0.0167
  149SAPE    HS16448   4.080   0.263  10.754 -0.7925  0.2793  0.4623
  149SAPE   O2116449   3.925   0.233  10.628  0.5665  0.5010 -0.3311
  149SAPE   C2116450   3.932   0.304  10.524  0.0479  0.1135 -0.4397
  149SAPE   O2216451   4.029   0.353  10.462 -0.0466  0.2386 -0.0900
  149SAPE   C2216452   3.790   0.340  10.477  0.0118  0.9606 -0.2350
  149SAPE   H2R16453   3.713   0.301  10.546 -0.9031  1.9502 -0.6585
  149SAPE   H2S16454   3.784   0.451  10.482  1.8408  1.0298  2.9893
  149SAPE    C316455   4.142   0.112  10.608 -0.4036  0.2792 -0.1323
  149SAPE    HX16456   4.231   0.078  10.665 -0.7479 -1.1875 -0.4155
  149SAPE    HY16457   4.174   0.193  10.540  0.3690 -1.2193 -1.6113
  149SAPE   O3116458   4.093  -0.003  10.532 -0.0555  0.0535  0.0203
  149SAPE   C3116459   4.166  -0.044  10.423 -0.4772 -0.0321 -1.0710
  149SAPE   O3216460   4.271   0.009  10.392  0.2167 -0.0133  0.0909
  149SAPE   C3216461   4.095  -0.147  10.341 -0.5200 -0.1086  0.2451
  149SAPE   H2X16462   3.987  -0.127  10.352 -0.3209  0.6809  0.9812
  149SAPE   H2Y16463   4.126  -0.250  10.368 -0.6604  0.4215  2.6708
  149SAPE   C2316464   3.767   0.273  10.341  0.6544 -0.3039  0.1945
  149SAPE   H3R16465   3.767   0.164  10.364  1.7767 -0.4216 -0.2863
  149SAPE   H3S16466   3.848   0.300  10.271  0.3073  1.8693  0.5689
  149SAPE   C2416467   3.638   0.318  10.281 -0.0471 -0.2387  0.1524
  149SAPE   H4R16468   3.550   0.295  10.346 -1.3680  1.8123 -0.7762
  149SAPE   H4S16469   3.625   0.255  10.190  0.9911 -1.2061  0.6530
  149SAPE   C2516470   3.641   0.466  10.252  0.8470  0.4313  1.1717
  149SAPE   H5R16471   3.681   0.528  10.333  1.4703 -1.9152  2.7529
  149SAPE   C2616472   3.590   0.524  10.141  0.3049 -0.5134 -0.7110
  149SAPE   H6R16473   3.595   0.634  10.143 -1.1724 -0.2866  4.2076
  149SAPE   C2716474   3.521   0.448  10.027  0.0678 -0.1552 -0.1688
  149SAPE   H7R16475   3.426   0.497   9.997 -0.5111 -0.5661  0.9210
  149SAPE   H7S16476   3.482   0.347  10.052 -0.6658 -0.2366 -1.5498
  149SAPE   C2816477   3.605   0.432   9.912 -0.9083  0.2025  0.7571
  149SAPE   H8R16478   3.711   0.437   9.939 -0.9586  0.5965  0.8896
  149SAPE   C2916479   3.577   0.429   9.781  0.0733  0.2233  0.1617
  149SAPE   H9R16480   3.665   0.428   9.715 -0.4194 -0.2783 -0.5024
  149SAPE  C21016481   3.440   0.440   9.724 -0.2295 -0.8930  1.0019
  149SAPE  H10R16482   3.368   0.443   9.809  0.5345 -2.0009  1.7130
  149SAPE  H10S16483   3.426   0.342   9.673 -0.0473 -0.6192  0.4179
  149SAPE  C21116484   3.414   0.557   9.635  0.2144 -0.1077 -0.0053
  149SAPE  H11R16485   3.419   0.648   9.696 -3.3685  0.3040 -0.1435
  149SAPE  C21216486   3.416   0.567   9.507 -0.9347 -0.9782 -0.4326
  149SAPE  H12R16487   3.391   0.664   9.461 -4.5001 -2.5319 -2.1967
  149SAPE  C21316488   3.444   0.464   9.405 -0.0656  0.6683  0.1296
  149SAPE  H13R16489   3.386   0.484   9.313  1.7848  0.0801 -1.2362
  149SAPE  H13S16490   3.420   0.360   9.438  2.4810  0.5025  1.7180
  149SAPE  C21416491   3.592   0.465   9.374 -0.6805 -0.2178  0.3438
  149SAPE  H14R16492   3.656   0.469   9.463  0.9749  0.2885 -0.8246
  149SAPE  C21516493   3.643   0.467   9.249  0.0854 -0.4791 -0.2148
  149SAPE  H15R16494   3.752   0.457   9.241 -0.0445 -1.0583 -1.4783
  149SAPE  C21616495   3.568   0.464   9.117  0.0483  0.1700  0.3846
  149SAPE  H16R16496   3.461   0.495   9.115 -0.6251 -1.9141 -2.2974
  149SAPE  H16S16497   3.562   0.362   9.073 -1.6762 -0.6699  2.3630
  149SAPE  C21716498   3.633   0.562   9.020  0.2759 -0.3554 -0.2490
  149SAPE  H17R16499   3.741   0.541   9.005  0.2876 -0.1082 -0.5182
  149SAPE  H17S16500   3.632   0.662   9.069  3.3746  1.2148 -3.0165
  149SAPE  C21816501   3.553   0.572   8.885 -0.4677 -0.1856 -0.1484
  149SAPE  H18R16502   3.442   0.570   8.890 -0.5916 -4.2289 -0.9945
  149SAPE  H18S16503   3.582   0.476   8.837  2.4470  0.1895  0.6701
  149SAPE  C21916504   3.598   0.689   8.805 -0.4804 -0.0247 -1.0005
  149SAPE  H19R16505   3.700   0.660   8.773  0.9400  0.9132  2.1756
  149SAPE  H19S16506   3.604   0.788   8.856  0.1883 -0.7449  0.3589
  149SAPE  C22016507   3.513   0.709   8.679  0.1885  0.5472 -0.4428
  149SAPE  H20R16508   3.404   0.703   8.700  0.2637 -1.7134 -0.4427
  149SAPE  H20S16509   3.543   0.635   8.602  1.9140  0.3902  0.3421
  149SAPE  H20T16510   3.532   0.808   8.634  0.8935 -0.5538 -2.7104
  149SAPE   C3316511   4.116  -0.128  10.187 -0.0530  0.2510 -0.5016
  149SAPE   H3X16512   4.074  -0.217  10.136 -1.8681 -0.4017  1.9643
  149SAPE   H3Y16513   4.225  -0.121  10.166  0.0063  1.4524  0.0810
  149SAPE   C3416514   4.058   0.003  10.131 -0.1264  0.3586  0.4506
  149SAPE   H4X16515   4.116   0.090  10.169  0.4066 -0.5157  1.7267
  149SAPE   H4Y16516   3.957   0.010  10.177 -0.8506 -0.3181 -0.9693
  149SAPE   C3516517   4.038  -0.002   9.980 -0.1301 -0.4931 -0.7170
  149SAPE   H5X16518   3.972  -0.089   9.958 -1.0672 -0.4445  1.5769
  149SAPE   H5Y16519   4.139  -0.018   9.937 -0.2058  1.3124 -1.6408
  149SAPE   C3616520   3.973   0.123   9.923 -0.2248  0.2986 -1.1911
  149SAPE   H6X16521   4.047   0.206   9.921 -0.7520  0.7725 -2.5301
  149SAPE   H6Y16522   3.881   0.159   9.974  0.5087  0.3580  0.1157
  149SAPE   C3716523   3.943   0.091   9.778 -0.1389 -0.2016 -0.5529
  149SAPE   H7X16524   4.031   0.051   9.723  0.4908  1.1724 -0.5811
  149SAPE   H7Y16525   3.915   0.190   9.736  1.6243  0.6081  0.0933
  149SAPE   C3816526   3.808   0.025   9.756 -0.8298 -0.8893  0.3034
  149SAPE   H8X16527   3.728   0.046   9.830 -0.7173  1.8099 -0.2386
  149SAPE   H8Y16528   3.827  -0.084   9.762  0.9466 -0.9608 -3.2564
  149SAPE   C3916529   3.744   0.060   9.624  0.3924  0.2528  0.0183
  149SAPE   H9X16530   3.691   0.157   9.612 -0.1135 -0.1970 -1.5916
  149SAPE   H9Y16531   3.679  -0.027   9.603  1.8543 -0.3347 -2.3851
  149SAPE  C31016532   3.853   0.067   9.512 -0.0232 -0.4088  0.7234
  149SAPE  H10X16533   3.923  -0.019   9.514  0.9210  0.3218  0.0587
  149SAPE  H10Y16534   3.909   0.161   9.530  1.1241 -0.5504 -1.7574
  149SAPE  C31116535   3.798   0.067   9.376  0.4734  0.1625  1.0553
  149SAPE  H11X16536   3.708   0.132   9.367 -0.0743 -0.5419  1.3668
  149SAPE  H11Y16537   3.760  -0.035   9.351 -1.3165  0.9262  0.4603
  149SAPE  C31216538   3.889   0.101   9.263 -0.7177 -0.6580 -0.8829
  149SAPE  H12X16539   3.960   0.016   9.255 -0.3482 -0.5304  0.7066
  149SAPE  H12Y16540   3.945   0.190   9.298 -2.3307  0.5857 -1.3774
  149SAPE  C31316541   3.823   0.113   9.130  0.7704  0.1964  0.2161
  149SAPE  H13X16542   3.743   0.191   9.123 -1.8267 -2.4030 -1.2338
  149SAPE  H13Y16543   3.779   0.013   9.110 -0.3863  0.7563 -0.1527
  149SAPE  C31416544   3.926   0.151   9.022 -0.5260 -0.2079  0.3302
  149SAPE  H14X16545   3.975   0.057   8.989 -1.4538 -0.7526  0.4741
  149SAPE  H14Y16546   4.004   0.222   9.056  1.1117 -0.4705 -2.5752
  149SAPE  C31516547   3.852   0.223   8.913 -0.0565  0.5006  0.4829
  149SAPE  H15X16548   3.802   0.314   8.953 -1.0399  0.0328  0.3483
  149SAPE  H15Y16549   3.778   0.155   8.866  0.8514  0.2824 -0.6895
  149SAPE  C31616550   3.933   0.282   8.795  0.0904 -0.2540 -0.5669
  149SAPE  H16X16551   3.978   0.190   8.752  0.6729  0.7654 -2.2161
  149SAPE  H16Y16552   4.017   0.342   8.837 -0.9409 -0.1408  1.4648
  149SAPE  C31716553   3.844   0.360   8.696  0.0828 -0.7775 -0.1444
  149SAPE  H17X16554   3.915   0.404   8.622 -0.0741  1.0314  0.7364
  149SAPE  H17Y16555   3.806   0.446   8.755  0.9067  0.1964 -0.9931
  149SAPE  C31816556   3.738   0.289   8.613  0.6748 -0.3159  0.0882
  149SAPE  H18X16557   3.681   0.209   8.664 -0.1607 -0.2673 -0.7324
  149SAPE  H18Y16558   3.799   0.235   8.537  2.1903  2.3825 -0.7676
  149SAPE  H18Z16559   3.671   0.361   8.562 -0.2481 -0.6932  0.7434
  150SAPE     N16560   4.956   5.159  10.830 -0.7055 -0.6753 -0.4092
  150SAPE   HN116561   4.892   5.097  10.777 -0.2810 -1.0963 -0.4307
  150SAPE   HN216562   4.934   5.257  10.803  0.9573 -0.0116  0.5282
  150SAPE   HN316563   5.057   5.139  10.815 -0.3871 -1.8883  2.5326
  150SAPE   C1216564   4.940   5.124  10.977 -0.2003 -0.3466 -0.1645
  150SAPE  H12A16565   5.029   5.163  11.030 -1.7158  0.4859  1.9017
  150SAPE  H12B16566   4.940   5.013  10.991  2.1905 -0.0885  3.0071
  150SAPE   C1116567   4.807   5.174  11.041 -0.1988 -0.1853 -0.2535
  150SAPE  H11A16568   4.819   5.284  11.056 -0.0844 -0.2724  0.3114
  150SAPE  H11B16569   4.797   5.116  11.134 -0.1548 -1.7413 -1.1927
  150SAPE     P16570   4.550   5.132  10.987  0.4882  0.2378 -0.5799
  150SAPE   O1316571   4.500   4.990  10.956 -0.0261  0.1535 -0.0692
  150SAPE   O1416572   4.542   5.191  11.122 -0.2952  0.1958 -0.5091
  150SAPE   O1216573   4.703   5.136  10.946  0.0021 -0.7950  0.3278
  150SAPE   O1116574   4.488   5.237  10.889 -0.1234  0.3536  0.3085
  150SAPE    C116575   4.559   5.250  10.760 -0.4932  0.0897 -0.3327
  150SAPE    HA16576   4.664   5.286  10.769 -0.3602 -0.3783 -0.0133
  150SAPE    HB16577   4.566   5.158  10.699  1.8910  0.3745 -0.5866
  150SAPE    C216578   4.488   5.360  10.675 -0.2036  0.2515 -0.2417
  150SAPE    HS16579   4.491   5.450  10.740 -2.0324 -0.2754  0.6459
  150SAPE   O2116580   4.351   5.328  10.646 -0.2763  0.6065 -1.1819
  150SAPE   C2116581   4.273   5.421  10.598  0.7633  0.2635 -0.3196
  150SAPE   O2216582   4.283   5.540  10.599  0.1825  0.1470 -0.3765
  150SAPE   C2216583   4.151   5.348  10.551  0.2524 -0.9224  0.4879
  150SAPE   H2R16584   4.184   5.244  10.531 -0.9868 -1.1791 -0.3184
  150SAPE   H2S16585   4.071   5.354  10.629 -3.4286 -1.8964 -2.8879
  150SAPE    C316586   4.560   5.394  10.543 -1.2950 -0.3991 -0.2186
  150SAPE    HX16587   4.667   5.415  10.559 -0.8523 -2.2159 -0.5699
  150SAPE    HY16588   4.510   5.483  10.499  0.0780  0.5644  0.1182
  150SAPE   O3116589   4.533   5.296  10.442 -0.2135  0.1606  0.3837
  150SAPE   C3116590   4.612   5.194  10.416  0.0017 -0.2169  0.5420
  150SAPE   O3216591   4.725   5.179  10.468  1.2028  0.2815 -0.2537
  150SAPE   C3216592   4.550   5.100  10.317 -0.0697 -0.3549 -0.0669
  150SAPE   H2X16593   4.478   5.155  10.253 -1.3148  0.1347  1.6608
  150SAPE   H2Y16594   4.492   5.027  10.379 -0.1640 -2.1034 -2.1080
  150SAPE   C2316595   4.090   5.412  10.423  0.0838  0.6103  0.9894
  150SAPE   H3R16596   4.073   5.520  10.442 -1.0008  0.5706  0.3114
  150SAPE   H3S16597   3.986   5.376  10.407  0.4912 -0.6995  1.1276
  150SAPE   C2416598   4.168   5.393  10.287  0.4189  0.0328 -0.9630
  150SAPE   H4R16599   4.273   5.419  10.314 -0.7386  2.8563  1.4026
  150SAPE   H4S16600   4.137   5.478  10.222  2.5253  0.7769 -1.0546
  150SAPE   C2516601   4.144   5.255  10.225  0.0912 -0.0698 -0.3447
  150SAPE   H5R16602   4.121   5.174  10.296 -0.8981  1.8848  1.6946
  150SAPE   C2616603   4.120   5.241  10.091 -0.4507 -0.2349 -0.2711
  150SAPE   H6R16604   4.109   5.137  10.056 -2.6358 -0.4034  0.7850
  150SAPE   C2716605   4.130   5.344   9.978  1.0670 -0.1007  0.0877
  150SAPE   H7R16606   4.191   5.300   9.896  0.4450 -1.9885  0.5850
  150SAPE   H7S16607   4.187   5.433  10.009 -0.6212  1.4349 -1.0295
  150SAPE   C2816608   3.989   5.390   9.932 -0.4570  0.7958 -0.8727
  150SAPE   H8R16609   3.913   5.400  10.010 -0.2714 -1.9582 -0.2388
  150SAPE   C2916610   3.955   5.415   9.806 -0.1732 -0.3921 -0.2932
  150SAPE   H9R16611   3.850   5.433   9.777  0.4577  3.5107 -0.6439
  150SAPE  C21016612   4.044   5.416   9.689  0.2594  0.4902  0.0910
  150SAPE  H10R16613   4.150   5.439   9.716  0.0298 -0.6974  2.2909
  150SAPE  H10S16614   4.023   5.509   9.632 -0.4115  0.8523  0.9052
  150SAPE  C21116615   4.029   5.288   9.607 -0.4466 -0.6747  0.1237
  150SAPE  H11R16616   3.936   5.229   9.611 -1.0424 -0.0240 -2.3018
  150SAPE  C21216617   4.123   5.253   9.515  0.1741 -0.1588  0.1028
  150SAPE  H12R16618   4.099   5.175   9.441  2.2745 -0.7738  0.0034
  150SAPE  C21316619   4.258   5.318   9.483  0.4819  0.8992 -0.0173
  150SAPE  H13R16620   4.339   5.245   9.460  1.1928  1.7053 -0.0863
  150SAPE  H13S16621   4.285   5.383   9.568  0.4190  1.0128 -0.0845
  150SAPE  C21416622   4.251   5.400   9.359  0.0873 -1.0257  0.3782
  150SAPE  H14R16623   4.182   5.485   9.369 -0.4362 -1.3916 -0.0721
  150SAPE  C21516624   4.322   5.396   9.246  0.3812  0.0182  1.0938
  150SAPE  H15R16625   4.292   5.458   9.161 -0.1417  1.5816  2.3774
  150SAPE  C21616626   4.433   5.303   9.207 -0.4132 -0.3672 -0.3282
  150SAPE  H16R16627   4.467   5.247   9.297 -2.4414 -1.3157 -0.0940
  150SAPE  H16S16628   4.520   5.366   9.177 -0.9159  0.8792  0.7042
  150SAPE  C21716629   4.398   5.208   9.094  0.6550 -0.2558 -0.5265
  150SAPE  H17R16630   4.315   5.146   9.135 -0.3215  0.3978 -1.4778
  150SAPE  H17S16631   4.486   5.144   9.073  1.9464  1.3526 -0.1862
  150SAPE  C21816632   4.373   5.276   8.964  0.1270 -0.1587 -0.7523
  150SAPE  H18R16633   4.286   5.346   8.961 -0.4275 -0.8881 -2.2957
  150SAPE  H18S16634   4.336   5.200   8.892 -1.5199 -0.8908  0.7823
  150SAPE  C21916635   4.491   5.349   8.894  0.2077  0.4375 -0.7157
  150SAPE  H19R16636   4.539   5.263   8.843 -1.4143 -0.6910 -0.3987
  150SAPE  H19S16637   4.573   5.387   8.959 -0.3267  1.8959 -0.8564
  150SAPE  C22016638   4.452   5.457   8.792 -0.1885 -0.2104  0.2089
  150SAPE  H20R16639   4.363   5.422   8.735 -1.1886  0.5598  1.2345
  150SAPE  H20S16640   4.527   5.477   8.713 -0.2822  0.2207  0.2274
  150SAPE  H20T16641   4.431   5.558   8.833  1.8680  1.0064 -1.5276
  150SAPE   C3316642   4.660   5.022  10.239  0.7201  0.5600 -0.1598
  150SAPE   H3X16643   4.630   4.930  10.183 -1.2910 -0.4243  2.3184
  150SAPE   H3Y16644   4.719   4.977  10.322  1.9400  0.4455 -1.0633
  150SAPE   C3416645   4.741   5.114  10.154  0.1762 -0.6297 -0.0481
  150SAPE   H4X16646   4.781   5.210  10.193 -2.1962  0.6339 -0.5345
  150SAPE   H4Y16647   4.668   5.148  10.077 -2.4566  0.3177  2.6608
  150SAPE   C3516648   4.858   5.039  10.092 -0.3716  0.1446  0.6196
  150SAPE   H5X16649   4.840   4.930  10.077  0.4829 -0.0157  0.7224
  150SAPE   H5Y16650   4.950   5.047  10.154 -0.8193 -0.0415  1.3155
  150SAPE   C3616651   4.888   5.094   9.955 -0.1421  0.8959  0.4399
  150SAPE   H6X16652   4.807   5.063   9.886  0.4028 -0.4760  0.3835
  150SAPE   H6Y16653   4.990   5.060   9.926 -1.1666 -1.0224 -1.1764
  150SAPE   C3716654   4.895   5.246   9.944 -0.0215 -0.4269  0.5564
  150SAPE   H7X16655   4.963   5.276  10.026 -0.1313  1.1779  0.1029
  150SAPE   H7Y16656   4.798   5.295   9.966 -0.0462  0.4985 -1.3966
  150SAPE   C3816657   4.938   5.305   9.805 -0.1010 -0.4814 -0.2195
  150SAPE   H8X16658   4.946   5.416   9.809  0.5194 -0.5569  1.8908
  150SAPE   H8Y16659   4.860   5.269   9.735  0.2927 -0.5766 -0.6181
  150SAPE   C3916660   5.076   5.254   9.763  0.1694 -0.1226 -0.1111
  150SAPE   H9X16661   5.064   5.144   9.751 -0.2930  0.0499 -1.3678
  150SAPE   H9Y16662   5.154   5.290   9.833 -3.3347  0.2077  4.0183
  150SAPE  C31016663   5.118   5.306   9.628 -0.0306 -0.3279  0.0258
  150SAPE  H10X16664   5.228   5.320   9.626  0.2622 -2.2995 -0.5837
  150SAPE  H10Y16665   5.055   5.395   9.606  0.7906  0.1733 -0.3175
  150SAPE  C31116666   5.090   5.206   9.518 -0.2123 -1.3531 -0.1203
  150SAPE  H11X16667   4.980   5.194   9.504 -0.8077  3.0289 -0.8031
  150SAPE  H11Y16668   5.127   5.104   9.541  0.4097 -1.4584 -1.5275
  150SAPE  C31216669   5.142   5.243   9.381  0.1217 -0.1623  0.4914
  150SAPE  H12X16670   5.251   5.260   9.392 -0.1102  1.8462  0.0812
  150SAPE  H12Y16671   5.095   5.336   9.343  0.7177 -0.0334  0.0550
  150SAPE  C31316672   5.118   5.136   9.276 -0.3065 -0.2185 -0.6783
  150SAPE  H13X16673   5.008   5.124   9.263 -0.6386  1.1822  0.6338
  150SAPE  H13Y16674   5.151   5.039   9.318 -0.3872 -1.2838 -2.9306
  150SAPE  C31416675   5.171   5.167   9.140  1.0515  0.1447  0.1586
  150SAPE  H14X16676   5.280   5.187   9.138  0.8157  1.6388  0.6709
  150SAPE  H14Y16677   5.126   5.260   9.100  1.1334  1.2422  2.4679
  150SAPE  C31516678   5.166   5.050   9.036  0.3410 -0.0745 -0.0211
  150SAPE  H15X16679   5.063   5.015   9.014  1.2250 -2.1125 -1.2254
  150SAPE  H15Y16680   5.228   4.965   9.071  2.1409  1.4222  0.5773
  150SAPE  C31616681   5.234   5.092   8.908 -0.2885 -0.3063 -0.4112
  150SAPE  H16X16682   5.339   5.118   8.935 -0.6301  0.6724  0.0319
  150SAPE  H16Y16683   5.187   5.186   8.873 -2.1207 -0.8284  0.5336
  150SAPE  C31716684   5.244   4.983   8.804  0.2641  1.3486  0.0437
  150SAPE  H17X16685   5.287   4.900   8.864 -3.3187 -1.3161 -0.7216
  150SAPE  H17Y16686   5.319   5.003   8.724  2.7824 -1.0875  1.6170
  150SAPE  C31816687   5.114   4.942   8.733 -0.3989  0.8354 -0.1727
  150SAPE  H18X16688   5.020   4.929   8.790 -2.0091  2.4316 -2.3005
  150SAPE  H18Y16689   5.127   4.850   8.672 -0.2674 -0.5623  1.8577
  150SAPE  H18Z16690   5.099   5.020   8.655  0.1761 -0.0871 -1.2415
  151SAPE     N16691   2.518   2.250  10.972  0.0384 -0.3619 -0.0383
  151SAPE   HN116692   2.482   2.202  10.887 -1.8328 -0.4930  0.7848
  151SAPE   HN216693   2.527   2.187  11.054 -0.4549 -0.4456 -0.0478
  151SAPE   HN316694   2.448   2.324  10.993 -0.2256 -1.4600  3.5211
  151SAPE   C1216695   2.645   2.321  10.928  0.5725 -0.5178  0.2829
  151SAPE  H12A16696   2.688   2.375  11.015  0.0336 -1.4475  1.1362
  151SAPE  H12B16697   2.606   2.408  10.872  2.0334  0.6128  0.9433
  151SAPE   C1116698   2.733   2.231  10.846 -0.2679  0.1064  0.4887
  151SAPE  H11A16699   2.770   2.162  10.924  0.4493 -2.0220 -1.6301
  151SAPE  H11B16700   2.828   2.277  10.811 -0.9188  0.0930 -1.4097
  151SAPE     P16701   2.734   2.096  10.627  0.0593 -0.5781 -0.2061
  151SAPE   O1316702   2.835   1.998  10.674 -0.2602 -0.3316  0.5329
  151SAPE   O1416703   2.638   2.049  10.527  0.2739  0.6753 -0.5453
  151SAPE   O1216704   2.656   2.159  10.750 -0.4532  0.5082  0.0886
  151SAPE   O1116705   2.806   2.223  10.568  0.1505  0.4679 -0.4588
  151SAPE    C116706   2.745   2.356  10.560  0.4689 -0.3352 -0.7742
  151SAPE    HA16707   2.654   2.364  10.624  1.5893 -0.8806  0.9484
  151SAPE    HB16708   2.828   2.417  10.602 -0.1591  0.0060 -0.0064
  151SAPE    C216709   2.699   2.391  10.415  0.3366 -0.3891  0.0508
  151SAPE    HS16710   2.647   2.489  10.409  2.8953  0.9788 -1.4497
  151SAPE   O2116711   2.619   2.282  10.363 -0.3606 -0.5532 -0.1447
  151SAPE   C2116712   2.496   2.273  10.402  0.1445 -0.6657 -0.7155
  151SAPE   O2216713   2.450   2.340  10.497  0.2987 -0.1920  0.3224
  151SAPE   C2216714   2.418   2.163  10.325  1.2504 -0.4961  0.3510
  151SAPE   H2R16715   2.475   2.134  10.234 -2.2078 -3.3938 -1.1353
  151SAPE   H2S16716   2.419   2.083  10.402 -0.8500 -1.8155 -0.9082
  151SAPE    C316717   2.826   2.409  10.326 -0.2624  0.5458 -0.2053
  151SAPE    HX16718   2.883   2.314  10.332  1.5736  1.6179  0.1130
  151SAPE    HY16719   2.891   2.490  10.364  2.4027  0.5104 -4.0616
  151SAPE   O3116720   2.800   2.447  10.193  0.4955  0.2362  0.6677
  151SAPE   C3116721   2.801   2.348  10.106  0.4384 -0.0426  0.6151
  151SAPE   O3216722   2.812   2.229  10.133  0.1492 -0.2686 -0.5044
  151SAPE   C3216723   2.792   2.404   9.968 -0.4325 -0.3544 -0.4951
  151SAPE   H2X16724   2.870   2.482   9.952  0.9098 -1.9176 -2.0887
  151SAPE   H2Y16725   2.690   2.447   9.962 -0.0038  0.9855  1.1814
  151SAPE   C2316726   2.273   2.215  10.285  0.1909 -0.9848 -0.4568
  151SAPE   H3R16727   2.216   2.261  10.369  1.6807  0.5702 -0.2291
  151SAPE   H3S16728   2.224   2.118  10.263  0.1929 -0.5660 -2.5937
  151SAPE   C2416729   2.267   2.292  10.150  0.5393  0.8773 -0.2268
  151SAPE   H4R16730   2.158   2.309  10.133 -0.1347 -1.3620  1.4034
  151SAPE   H4S16731   2.310   2.217  10.080 -2.5674  1.5966 -3.1995
  151SAPE   C2516732   2.346   2.426  10.152  0.0083 -0.0407 -0.0093
  151SAPE   H5R16733   2.342   2.461  10.256 -0.9704 -1.8875  0.6097
  151SAPE   C2616734   2.406   2.494  10.054  0.6783  0.3135  0.5985
  151SAPE   H6R16735   2.459   2.586  10.084 -0.4962  1.3952 -0.5415
  151SAPE   C2716736   2.417   2.450   9.905  0.1369  0.0855 -0.2288
  151SAPE   H7R16737   2.500   2.379   9.883 -0.0031  0.1855 -1.1268
  151SAPE   H7S16738   2.445   2.538   9.843  0.5308 -1.6959 -2.7340
  151SAPE   C2816739   2.288   2.394   9.846  0.0614 -0.2130 -0.3624
  151SAPE   H8R16740   2.200   2.367   9.906 -1.0532 -0.3419 -2.0072
  151SAPE   C2916741   2.269   2.354   9.718  0.9293 -0.3697  0.2498
  151SAPE   H9R16742   2.169   2.323   9.685  1.2800  0.4330 -1.7011
  151SAPE  C21016743   2.369   2.360   9.608 -0.2584  0.0281 -0.3702
  151SAPE  H10R16744   2.363   2.257   9.565 -0.0255  0.4974 -1.5643
  151SAPE  H10S16745   2.474   2.371   9.643 -0.1097  1.4905 -1.1873
  151SAPE  C21116746   2.344   2.477   9.520 -0.3943 -0.0385  0.9346
  151SAPE  H11R16747   2.363   2.568   9.578 -0.8492 -1.1086  2.8795
  151SAPE  C21216748   2.296   2.481   9.393  0.2834  0.6552  0.0496
  151SAPE  H12R16749   2.293   2.578   9.341 -0.0026 -0.2275 -1.6634
  151SAPE  C21316750   2.248   2.366   9.311 -0.3998  0.4197  0.9552
  151SAPE  H13R16751   2.259   2.269   9.365  0.1633  0.9879  1.8835
  151SAPE  H13S16752   2.315   2.342   9.225 -2.2292  1.5376 -0.8733
  151SAPE  C21416753   2.105   2.382   9.268  0.4613 -0.2372 -0.0981
  151SAPE  H14R16754   2.035   2.415   9.347  2.1781 -1.6888  2.1544
  151SAPE  C21516755   2.066   2.373   9.139  1.2062 -0.7755 -0.6207
  151SAPE  H15R16756   1.959   2.394   9.122  1.1414 -0.1967  0.4167
  151SAPE  C21616757   2.147   2.327   9.020  0.3706  0.7217 -0.3317
  151SAPE  H16R16758   2.108   2.225   8.998 -2.6975  1.7019  0.1220
  151SAPE  H16S16759   2.256   2.321   9.038  0.1329  0.8821  1.3130
  151SAPE  C21716760   2.141   2.420   8.895  0.0371 -0.4186  0.8188
  151SAPE  H17R16761   2.179   2.521   8.921 -0.1929  0.1747 -1.0399
  151SAPE  H17S16762   2.039   2.452   8.864  1.0778  1.4907 -0.8557
  151SAPE  C21816763   2.226   2.374   8.768 -0.1381  0.4731  0.0099
  151SAPE  H18R16764   2.198   2.273   8.730 -1.4961  1.0094 -0.4593
  151SAPE  H18S16765   2.336   2.376   8.786 -0.2088 -0.1852  0.5702
  151SAPE  C21916766   2.212   2.472   8.657  0.2716  0.0797  0.0232
  151SAPE  H19R16767   2.310   2.483   8.608  1.0566 -0.1054  1.4955
  151SAPE  H19S16768   2.195   2.577   8.689 -2.3512 -0.0882 -0.5471
  151SAPE  C22016769   2.092   2.440   8.570  1.0447 -0.1670 -0.0616
  151SAPE  H20R16770   1.993   2.448   8.621 -0.4297 -0.7302 -2.6561
  151SAPE  H20S16771   2.096   2.330   8.554 -1.5155 -0.7524  2.4954
  151SAPE  H20T16772   2.063   2.486   8.473 -1.5538 -1.6150 -0.0676
  151SAPE   C3316773   2.811   2.295   9.865  0.0722 -0.0799 -0.6925
  151SAPE   H3X16774   2.747   2.208   9.891  0.3559  0.1577  0.9301
  151SAPE   H3Y16775   2.916   2.259   9.853  0.2807  0.5882 -0.8667
  151SAPE   C3416776   2.765   2.331   9.723  0.1051  0.7604  0.6022
  151SAPE   H4X16777   2.810   2.423   9.680  0.9197  0.0763 -0.0351
  151SAPE   H4Y16778   2.656   2.356   9.722 -0.0228  0.1955  0.4512
  151SAPE   C3516779   2.787   2.218   9.617 -0.0736 -1.0365 -0.4105
  151SAPE   H5X16780   2.717   2.136   9.646  0.3831 -1.4838 -0.5637
  151SAPE   H5Y16781   2.892   2.183   9.620  0.4001  0.3701  1.3085
  151SAPE   C3616782   2.763   2.266   9.470  0.0799 -0.1393  0.3637
  151SAPE   H6X16783   2.843   2.340   9.450 -1.5032  1.8692  1.1192
  151SAPE   H6Y16784   2.661   2.310   9.478  0.1922  0.3913 -0.9294
  151SAPE   C3716785   2.752   2.151   9.367  0.6078 -0.0180  0.3194
  151SAPE   H7X16786   2.700   2.064   9.411  0.2937  0.3030  0.5887
  151SAPE   H7Y16787   2.854   2.114   9.345  0.4008 -0.0947 -0.5559
  151SAPE   C3816788   2.675   2.186   9.235 -0.3599 -0.1006 -0.8541
  151SAPE   H8X16789   2.586   2.251   9.248 -0.5369 -0.7386  1.4939
  151SAPE   H8Y16790   2.627   2.095   9.194  2.2921 -0.7297 -2.8261
  151SAPE   C3916791   2.762   2.224   9.117  0.5178  0.0394  0.6231
  151SAPE   H9X16792   2.827   2.138   9.093  1.9092  0.9600  1.0049
  151SAPE   H9Y16793   2.829   2.311   9.137  0.4809 -0.0641  1.2166
  151SAPE  C31016794   2.676   2.279   9.006  0.8428  0.1785 -0.1916
  151SAPE  H10X16795   2.641   2.374   9.052  1.1128  0.4286 -0.5045
  151SAPE  H10Y16796   2.594   2.209   8.979  0.0651  1.3026 -0.8010
  151SAPE  C31116797   2.763   2.329   8.888 -0.2345 -0.3170 -0.7095
  151SAPE  H11X16798   2.813   2.240   8.843 -2.3139 -1.6660 -0.4553
  151SAPE  H11Y16799   2.833   2.409   8.922  1.2383 -2.4681  1.6896
  151SAPE  C31216800   2.670   2.383   8.787 -0.2741  0.4068  0.0036
  151SAPE  H12X16801   2.645   2.487   8.818 -2.1212 -0.1670  0.5838
  151SAPE  H12Y16802   2.581   2.316   8.790  0.3352 -0.3977  2.0090
  151SAPE  C31316803   2.732   2.395   8.647  0.1872  0.1790 -0.2187
  151SAPE  H13X16804   2.773   2.296   8.617  0.4569  0.1489  0.2398
  151SAPE  H13Y16805   2.818   2.465   8.640 -1.3848  2.1214 -1.0332
  151SAPE  C31416806   2.625   2.436   8.543  0.4333  0.2152  0.2588
  151SAPE  H14X16807   2.596   2.542   8.559  0.2673  0.8354 -3.2786
  151SAPE  H14Y16808   2.537   2.370   8.559  0.3266  0.3227  0.1208
  151SAPE  C31516809   2.678   2.427   8.404  0.3434 -0.1252  0.1801
  151SAPE  H15X16810   2.713   2.323   8.385  0.3015  0.2119 -2.0016
  151SAPE  H15Y16811   2.771   2.488   8.405  1.3770 -1.6325  0.3206
  151SAPE  C31616812   2.583   2.475   8.290 -0.4022 -0.1447  0.5346
  151SAPE  H16X16813   2.546   2.572   8.328 -0.1228  0.3013 -0.3212
  151SAPE  H16Y16814   2.493   2.411   8.278 -0.7809  0.5271 -0.2798
  151SAPE  C31716815   2.650   2.484   8.154 -0.3726 -0.4255 -0.2417
  151SAPE  H17X16816   2.564   2.524   8.096 -0.3365  0.3098  0.1924
  151SAPE  H17Y16817   2.668   2.387   8.102 -1.6114 -0.7276 -0.1639
  151SAPE  C31816818   2.774   2.571   8.152 -1.0102  0.4175  0.1664
  151SAPE  H18X16819   2.786   2.625   8.056  0.0691 -0.6660 -0.3303
  151SAPE  H18Y16820   2.865   2.513   8.179  0.0176  1.5039 -0.8296
  151SAPE  H18Z16821   2.767   2.649   8.232 -3.2631 -0.8387  1.2924
  152SAPE     N16822   2.170   0.943  10.330  0.0154  0.3482 -0.1822
  152SAPE   HN116823   2.174   0.841  10.352 -0.2839 -0.3139 -2.9249
  152SAPE   HN216824   2.070   0.971  10.329 -0.4059 -1.0130 -2.4464
  152SAPE   HN316825   2.201   0.942  10.231 -0.6458  0.0105 -0.3931
  152SAPE   C1216826   2.248   1.024  10.421  0.4899  1.2546 -0.1697
  152SAPE  H12A16827   2.212   1.015  10.525  0.8244  0.8206 -0.0874
  152SAPE  H12B16828   2.243   1.131  10.390  1.0796  0.6438 -2.6420
  152SAPE   C1116829   2.397   0.981  10.416 -0.8479  0.2942  0.0934
  152SAPE  H11A16830   2.456   1.052  10.479  0.2249 -0.2814 -0.2229
  152SAPE  H11B16831   2.435   0.981  10.312 -2.0980 -1.3115 -0.3867
  152SAPE     P16832   2.425   0.724  10.415 -0.3624 -0.5108 -0.0796
  152SAPE   O1316833   2.517   0.636  10.497 -0.2472 -0.0288  0.1249
  152SAPE   O1416834   2.285   0.677  10.399 -0.2625 -0.3898  0.4322
  152SAPE   O1216835   2.419   0.858  10.488  0.2726 -0.5954 -0.0754
  152SAPE   O1116836   2.480   0.745  10.265  0.1578 -0.5119 -0.1260
  152SAPE    C116837   2.617   0.788  10.252  0.6660  0.2513 -1.3606
  152SAPE    HA16838   2.637   0.886  10.300  1.9865 -0.1432 -1.0576
  152SAPE    HB16839   2.686   0.717  10.302  1.5702  1.8767 -0.1954
  152SAPE    C216840   2.661   0.792  10.107 -0.2130  0.3121  1.5628
  152SAPE    HS16841   2.769   0.820  10.110 -0.2123  0.6110 -0.0848
  152SAPE   O2116842   2.585   0.893  10.044 -0.2144 -0.1663  0.3464
  152SAPE   C2116843   2.636   0.949   9.931 -0.1640 -0.3001  0.1522
  152SAPE   O2216844   2.747   0.928   9.884  0.1941  0.2774  0.2635
  152SAPE   C2216845   2.534   1.059   9.888 -0.6049 -0.1916 -0.3183
  152SAPE   H2R16846   2.486   1.097   9.980 -0.8052  1.7740 -1.1881
  152SAPE   H2S16847   2.599   1.138   9.845  2.6131 -1.6821  1.4339
  152SAPE    C316848   2.635   0.655  10.037 -0.6872  0.0197  0.6652
  152SAPE    HX16849   2.528   0.632  10.020 -0.6906  0.9754 -0.7321
  152SAPE    HY16850   2.677   0.571  10.096 -0.4213  0.0657  0.5466
  152SAPE   O3116851   2.705   0.645   9.905  0.5567 -0.0134 -0.3760
  152SAPE   C3116852   2.829   0.617   9.917 -0.3303 -0.7551 -0.6061
  152SAPE   O3216853   2.897   0.631  10.013 -0.0628 -0.2057 -1.2209
  152SAPE   C3216854   2.863   0.561   9.780 -0.0508 -0.5506  0.1151
  152SAPE   H2X16855   2.890   0.645   9.713  0.8844 -1.6622 -0.9653
  152SAPE   H2Y16856   2.780   0.494   9.749 -0.9917  0.3379  0.6900
  152SAPE   C2316857   2.452   1.031   9.769  0.2923  0.1595 -0.3050
  152SAPE   H3R16858   2.376   0.957   9.802 -1.9346  1.6457 -1.8229
  152SAPE   H3S16859   2.513   0.983   9.690 -0.0957 -2.0575  0.6494
  152SAPE   C2416860   2.394   1.151   9.697 -0.1970 -0.6771  0.2374
  152SAPE   H4R16861   2.473   1.215   9.651 -0.6790 -2.0823 -2.8277
  152SAPE   H4S16862   2.342   1.216   9.770  0.4982  0.2865 -0.1120
  152SAPE   C2516863   2.299   1.110   9.581  0.2808  0.1287  0.3019
  152SAPE   H5R16864   2.240   1.019   9.601 -0.6344  0.6381 -0.0137
  152SAPE   C2616865   2.311   1.157   9.451 -0.2266  0.3626  0.5712
  152SAPE   H6R16866   2.236   1.124   9.377  0.4934 -0.5124  0.2162
  152SAPE   C2716867   2.418   1.255   9.391 -0.2650  0.1374  0.1530
  152SAPE   H7R16868   2.499   1.289   9.458  1.0432 -1.0122 -0.7811
  152SAPE   H7S16869   2.363   1.346   9.359 -2.6467 -1.8501 -1.8216
  152SAPE   C2816870   2.483   1.189   9.268  0.0427 -0.5174  0.1566
  152SAPE   H8R16871   2.557   1.112   9.291  0.9398  0.5354  0.9503
  152SAPE   C2916872   2.449   1.215   9.144  0.3418 -0.3547  0.5839
  152SAPE   H9R16873   2.520   1.174   9.071  0.0961  0.2727 -0.0138
  152SAPE  C21016874   2.350   1.312   9.091 -0.0241  0.5195 -0.0437
  152SAPE  H10R16875   2.400   1.409   9.068 -2.0840  1.8051  0.6890
  152SAPE  H10S16876   2.277   1.327   9.173 -1.3054 -4.0015 -0.1036
  152SAPE  C21116877   2.267   1.261   8.975 -0.5061  0.5475 -0.0646
  152SAPE  H11R16878   2.237   1.156   8.989 -0.2920  0.3724 -0.8853
  152SAPE  C21216879   2.233   1.323   8.863  0.5540 -0.3447  0.1035
  152SAPE  H12R16880   2.158   1.279   8.796 -0.5781  0.1269  1.0282
  152SAPE  C21316881   2.262   1.467   8.828  0.1143 -0.1291  0.0556
  152SAPE  H13R16882   2.321   1.454   8.735  0.7341  1.2089  0.2482
  152SAPE  H13S16883   2.324   1.516   8.906 -0.2305 -1.9464  1.5535
  152SAPE  C21416884   2.135   1.537   8.804 -0.3270 -0.4850  0.4060
  152SAPE  H14R16885   2.089   1.594   8.887  1.1035  2.7632 -0.8458
  152SAPE  C21516886   2.065   1.542   8.690 -0.3534  0.1901  0.4952
  152SAPE  H15R16887   1.968   1.594   8.697  0.2270  1.5534 -0.8445
  152SAPE  C21616888   2.105   1.478   8.558 -0.3393 -0.3240  0.3190
  152SAPE  H16R16889   2.025   1.407   8.529 -0.2697  0.1278 -1.0306
  152SAPE  H16S16890   2.196   1.414   8.561  1.8759  2.3997 -2.2158
  152SAPE  C21716891   2.116   1.575   8.438 -0.6877 -0.2129 -0.0230
  152SAPE  H17R16892   2.209   1.633   8.457  0.1520 -1.7840  0.8402
  152SAPE  H17S16893   2.032   1.647   8.433 -0.5204 -0.0031  0.1265
  152SAPE  C21816894   2.135   1.510   8.303 -0.2459  0.1415  0.8358
  152SAPE  H18R16895   2.046   1.447   8.282 -0.4339  0.1591  1.5555
  152SAPE  H18S16896   2.221   1.440   8.303 -1.7903 -1.9829 -1.5726
  152SAPE  C21916897   2.154   1.624   8.198  0.0980  0.4298  0.1130
  152SAPE  H19R16898   2.088   1.712   8.215  0.7789  0.6296  1.9876
  152SAPE  H19S16899   2.128   1.586   8.097  0.5212  1.1019 -0.2516
  152SAPE  C22016900   2.306   1.670   8.190  0.7164 -0.3692 -0.4871
  152SAPE  H20R16901   2.375   1.583   8.189  2.5734  0.7736  3.5239
  152SAPE  H20S16902   2.333   1.741   8.272  0.3822  2.6975 -2.8253
  152SAPE  H20T16903   2.321   1.729   8.097  2.3794  1.7289  0.9843
  152SAPE   C3316904   3.004   0.483   9.784 -0.5445 -0.3708 -0.7261
  152SAPE   H3X16905   3.004   0.425   9.878 -0.9718  2.5354  1.1848
  152SAPE   H3Y16906   3.085   0.558   9.787 -0.7711 -0.1505 -0.1211
  152SAPE   C3416907   3.026   0.399   9.657 -0.3758  0.1306 -1.0083
  152SAPE   H4X16908   2.939   0.331   9.656 -0.6310  0.4499 -1.9982
  152SAPE   H4Y16909   3.115   0.334   9.670  0.7496  1.2714 -2.5777
  152SAPE   C3516910   3.032   0.466   9.521  0.1740  0.0137  0.5142
  152SAPE   H5X16911   3.109   0.545   9.508  1.3559 -0.9475  1.4262
  152SAPE   H5Y16912   2.929   0.501   9.500  0.3268  0.7986  0.9903
  152SAPE   C3616913   3.059   0.360   9.410  0.1300 -0.2499  0.2159
  152SAPE   H6X16914   2.978   0.286   9.423 -0.9540  0.6578 -1.1145
  152SAPE   H6Y16915   3.159   0.325   9.445  0.4918 -2.2232 -2.3821
  152SAPE   C3716916   3.076   0.425   9.273  0.2947  0.5099 -0.0302
  152SAPE   H7X16917   3.157   0.500   9.264  2.0103 -1.1560  0.8248
  152SAPE   H7Y16918   2.983   0.479   9.247  0.4467  1.7996  1.9344
  152SAPE   C3816919   3.114   0.320   9.164  0.7113  0.8110  0.7069
  152SAPE   H8X16920   3.046   0.233   9.173 -1.5564  2.0495 -2.5932
  152SAPE   H8Y16921   3.215   0.282   9.193  0.2575 -0.7533  0.3770
  152SAPE   C3916922   3.100   0.380   9.025  0.7580  0.1638  0.9325
  152SAPE   H9X16923   3.162   0.471   9.009 -1.2243  1.2139 -1.7886
  152SAPE   H9Y16924   2.991   0.392   9.006  0.4423 -4.5035 -1.8756
  152SAPE  C31016925   3.145   0.293   8.905  0.1273  0.0218  0.0651
  152SAPE  H10X16926   3.073   0.209   8.904  0.5662 -0.3982  1.4074
  152SAPE  H10Y16927   3.241   0.241   8.922 -0.1916 -0.3203  0.8979
  152SAPE  C31116928   3.137   0.367   8.769 -0.6770 -0.2204  0.5754
  152SAPE  H11X16929   3.200   0.457   8.786  1.0750 -0.5638 -3.0331
  152SAPE  H11Y16930   3.036   0.408   8.749 -0.9072 -0.5498  1.0451
  152SAPE  C31216931   3.196   0.290   8.652  0.3628  0.7822 -0.1559
  152SAPE  H12X16932   3.125   0.213   8.617  1.7104 -0.3842 -0.4078
  152SAPE  H12Y16933   3.294   0.242   8.673  0.8732  1.0861 -1.7325
  152SAPE  C31316934   3.233   0.389   8.540  0.4725 -0.0830  0.8707
  152SAPE  H13X16935   3.308   0.460   8.580  1.2291 -1.3893  1.8623
  152SAPE  H13Y16936   3.145   0.444   8.500  1.4651 -0.4460 -2.0936
  152SAPE  C31416937   3.283   0.308   8.420  0.5173  0.8456  0.0625
  152SAPE  H14X16938   3.211   0.226   8.402 -0.0382  1.4033 -0.2859
  152SAPE  H14Y16939   3.383   0.262   8.435  1.5107  3.4625  2.5838
  152SAPE  C31516940   3.289   0.381   8.289  0.0305 -0.0474  0.5058
  152SAPE  H15X16941   3.368   0.458   8.301  0.9432 -1.2311  2.6169
  152SAPE  H15Y16942   3.195   0.440   8.286  0.2721  0.3214  0.0304
  152SAPE  C31616943   3.309   0.310   8.154  0.7634  0.1658 -0.3872
  152SAPE  H16X16944   3.224   0.239   8.145 -1.0910  1.9755  1.6994
  152SAPE  H16Y16945   3.406   0.256   8.160  0.8297  0.4871  2.3000
  152SAPE  C31716946   3.305   0.393   8.021 -0.3572  0.3003 -0.0451
  152SAPE  H17X16947   3.388   0.466   8.021  0.5844 -0.6533  2.5717
  152SAPE  H17Y16948   3.214   0.456   8.031  0.1333  1.1254 -0.6842
  152SAPE  C31816949   3.304   0.310   7.890 -0.1650 -0.4472  0.2678
  152SAPE  H18X16950   3.209   0.253   7.882  0.1688 -1.0767  0.6930
  152SAPE  H18Y16951   3.385   0.235   7.874 -1.8498 -2.5406  0.9684
  152SAPE  H18Z16952   3.287   0.375   7.802  0.2394 -1.1841 -0.3714
  153SAPE     N16953   4.461   2.721  10.653 -0.1420  0.2082 -0.6386
  153SAPE   HN116954   4.456   2.750  10.553 -0.8151 -1.2829 -1.0551
  153SAPE   HN216955   4.363   2.705  10.684 -0.4770  0.8735 -1.3155
  153SAPE   HN316956   4.518   2.795  10.700 -1.8864  1.3548 -0.2525
  153SAPE   C1216957   4.537   2.594  10.646 -0.6028 -0.2044 -0.1126
  153SAPE  H12A16958   4.555   2.554  10.748 -2.0563 -1.1581 -0.2003
  153SAPE  H12B16959   4.635   2.626  10.605 -0.8565 -0.9814 -1.3881
  153SAPE   C1116960   4.459   2.508  10.549  0.3640  0.1751 -0.2444
  153SAPE  H11A16961   4.529   2.422  10.536  0.7774  0.4261  0.3129
  153SAPE  H11B16962   4.443   2.555  10.449  0.6255  0.3980 -0.1822
  153SAPE     P16963   4.234   2.384  10.521  0.0639  0.3123  0.3554
  153SAPE   O1316964   4.173   2.280  10.611 -0.7709  0.1646  0.8550
  153SAPE   O1416965   4.153   2.481  10.447  0.2309  0.5187 -0.0357
  153SAPE   O1216966   4.331   2.467  10.612 -0.5206 -0.0017  0.1348
  153SAPE   O1116967   4.331   2.314  10.418 -0.0272 -0.0889 -0.4713
  153SAPE    C116968   4.332   2.337  10.274  0.9675 -0.0090  0.0285
  153SAPE    HA16969   4.360   2.443  10.260  1.4259  0.0100  0.9953
  153SAPE    HB16970   4.414   2.272  10.235  1.3187 -0.1635  1.0048
  153SAPE    C216971   4.205   2.313  10.192 -0.1341  0.3500  0.0510
  153SAPE    HS16972   4.116   2.351  10.246 -0.0643 -0.1246  0.5082
  153SAPE   O2116973   4.197   2.171  10.164 -0.0814 -0.2822  0.0483
  153SAPE   C2116974   4.067   2.132  10.155 -0.2374 -0.6810 -0.5871
  153SAPE   O2216975   3.967   2.199  10.181 -0.3309  0.2789  0.2319
  153SAPE   C2216976   4.063   2.002  10.077 -0.7551 -0.6238 -0.0835
  153SAPE   H2R16977   4.127   2.034   9.992  0.9849  0.2198  1.4677
  153SAPE   H2S16978   4.121   1.925  10.132  2.7457  1.1049 -1.0510
  153SAPE    C316979   4.229   2.393  10.055 -0.6328 -0.1299  0.1999
  153SAPE    HX16980   4.316   2.360   9.994 -2.4049  2.4795 -4.2372
  153SAPE    HY16981   4.248   2.500  10.081 -0.7863 -0.0430 -0.0500
  153SAPE   O3116982   4.132   2.382   9.951  0.4523  0.1475  0.0187
  153SAPE   C3116983   4.025   2.459   9.960 -1.6822 -0.0174  0.2032
  153SAPE   O3216984   4.006   2.534  10.055  0.1333 -0.5977  0.3065
  153SAPE   C3216985   3.921   2.437   9.846 -0.4810  0.3254 -0.8841
  153SAPE   H2X16986   3.875   2.537   9.840  1.3705  1.5824  2.6243
  153SAPE   H2Y16987   3.858   2.351   9.879  0.6469 -0.1761  0.0754
  153SAPE   C2316988   3.922   1.946  10.048 -0.2998  0.0569  0.2003
  153SAPE   H3R16989   3.869   1.991   9.961 -2.6369 -2.1070  0.3863
  153SAPE   H3S16990   3.853   1.956  10.134 -1.0629  0.5667 -0.4621
  153SAPE   C2416991   3.942   1.791  10.007  0.0946  0.1423  0.1333
  153SAPE   H4R16992   3.955   1.725  10.095 -1.5161  0.7542  0.8770
  153SAPE   H4S16993   4.036   1.787   9.949  0.3101 -0.0963  0.4974
  153SAPE   C2516994   3.821   1.745   9.927 -0.5050 -0.1790  0.3326
  153SAPE   H5R16995   3.727   1.776   9.973  0.1277  0.5679  1.1480
  153SAPE   C2616996   3.826   1.681   9.807 -0.0658 -0.5480  0.8378
  153SAPE   H6R16997   3.726   1.677   9.762 -0.1510  0.5287  0.8933
  153SAPE   C2716998   3.948   1.644   9.729  0.5385 -0.8842 -0.0498
  153SAPE   H7R16999   4.032   1.638   9.801  0.0315 -1.7581  0.4810
  153SAPE   H7S17000   3.978   1.720   9.653 -1.2237  1.5729  1.5420
  153SAPE   C2817001   3.918   1.510   9.678  0.5633 -0.0914 -0.0629
  153SAPE   H8R17002   3.933   1.424   9.745  4.6943  0.5067  0.0037
  153SAPE   C2917003   3.876   1.467   9.556  0.7499  0.1057  0.3341
  153SAPE   H9R17004   3.866   1.360   9.534  0.4684  0.4034 -1.0856
  153SAPE  C21017005   3.856   1.558   9.428 -0.5941 -0.2948 -0.0815
  153SAPE  H10R17006   3.904   1.658   9.437 -2.1429  0.5422 -0.6576
  153SAPE  H10S17007   3.747   1.579   9.433 -0.8110 -1.5729  0.8894
  153SAPE  C21117008   3.875   1.480   9.302  0.1652 -0.0165  0.2075
  153SAPE  H11R17009   3.804   1.396   9.307 -1.0326  0.7519 -2.1752
  153SAPE  C21217010   3.948   1.504   9.186 -1.0246 -0.3325 -0.2196
  153SAPE  H12R17011   3.944   1.440   9.097  1.0535  1.4080 -1.6905
  153SAPE  C21317012   4.043   1.628   9.163  0.1079  0.4931  0.3360
  153SAPE  H13R17013   4.070   1.668   9.263 -0.2274  0.5306  0.4148
  153SAPE  H13S17014   3.988   1.715   9.121  0.5565  0.8982  0.5869
  153SAPE  C21417015   4.166   1.593   9.086  0.1736 -1.1715  0.1874
  153SAPE  H14R17016   4.174   1.605   8.977 -0.1045 -1.2655  0.1557
  153SAPE  C21517017   4.277   1.548   9.149 -0.4621 -1.0959  0.3653
  153SAPE  H15R17018   4.366   1.527   9.088  1.2575  0.2891  2.2437
  153SAPE  C21617019   4.295   1.533   9.296 -0.2625  0.2998  0.8117
  153SAPE  H16R17020   4.351   1.437   9.306  1.4346  1.2530  0.9089
  153SAPE  H16S17021   4.197   1.518   9.346 -0.2553  0.5932  0.9114
  153SAPE  C21717022   4.370   1.641   9.379 -0.0197  0.1549 -0.6318
  153SAPE  H17R17023   4.301   1.728   9.378  0.1711  0.3144 -0.3310
  153SAPE  H17S17024   4.472   1.657   9.336  0.1671 -0.6367 -0.5041
  153SAPE  C21817025   4.377   1.592   9.522  0.8641  0.1693 -0.2741
  153SAPE  H18R17026   4.435   1.665   9.582  1.0404 -0.7884  0.7371
  153SAPE  H18S17027   4.431   1.496   9.530  0.7071  0.1142  0.1535
  153SAPE  C21917028   4.239   1.567   9.595 -0.2318 -0.2168 -0.5414
  153SAPE  H19R17029   4.173   1.492   9.547  0.1658 -0.6733 -0.3907
  153SAPE  H19S17030   4.188   1.665   9.587  0.0336 -0.2109 -2.5100
  153SAPE  C22017031   4.258   1.513   9.734 -0.5715 -0.1337 -0.6837
  153SAPE  H20R17032   4.166   1.479   9.786  0.8744 -1.2304  1.2978
  153SAPE  H20S17033   4.309   1.585   9.802  1.2205 -0.6328 -1.4265
  153SAPE  H20T17034   4.328   1.426   9.728 -2.4013 -1.6097 -1.6444
  153SAPE   C3317035   3.987   2.408   9.708 -0.3849 -0.1749 -0.1034
  153SAPE   H3X17036   4.013   2.302   9.731 -0.8512  0.1371  2.0576
  153SAPE   H3Y17037   4.073   2.474   9.683 -1.3112  1.1921  0.1926
  153SAPE   C3417038   3.885   2.396   9.595  0.1074 -0.0773  0.6345
  153SAPE   H4X17039   3.802   2.340   9.643  0.5969  0.0963  1.7249
  153SAPE   H4Y17040   3.934   2.332   9.519 -1.0213 -1.2328  0.8520
  153SAPE   C3517041   3.841   2.528   9.529 -0.0779 -0.2504 -0.5697
  153SAPE   H5X17042   3.853   2.602   9.611 -0.0871  0.1674 -0.9385
  153SAPE   H5Y17043   3.732   2.525   9.507 -0.4396 -0.8929  1.1532
  153SAPE   C3617044   3.917   2.576   9.402 -0.0690 -0.7484  0.1145
  153SAPE   H6X17045   4.027   2.566   9.419  0.6877  1.4864 -2.7856
  153SAPE   H6Y17046   3.896   2.680   9.370 -1.8235 -1.3744 -0.9125
  153SAPE   C3717047   3.886   2.494   9.275  0.0523 -0.1288 -0.1708
  153SAPE   H7X17048   3.776   2.503   9.272  0.1896  2.7281  0.3183
  153SAPE   H7Y17049   3.928   2.396   9.307 -1.4360 -0.5498  0.5656
  153SAPE   C3817050   3.951   2.559   9.148 -0.6722  0.6035 -0.4646
  153SAPE   H8X17051   3.912   2.660   9.123 -0.2866  0.6667 -0.8194
  153SAPE   H8Y17052   3.908   2.505   9.062  1.1387 -0.1329 -0.9561
  153SAPE   C3917053   4.106   2.565   9.159 -0.5497  0.6030 -0.0572
  153SAPE   H9X17054   4.133   2.464   9.198 -1.4702  0.7866  1.0918
  153SAPE   H9Y17055   4.140   2.637   9.236 -2.2473  1.1709  0.1917
  153SAPE  C31017056   4.170   2.619   9.030 -0.2753 -0.6680 -0.1713
  153SAPE  H10X17057   4.280   2.622   9.047 -0.4111  3.1245  0.9655
  153SAPE  H10Y17058   4.134   2.723   9.017 -1.5728 -0.6322  2.7366
  153SAPE  C31117059   4.141   2.532   8.912  0.6697  0.2557  0.7279
  153SAPE  H11X17060   4.111   2.429   8.942  0.6334 -0.2956 -1.0974
  153SAPE  H11Y17061   4.233   2.537   8.850  1.2993 -1.1509  1.5156
  153SAPE  C31217062   4.029   2.588   8.814  0.5932 -0.2624  0.3131
  153SAPE  H12X17063   4.078   2.685   8.790  4.7707 -1.9122  1.3368
  153SAPE  H12Y17064   3.930   2.612   8.859  0.0560  0.0990 -1.0224
  153SAPE  C31317065   3.986   2.502   8.696 -0.5388 -0.2595  0.2285
  153SAPE  H13X17066   4.071   2.491   8.626  1.2532 -1.1781  2.4148
  153SAPE  H13Y17067   3.908   2.563   8.646 -2.1265 -2.7007 -0.4610
  153SAPE  C31417068   3.923   2.360   8.719  0.2845 -0.0446 -0.1457
  153SAPE  H14X17069   4.000   2.290   8.758 -1.9300 -1.6047  1.7707
  153SAPE  H14Y17070   3.889   2.322   8.620  2.7816  0.4899 -1.2804
  153SAPE  C31517071   3.808   2.358   8.813  0.2238 -0.2706 -0.3605
  153SAPE  H15X17072   3.731   2.424   8.769  1.0974  1.3760  0.4978
  153SAPE  H15Y17073   3.839   2.418   8.901  2.6478 -1.6498 -0.1828
  153SAPE  C31617074   3.747   2.221   8.846 -0.7442 -0.3781  1.1241
  153SAPE  H16X17075   3.823   2.149   8.885 -1.1893 -2.1509 -1.0786
  153SAPE  H16Y17076   3.729   2.171   8.749  1.4699 -1.0364  0.9826
  153SAPE  C31717077   3.627   2.226   8.942  0.2218  0.2591  0.2064
  153SAPE  H17X17078   3.559   2.304   8.901  2.1618  0.1086 -3.7340
  153SAPE  H17Y17079   3.670   2.254   9.041  0.7854  1.0716 -0.2598
  153SAPE  C31817080   3.537   2.101   8.960 -0.1453 -1.0937 -0.0730
  153SAPE  H18X17081   3.446   2.114   9.023 -1.1429 -1.5202 -1.3727
  153SAPE  H18Y17082   3.599   2.022   9.006  1.1701  0.1911  0.4232
  153SAPE  H18Z17083   3.515   2.066   8.857  0.5289 -3.6923  0.5967
  154SAPE     N17084   4.239   2.327  10.869 -0.0488  0.1503  0.1655
  154SAPE   HN117085   4.214   2.376  10.781  1.3388  1.9050  0.6901
  154SAPE   HN217086   4.318   2.260  10.856  1.1713  1.6062 -0.1656
  154SAPE   HN317087   4.152   2.277  10.896 -0.1386  1.1274  1.8235
  154SAPE   C1217088   4.270   2.425  10.973 -0.2996 -0.4386 -0.0221
  154SAPE  H12A17089   4.374   2.399  11.001  0.2468 -0.9923 -2.3714
  154SAPE  H12B17090   4.215   2.422  11.070  1.5223 -1.8154  1.0421
  154SAPE   C1117091   4.258   2.563  10.925 -0.6786 -0.0522 -0.9430
  154SAPE  H11A17092   4.347   2.579  10.860  0.4068  0.7821  0.6769
  154SAPE  H11B17093   4.263   2.625  11.017 -1.4620 -2.6000  0.9343
  154SAPE     P17094   4.090   2.733  10.811  0.4000  0.3270  0.0735
  154SAPE   O1317095   3.964   2.730  10.731  0.3480  0.0463 -0.3642
  154SAPE   O1417096   4.090   2.814  10.931  0.4323 -0.3981 -0.1775
  154SAPE   O1217097   4.138   2.588  10.851  0.5150 -0.2097  0.2303
  154SAPE   O1117098   4.203   2.787  10.714  0.1519  0.2049 -0.1639
  154SAPE    C117099   4.223   2.934  10.708  0.3111 -0.3696  0.1447
  154SAPE    HA17100   4.169   2.988  10.789 -0.1861  0.1073 -0.4892
  154SAPE    HB17101   4.330   2.956  10.723  0.5147 -1.0466 -0.2710
  154SAPE    C217102   4.181   2.994  10.574 -0.0352 -0.6534 -0.4488
  154SAPE    HS17103   4.072   2.988  10.556  0.1756  0.6861 -2.4997
  154SAPE   O2117104   4.246   2.915  10.474 -0.4935  0.1993  0.2199
  154SAPE   C2117105   4.168   2.863  10.376  0.5945  0.3839 -0.1785
  154SAPE   O2217106   4.047   2.870  10.371 -0.3271 -0.0807 -0.2352
  154SAPE   C2217107   4.244   2.790  10.265  0.3868  0.7271 -0.3352
  154SAPE   H2R17108   4.350   2.821  10.274  0.5889 -0.4850  1.9844
  154SAPE   H2S17109   4.242   2.681  10.285  1.4032  0.7330 -0.1550
  154SAPE    C317110   4.213   3.145  10.556 -0.4172  0.2389  0.1849
  154SAPE    HX17111   4.309   3.171  10.605 -0.3132  1.3754 -0.5961
  154SAPE    HY17112   4.143   3.208  10.615  0.7053  0.7324  1.0379
  154SAPE   O3117113   4.225   3.187  10.419 -0.1678  0.9372 -0.1727
  154SAPE   C3117114   4.111   3.201  10.360  0.2094 -0.1519 -0.2272
  154SAPE   O3217115   4.004   3.191  10.412  0.2734  0.4018  0.3846
  154SAPE   C3217116   4.132   3.228  10.207 -0.0947 -0.7559  0.0451
  154SAPE   H2X17117   4.204   3.156  10.163 -2.3603 -2.9122 -0.3360
  154SAPE   H2Y17118   4.183   3.327  10.203  1.6871 -1.6286  0.2326
  154SAPE   C2317119   4.186   2.832  10.129 -0.1884 -0.1003 -0.3382
  154SAPE   H3R17120   4.164   2.941  10.125 -0.6411  0.3262  5.2084
  154SAPE   H3S17121   4.092   2.774  10.122  0.2080 -0.6663 -1.1777
  154SAPE   C2417122   4.272   2.793  10.007  0.0342 -0.1636  0.1589
  154SAPE   H4R17123   4.207   2.797   9.916  0.0395  0.3731  0.1731
  154SAPE   H4S17124   4.303   2.688  10.020  0.5589 -0.1385 -0.8299
  154SAPE   C2517125   4.395   2.881   9.996 -0.1101  0.0116  0.1099
  154SAPE   H5R17126   4.457   2.882  10.087  0.9687  0.4792 -0.6129
  154SAPE   C2617127   4.432   2.964   9.896 -1.1131 -0.8106 -0.0921
  154SAPE   H6R17128   4.524   3.019   9.917  0.4635 -1.8656 -3.5518
  154SAPE   C2717129   4.368   2.988   9.765  0.1191 -1.0158 -0.5890
  154SAPE   H7R17130   4.365   3.096   9.739  0.7791 -1.0782 -0.9488
  154SAPE   H7S17131   4.267   2.946   9.781 -0.4413 -0.1322 -1.6889
  154SAPE   C2817132   4.454   2.930   9.659 -0.2549 -0.0947 -0.1109
  154SAPE   H8R17133   4.552   2.884   9.678  0.6706  1.1645 -1.5386
  154SAPE   C2917134   4.412   2.931   9.531  0.2662 -0.1297 -0.0621
  154SAPE   H9R17135   4.470   2.877   9.455  1.2193 -0.4411  0.8672
  154SAPE  C21017136   4.281   2.989   9.483 -0.8330 -0.1368  0.4434
  154SAPE  H10R17137   4.294   3.099   9.479  1.1287 -0.3425  0.0061
  154SAPE  H10S17138   4.201   2.955   9.551 -0.9419  0.9999  0.9070
  154SAPE  C21117139   4.253   2.940   9.342  0.3521 -0.2812  0.3670
  154SAPE  H11R17140   4.259   2.831   9.322  0.8074 -0.1954  0.0251
  154SAPE  C21217141   4.213   3.020   9.242 -0.0722 -0.0542 -0.7256
  154SAPE  H12R17142   4.200   2.983   9.140 -0.7075  3.0391 -1.8724
  154SAPE  C21317143   4.181   3.174   9.244 -0.1666 -0.0505  0.1697
  154SAPE  H13R17144   4.267   3.245   9.247 -1.1663  1.2005  0.1536
  154SAPE  H13S17145   4.132   3.200   9.341 -0.3731  2.3158 -0.5069
  154SAPE  C21417146   4.093   3.219   9.136 -0.6894  0.6100  0.2549
  154SAPE  H14R17147   3.987   3.222   9.165 -1.0243 -3.3184 -0.0449
  154SAPE  C21517148   4.131   3.257   9.009 -0.4137 -0.0948  0.6182
  154SAPE  H15R17149   4.050   3.289   8.942 -0.9975  1.2452  1.9020
  154SAPE  C21617150   4.274   3.255   8.959  0.0595 -0.2114 -0.8728
  154SAPE  H16R17151   4.341   3.210   9.035  0.5159 -1.4739 -1.9749
  154SAPE  H16S17152   4.303   3.360   8.941 -1.0953  0.5305  1.3041
  154SAPE  C21717153   4.296   3.158   8.839  0.1851  0.7107  0.0626
  154SAPE  H17R17154   4.215   3.159   8.763  1.1600 -2.8316 -1.2385
  154SAPE  H17S17155   4.304   3.056   8.882 -1.6060  1.0231  1.2532
  154SAPE  C21817156   4.429   3.196   8.761 -0.0462  0.3709  0.1165
  154SAPE  H18R17157   4.518   3.198   8.828 -0.1691  2.0468  0.2737
  154SAPE  H18S17158   4.427   3.301   8.724  0.1850  1.3066  2.5810
  154SAPE  C21917159   4.472   3.098   8.652  0.7078 -0.0202 -0.1349
  154SAPE  H19R17160   4.383   3.093   8.586 -0.9175 -1.4414  2.0301
  154SAPE  H19S17161   4.489   2.996   8.694 -0.7655 -0.3265 -0.2537
  154SAPE  C22017162   4.587   3.147   8.567 -0.3298  0.7533  0.8512
  154SAPE  H20R17163   4.613   3.075   8.487  0.5092  0.9627  0.9237
  154SAPE  H20S17164   4.682   3.175   8.617 -0.3786  2.9708 -0.1617
  154SAPE  H20T17165   4.542   3.236   8.518 -1.3978  0.2848  0.9473
  154SAPE   C3317166   3.996   3.239  10.138  0.3527  0.7081 -0.1874
  154SAPE   H3X17167   3.942   3.331  10.168  0.1294 -0.4838  3.5381
  154SAPE   H3Y17168   3.928   3.154  10.161 -1.2395  1.6071 -1.3477
  154SAPE   C3417169   4.015   3.229   9.983 -0.1749 -0.0595 -0.8006
  154SAPE   H4X17170   3.911   3.222   9.945 -1.2423 -0.6860  1.9511
  154SAPE   H4Y17171   4.070   3.139   9.949  1.7173  0.7092  0.0374
  154SAPE   C3517172   4.094   3.346   9.912  0.8268  0.6730  0.2019
  154SAPE   H5X17173   4.186   3.361   9.971  0.8755 -1.2360  0.6630
  154SAPE   H5Y17174   4.030   3.437   9.920 -2.5767 -1.2488 -2.1824
  154SAPE   C3617175   4.135   3.331   9.765 -0.2151  0.2296  0.4507
  154SAPE   H6X17176   4.219   3.258   9.761 -0.7598 -0.4012  0.5344
  154SAPE   H6Y17177   4.176   3.429   9.732  0.6225  0.0122  0.8156
  154SAPE   C3717178   4.020   3.298   9.669 -0.8037 -0.2668 -0.4930
  154SAPE   H7X17179   3.977   3.197   9.691 -0.1935 -0.2030  1.1257
  154SAPE   H7Y17180   4.051   3.306   9.563 -0.4645  1.5696 -0.2883
  154SAPE   C3817181   3.897   3.383   9.690 -0.4509 -0.2524 -0.4152
  154SAPE   H8X17182   3.917   3.493   9.687 -0.9612 -0.1695 -3.1548
  154SAPE   H8Y17183   3.869   3.380   9.798 -2.5403  1.9665 -0.8088
  154SAPE   C3917184   3.776   3.350   9.599 -0.0942  0.0840  0.9120
  154SAPE   H9X17185   3.685   3.405   9.630  1.1977  2.2305  1.1368
  154SAPE   H9Y17186   3.753   3.242   9.608  0.7204 -0.2567 -0.7613
  154SAPE  C31017187   3.807   3.385   9.455  0.1152  0.0352 -0.2660
  154SAPE  H10X17188   3.885   3.312   9.423 -0.0141  0.3787 -1.4069
  154SAPE  H10Y17189   3.854   3.485   9.442  2.3103 -1.0324 -1.1265
  154SAPE  C31117190   3.690   3.372   9.366  0.6135 -0.2534  0.0868
  154SAPE  H11X17191   3.616   3.455   9.373  0.4282 -0.5752  3.0101
  154SAPE  H11Y17192   3.632   3.281   9.391  0.2228 -1.0343 -3.1652
  154SAPE  C31217193   3.735   3.374   9.223 -0.6330  0.1463  0.0106
  154SAPE  H12X17194   3.808   3.294   9.196 -1.0542 -0.8441  1.6689
  154SAPE  H12Y17195   3.792   3.468   9.208 -1.8640  0.8610 -0.3345
  154SAPE  C31317196   3.630   3.344   9.121 -0.1529  0.2888  0.1457
  154SAPE  H13X17197   3.527   3.385   9.132 -1.2010 -1.6420 -1.6583
  154SAPE  H13Y17198   3.607   3.236   9.118  0.7436  0.0663 -2.9603
  154SAPE  C31417199   3.685   3.386   8.977 -0.0742  0.2000  0.1148
  154SAPE  H14X17200   3.602   3.351   8.911 -1.2924  0.4509  1.4495
  154SAPE  H14Y17201   3.777   3.332   8.946 -0.1297  0.0357  0.2361
  154SAPE  C31517202   3.700   3.540   8.969  0.2775 -0.1075 -0.3192
  154SAPE  H15X17203   3.655   3.575   9.065  4.5284 -1.5924  2.5346
  154SAPE  H15Y17204   3.633   3.582   8.891  1.6083 -0.5885 -1.7708
  154SAPE  C31617205   3.841   3.581   8.949  0.8133  0.8444 -0.3903
  154SAPE  H16X17206   3.907   3.526   9.020  0.8203  0.5711 -0.6049
  154SAPE  H16Y17207   3.845   3.690   8.970 -0.2984  0.9243 -0.5527
  154SAPE  C31717208   3.900   3.545   8.812  0.5495 -0.1998 -0.4897
  154SAPE  H17X17209   3.818   3.546   8.737  1.3339 -0.9400 -1.3813
  154SAPE  H17Y17210   3.936   3.440   8.817 -0.2496 -0.4335  1.2750
  154SAPE  C31817211   4.030   3.619   8.770  0.2756  0.3386 -0.3915
  154SAPE  H18X17212   4.116   3.548   8.771 -0.1371 -0.1569  0.1803
  154SAPE  H18Y17213   4.054   3.715   8.821 -2.3590  0.7172  0.2884
  154SAPE  H18Z17214   4.029   3.647   8.663 -1.1957 -1.1866 -0.8213
  155SAPE     N17215   4.110   5.132  11.074  0.2044  0.4342 -0.1099
  155SAPE   HN117216   4.025   5.112  11.018  0.5412 -3.7148  0.5308
  155SAPE   HN217217   4.082   5.198  11.150 -3.7502  0.3300 -1.2394
  155SAPE   HN317218   4.178   5.185  11.016 -0.6989  2.1931  0.3721
  155SAPE   C1217219   4.163   4.998  11.117  0.3313  0.5004  0.4107
  155SAPE  H12A17220   4.081   4.963  11.183  0.9001 -0.1658  0.7786
  155SAPE  H12B17221   4.253   5.023  11.176 -0.0423  2.4635  0.2106
  155SAPE   C1117222   4.181   4.896  10.997 -0.2492 -0.0671  0.7911
  155SAPE  H11A17223   4.235   4.806  11.034  1.6102  0.5300 -0.3797
  155SAPE  H11B17224   4.244   4.938  10.916  1.0193 -1.9299  0.7587
  155SAPE     P17225   4.007   4.776  10.839  0.2541  0.0736  0.0182
  155SAPE   O1317226   4.029   4.630  10.873  0.0291 -0.2966  0.1555
  155SAPE   O1417227   3.866   4.814  10.820 -0.3947 -0.1490  0.3355
  155SAPE   O1217228   4.048   4.867  10.957 -0.4522 -0.2376  0.0843
  155SAPE   O1117229   4.090   4.809  10.707  0.1278 -0.1927 -0.0212
  155SAPE    C117230   4.069   4.948  10.666  0.3211 -0.0160  0.0441
  155SAPE    HA17231   3.970   4.989  10.693 -1.6929 -2.6152 -2.7890
  155SAPE    HB17232   4.139   5.013  10.723 -0.7792  1.6690 -0.4654
  155SAPE    C217233   4.077   4.971  10.516  0.8104 -0.1026  0.6645
  155SAPE    HS17234   4.058   5.079  10.498 -0.6979 -0.2288  1.3358
  155SAPE   O2117235   3.985   4.877  10.450 -0.5852  0.2051  0.5378
  155SAPE   C2117236   3.854   4.915  10.449 -0.2592 -1.0081 -0.5304
  155SAPE   O2217237   3.823   5.026  10.489  0.4516 -0.2737 -0.2120
  155SAPE   C2217238   3.764   4.815  10.369 -0.6533 -0.1936 -0.3844
  155SAPE   H2R17239   3.676   4.803  10.436  1.1272 -0.7105  1.9823
  155SAPE   H2S17240   3.739   4.866  10.273  0.8419  0.0378 -0.6809
  155SAPE    C317241   4.219   4.951  10.466  0.1265  0.4125  0.2119
  155SAPE    HX17242   4.257   4.857  10.511 -0.1213  0.6217  0.8564
  155SAPE    HY17243   4.271   5.032  10.520 -0.4060 -0.4753  2.1185
  155SAPE   O3117244   4.236   4.961  10.320 -0.5714 -0.7900 -0.5419
  155SAPE   C3117245   4.246   4.847  10.252  0.1020  0.5319  0.0421
  155SAPE   O3217246   4.259   4.735  10.308  0.0758 -0.0452 -0.8151
  155SAPE   C3217247   4.247   4.866  10.101 -0.7956 -0.2493 -0.1514
  155SAPE   H2X17248   4.182   4.953  10.079 -0.3414 -0.1024 -0.9158
  155SAPE   H2Y17249   4.212   4.774  10.050 -1.3489 -0.6805  0.9720
  155SAPE   C2317250   3.822   4.682  10.339  0.6180 -0.3844  0.2399
  155SAPE   H3R17251   3.836   4.627  10.435 -2.4427  0.6243  1.3594
  155SAPE   H3S17252   3.916   4.702  10.283 -1.6265  3.5658 -2.6111
  155SAPE   C2417253   3.733   4.615  10.231 -0.2180 -0.3802  0.2040
  155SAPE   H4R17254   3.774   4.512  10.221  0.4161 -0.1051 -0.0845
  155SAPE   H4S17255   3.746   4.672  10.136 -0.6877 -1.1901 -0.3528
  155SAPE   C2517256   3.588   4.613  10.273 -0.1773  0.3782  0.1126
  155SAPE   H5R17257   3.571   4.561  10.369 -0.1771 -0.4088 -0.3057
  155SAPE   C2617258   3.484   4.661  10.206 -0.6163  0.3963 -0.0069
  155SAPE   H6R17259   3.383   4.649  10.247 -0.3315 -0.4379  0.4732
  155SAPE   C2717260   3.495   4.734  10.075  0.0479  0.1300  0.0138
  155SAPE   H7R17261   3.527   4.666   9.994  0.9631 -0.1336  0.5843
  155SAPE   H7S17262   3.578   4.808  10.084  0.8261 -0.7751  0.3929
  155SAPE   C2817263   3.381   4.814  10.031  0.6043 -0.4770 -0.4979
  155SAPE   H8R17264   3.303   4.839  10.105  0.4162  0.4364 -0.9871
  155SAPE   C2917265   3.370   4.871   9.908 -0.6932 -0.6250 -0.4354
  155SAPE   H9R17266   3.278   4.928   9.892  1.7015  4.5262  1.6996
  155SAPE  C21017267   3.463   4.865   9.789 -0.0043  0.4032 -0.6853
  155SAPE  H10R17268   3.437   4.783   9.719  0.9141  1.4982 -2.4109
  155SAPE  H10S17269   3.569   4.848   9.820 -0.4279  1.5539  1.5655
  155SAPE  C21117270   3.463   4.997   9.710  0.1549 -0.6614 -0.3107
  155SAPE  H11R17271   3.415   5.081   9.762 -0.1456 -0.7959 -0.3706
  155SAPE  C21217272   3.516   5.016   9.588  0.2095 -0.1881 -0.2269
  155SAPE  H12R17273   3.537   5.120   9.559  2.0860 -0.4933 -0.0435
  155SAPE  C21317274   3.575   4.906   9.504  0.0869  0.1545  0.4245
  155SAPE  H13R17275   3.524   4.810   9.524 -1.4777  1.5061  3.7657
  155SAPE  H13S17276   3.681   4.888   9.533  0.5148  1.4054 -0.2880
  155SAPE  C21417277   3.566   4.940   9.361 -0.1599  0.2634 -0.1807
  155SAPE  H14R17278   3.467   4.918   9.319 -0.1765  0.8090 -0.4315
  155SAPE  C21517279   3.667   4.988   9.284 -0.1015  0.1717 -0.2239
  155SAPE  H15R17280   3.657   5.006   9.176 -0.0751  4.2730  0.3181
  155SAPE  C21617281   3.812   4.992   9.332 -0.0443 -0.1826 -0.4909
  155SAPE  H16R17282   3.843   4.891   9.363 -5.0115 -2.1788 -1.0793
  155SAPE  H16S17283   3.808   5.050   9.427 -2.9404 -1.2403  0.1386
  155SAPE  C21717284   3.908   5.064   9.237 -0.4903  0.3136  0.2365
  155SAPE  H17R17285   3.917   5.009   9.141  0.1693  1.3124 -0.3050
  155SAPE  H17S17286   4.015   5.067   9.269  0.0126  0.0548 -1.2982
  155SAPE  C21817287   3.868   5.205   9.203  0.0180 -0.5172  0.2854
  155SAPE  H18R17288   3.844   5.255   9.299 -3.1455 -0.5485 -0.3841
  155SAPE  H18S17289   3.777   5.208   9.139 -0.2439  0.1977  0.6778
  155SAPE  C21917290   3.978   5.277   9.124 -0.7412  0.0675  0.3699
  155SAPE  H19R17291   4.013   5.219   9.036 -0.3775  1.2767 -0.3117
  155SAPE  H19S17292   4.067   5.288   9.191  0.7800 -1.3652 -1.3034
  155SAPE  C22017293   3.936   5.408   9.075 -0.8585 -0.0193  0.3500
  155SAPE  H20R17294   3.903   5.481   9.151  1.1114  1.1307  0.1575
  155SAPE  H20S17295   3.852   5.395   9.004 -1.7556  1.2203  1.1618
  155SAPE  H20T17296   4.012   5.460   9.012 -2.8516  0.0449 -2.1815
  155SAPE   C3317297   4.387   4.894  10.050 -0.6114  0.6690  0.4826
  155SAPE   H3X17298   4.460   4.820  10.089  2.0700  1.8711 -1.8463
  155SAPE   H3Y17299   4.429   4.982  10.103  0.0472 -0.0757  1.2057
  155SAPE   C3417300   4.403   4.921   9.899 -0.5509 -0.9155 -0.0575
  155SAPE   H4X17301   4.349   5.017   9.884 -1.1982 -1.0833  1.0687
  155SAPE   H4Y17302   4.342   4.849   9.839 -1.0682  0.1022 -0.7881
  155SAPE   C3517303   4.548   4.910   9.842  0.5839 -0.2798  0.1385
  155SAPE   H5X17304   4.610   4.847   9.910 -0.1561  1.4807  2.5874
  155SAPE   H5Y17305   4.602   5.005   9.863  2.0666 -0.0890 -3.8151
  155SAPE   C3617306   4.569   4.867   9.697 -0.2349  0.2836 -0.0539
  155SAPE   H6X17307   4.489   4.805   9.650  0.6190 -1.0475  0.1968
  155SAPE   H6Y17308   4.650   4.792   9.700  1.4662  2.0882  1.1341
  155SAPE   C3717309   4.592   4.981   9.597 -0.2549 -0.9807  0.1954
  155SAPE   H7X17310   4.665   5.052   9.642 -0.9423  0.4569 -0.8622
  155SAPE   H7Y17311   4.502   5.043   9.575  0.2361 -0.0661  0.7008
  155SAPE   C3817312   4.657   4.934   9.465  0.3645 -0.5729 -0.7946
  155SAPE   H8X17313   4.584   4.861   9.424 -0.7013  0.9640 -1.7314
  155SAPE   H8Y17314   4.751   4.877   9.479  0.7726  0.4127  0.6842
  155SAPE   C3917315   4.689   5.034   9.356  0.1307  0.2506 -0.2787
  155SAPE   H9X17316   4.757   5.104   9.409  0.2125 -0.8192  1.1122
  155SAPE   H9Y17317   4.593   5.084   9.328 -0.8822 -0.2702  1.9993
  155SAPE  C31017318   4.764   4.991   9.228  0.3359  0.3338  0.1687
  155SAPE  H10X17319   4.853   4.939   9.268  1.4071  0.8309 -1.4688
  155SAPE  H10Y17320   4.806   5.080   9.177  2.0210 -0.8127 -0.5072
  155SAPE  C31117321   4.682   4.899   9.135  0.1658 -1.3007 -0.1264
  155SAPE  H11X17322   4.582   4.940   9.107 -0.4252 -0.8269  2.4471
  155SAPE  H11Y17323   4.666   4.809   9.198 -0.5103 -0.5490  0.8051
  155SAPE  C31217324   4.750   4.867   9.012  0.3857  0.1030  0.5906
  155SAPE  H12X17325   4.852   4.824   9.020  0.2947 -0.5375 -1.1680
  155SAPE  H12Y17326   4.759   4.955   8.945 -0.1698  0.6962  1.2786
  155SAPE  C31317327   4.668   4.765   8.930  0.3702 -0.1174 -0.3673
  155SAPE  H13X17328   4.567   4.805   8.907 -0.3448 -1.1140  0.8851
  155SAPE  H13Y17329   4.662   4.675   8.995 -1.2504  1.7916  2.2981
  155SAPE  C31417330   4.729   4.736   8.789  0.1686  0.0207  1.0945
  155SAPE  H14X17331   4.831   4.699   8.811  0.8769  1.3864  0.2364
  155SAPE  H14Y17332   4.741   4.830   8.731  0.0693  0.3921  1.6776
  155SAPE  C31517333   4.653   4.639   8.691  0.1831 -0.6560 -0.3089
  155SAPE  H15X17334   4.715   4.595   8.610  0.9341 -1.1992  0.5422
  155SAPE  H15Y17335   4.560   4.686   8.654  0.7125  1.1906  0.5690
  155SAPE  C31617336   4.612   4.510   8.757  1.1728 -0.0054  0.1246
  155SAPE  H16X17337   4.530   4.541   8.826  0.5448 -0.6302 -0.3336
  155SAPE  H16Y17338   4.699   4.474   8.816  2.0253  1.0299 -0.4555
  155SAPE  C31717339   4.556   4.402   8.666 -0.3675 -0.1911 -0.6038
  155SAPE  H17X17340   4.630   4.378   8.587 -0.0490 -1.4409  0.0564
  155SAPE  H17Y17341   4.469   4.443   8.609  0.9525 -0.9196 -3.3103
  155SAPE  C31817342   4.509   4.282   8.744  0.1031 -0.0967  0.3237
  155SAPE  H18X17343   4.459   4.207   8.680  0.2655 -0.2065  0.3275
  155SAPE  H18Y17344   4.447   4.310   8.832  0.0364 -1.2956  0.6758
  155SAPE  H18Z17345   4.592   4.223   8.789 -0.7419 -0.0419  2.0325
  156SAPE     N17346   1.982   1.789  10.753  0.2531  0.1920 -0.6281
  156SAPE   HN117347   1.880   1.807  10.740  0.2085  0.9239  0.6158
  156SAPE   HN217348   1.992   1.702  10.809 -2.2683  0.3895  0.2483
  156SAPE   HN317349   2.020   1.870  10.806 -0.4218  1.6477 -2.2532
  156SAPE   C1217350   2.046   1.762  10.621 -0.6837  0.2034  0.4835
  156SAPE  H12A17351   2.131   1.692  10.635  0.6061  1.7238  0.5911
  156SAPE  H12B17352   2.090   1.856  10.581 -1.2603  0.3898  0.2702
  156SAPE   C1117353   1.941   1.713  10.518 -0.0341 -0.1821 -0.2052
  156SAPE  H11A17354   1.988   1.687  10.421 -0.2444 -0.8438 -0.1329
  156SAPE  H11B17355   1.866   1.791  10.491  0.4286  0.4773  0.4023
  156SAPE     P17356   1.856   1.451  10.523  0.2554  0.1192  0.0875
  156SAPE   O1317357   1.994   1.398  10.550 -0.0578  0.0517  0.0605
  156SAPE   O1417358   1.745   1.377  10.579 -0.0509 -0.8518 -0.1820
  156SAPE   O1217359   1.864   1.598  10.568  0.0455  0.0749  0.7608
  156SAPE   O1117360   1.837   1.452  10.366  0.4472 -0.4390  0.2977
  156SAPE    C117361   1.894   1.343  10.290 -0.5387 -0.9216  0.0699
  156SAPE    HA17362   2.000   1.326  10.320 -0.6217  0.0094  0.9856
  156SAPE    HB17363   1.842   1.247  10.311 -0.4416 -0.1530  5.0737
  156SAPE    C217364   1.890   1.379  10.135 -0.8814  0.4213 -0.5229
  156SAPE    HS17365   1.785   1.412  10.119 -0.1408  4.0280  1.0820
  156SAPE   O2117366   1.906   1.250  10.063 -0.6991  0.1790  0.0602
  156SAPE   C2117367   1.797   1.170  10.065  0.2327  0.2521  0.9912
  156SAPE   O2217368   1.696   1.189  10.134 -0.5389 -0.5042 -0.1157
  156SAPE   C2217369   1.818   1.051   9.966 -0.0283 -0.0607  0.2831
  156SAPE   H2R17370   1.908   0.992   9.993  2.8192  3.1500 -1.4018
  156SAPE   H2S17371   1.728   0.984   9.972 -0.0713  0.0783  1.3550
  156SAPE    C317372   1.993   1.490  10.079 -0.5106  0.6463 -0.1676
  156SAPE    HX17373   2.094   1.445  10.092 -1.0198 -1.2545 -2.2012
  156SAPE    HY17374   1.972   1.580  10.140  0.3949 -0.6208  2.1601
  156SAPE   O3117375   1.961   1.511   9.938 -0.7304  0.6630 -0.1975
  156SAPE   C3117376   2.022   1.435   9.856 -0.3777  0.0148 -0.3419
  156SAPE   O3217377   2.099   1.347   9.883 -0.1863  0.1126  0.1871
  156SAPE   C3217378   1.982   1.475   9.715 -0.0248 -0.1049 -0.3632
  156SAPE   H2X17379   2.028   1.575   9.702 -1.4015  0.5793 -0.1390
  156SAPE   H2Y17380   1.871   1.477   9.720 -0.1045  0.4467 -1.8026
  156SAPE   C2317381   1.837   1.107   9.821  0.7644  0.1908  0.4175
  156SAPE   H3R17382   1.928   1.169   9.803  2.8098 -2.2335  1.6599
  156SAPE   H3S17383   1.753   1.176   9.798  1.1070 -0.7064 -4.4637
  156SAPE   C2417384   1.842   0.996   9.709  0.1544  0.4377  0.0773
  156SAPE   H4R17385   1.760   0.922   9.725  0.6538 -0.4584 -1.3028
  156SAPE   H4S17386   1.939   0.944   9.725 -0.0272  0.3450  0.9555
  156SAPE   C2517387   1.816   1.052   9.566 -0.1197  0.7587 -0.4044
  156SAPE   H5R17388   1.730   1.120   9.566  0.1307  1.0822 -0.5390
  156SAPE   C2617389   1.877   1.029   9.455 -0.6175 -0.1761  0.8076
  156SAPE   H6R17390   1.845   1.089   9.368 -0.0044  0.7421  1.2001
  156SAPE   C2717391   2.002   0.938   9.435 -0.7048  0.1961 -0.0449
  156SAPE   H7R17392   2.020   0.877   9.526 -1.2596 -0.9071 -0.6611
  156SAPE   H7S17393   2.095   0.998   9.423 -0.3383 -0.6522 -1.7854
  156SAPE   C2817394   1.973   0.854   9.312 -0.1662 -0.2001 -0.4738
  156SAPE   H8R17395   1.885   0.789   9.314 -0.0034 -0.4894 -1.8398
  156SAPE   C2917396   2.052   0.846   9.198 -0.3311 -0.3148 -0.1759
  156SAPE   H9R17397   2.019   0.783   9.114 -1.9818 -0.3053  0.4251
  156SAPE  C21017398   2.183   0.917   9.171  0.7304 -0.5915  0.0622
  156SAPE  H10R17399   2.225   0.927   9.274 -1.6323 -1.6843  1.2186
  156SAPE  H10S17400   2.147   1.011   9.125 -0.0169 -0.3807  1.0363
  156SAPE  C21117401   2.277   0.864   9.072  0.0864  0.4874 -0.2928
  156SAPE  H11R17402   2.372   0.844   9.125 -0.2701  1.2411  0.6576
  156SAPE  C21217403   2.263   0.853   8.943 -0.2670 -0.0963 -0.3485
  156SAPE  H12R17404   2.351   0.828   8.883  0.3092  1.0093  0.0189
  156SAPE  C21317405   2.142   0.893   8.869 -0.0029 -0.1497 -0.8788
  156SAPE  H13R17406   2.067   0.939   8.936 -0.1188 -0.4341 -0.8103
  156SAPE  H13S17407   2.101   0.800   8.823  0.1533 -0.5398 -0.2388
  156SAPE  C21417408   2.180   0.994   8.759 -0.6326 -0.2507 -0.7818
  156SAPE  H14R17409   2.287   1.015   8.746  0.2326 -2.1091  2.1706
  156SAPE  C21517410   2.096   1.058   8.674 -0.8498  0.0967 -0.2419
  156SAPE  H15R17411   2.118   1.146   8.612 -2.0232  0.5796  0.0066
  156SAPE  C21617412   1.947   1.038   8.690 -0.7128 -0.2936  0.4691
  156SAPE  H16R17413   1.913   0.941   8.730 -0.6710 -0.9596 -1.0461
  156SAPE  H16S17414   1.905   1.032   8.587  1.6571  0.5603 -0.6074
  156SAPE  C21717415   1.894   1.155   8.773 -0.1591  0.3834 -0.4700
  156SAPE  H17R17416   1.873   1.251   8.721 -2.3526  0.2507  0.0387
  156SAPE  H17S17417   1.963   1.175   8.857  1.2713 -1.9719 -1.0106
  156SAPE  C21817418   1.758   1.125   8.835  0.9339 -0.6977 -0.4957
  156SAPE  H18R17419   1.734   1.218   8.891  0.5853 -1.2035  0.2084
  156SAPE  H18S17420   1.756   1.035   8.900 -0.3570 -1.3564 -1.3949
  156SAPE  C21917421   1.649   1.125   8.732  1.0245 -0.1929  0.2473
  156SAPE  H19R17422   1.674   1.041   8.664  0.0111  0.6067 -1.1872
  156SAPE  H19S17423   1.640   1.223   8.679  2.6087  0.1163  0.5184
  156SAPE  C22017424   1.512   1.093   8.799  0.7297 -0.6390  0.5755
  156SAPE  H20R17425   1.421   1.097   8.735  0.5930  0.3043  0.8106
  156SAPE  H20S17426   1.491   1.162   8.884 -2.4004  0.4535 -0.9092
  156SAPE  H20T17427   1.518   0.988   8.834  2.9473 -0.7383  0.0239
  156SAPE   C3317428   2.040   1.387   9.593  0.0311  0.1321 -0.7309
  156SAPE   H3X17429   1.996   1.286   9.607 -2.0025  0.9946 -0.5108
  156SAPE   H3Y17430   2.151   1.387   9.591  0.0255 -0.0574 -1.1089
  156SAPE   C3417431   1.981   1.457   9.463  0.2069 -0.5696 -0.4153
  156SAPE   H4X17432   1.983   1.568   9.472 -1.9684 -0.5316  0.1928
  156SAPE   H4Y17433   1.878   1.419   9.447 -0.4471  1.3376 -1.0338
  156SAPE   C3517434   2.058   1.414   9.337 -0.0080  0.0315  0.1574
  156SAPE   H5X17435   2.024   1.313   9.307  0.3533  0.1910 -0.8235
  156SAPE   H5Y17436   2.167   1.400   9.352  0.0560 -1.4812 -1.4018
  156SAPE   C3617437   2.028   1.510   9.217  0.3158 -0.0220 -1.0573
  156SAPE   H6X17438   2.075   1.461   9.129 -0.1021 -1.7798 -0.3621
  156SAPE   H6Y17439   2.073   1.611   9.227  0.5050 -0.1177 -0.9179
  156SAPE   C3717440   1.878   1.537   9.195 -0.9964 -0.4105  0.8049
  156SAPE   H7X17441   1.837   1.612   9.265 -1.4868 -0.0396  0.1326
  156SAPE   H7Y17442   1.821   1.442   9.202 -0.0054 -1.2158 -1.1690
  156SAPE   C3817443   1.855   1.581   9.054 -0.2647  0.9541  0.5385
  156SAPE   H8X17444   1.889   1.491   8.997  1.0814  0.5904  1.8395
  156SAPE   H8Y17445   1.914   1.669   9.019  0.1252  0.1027 -1.0682
  156SAPE   C3917446   1.715   1.616   9.007 -0.3115  0.4112 -0.5390
  156SAPE   H9X17447   1.711   1.637   8.897  1.8750  0.1300 -0.7134
  156SAPE   H9Y17448   1.676   1.709   9.055 -0.9502  0.1700 -0.5828
  156SAPE  C31017449   1.610   1.504   9.032 -0.0050  0.2136  0.4055
  156SAPE  H10X17450   1.666   1.408   9.031 -0.2697  0.0190 -1.7409
  156SAPE  H10Y17451   1.545   1.499   8.942 -0.0125  0.3340  0.4045
  156SAPE  C31117452   1.533   1.537   9.156 -0.3070 -0.5128 -0.4863
  156SAPE  H11X17453   1.462   1.619   9.132 -0.8376 -1.3336 -1.8582
  156SAPE  H11Y17454   1.609   1.566   9.231  1.6515 -1.5129 -1.9847
  156SAPE  C31217455   1.451   1.416   9.211  0.0869  0.4461 -0.1195
  156SAPE  H12X17456   1.402   1.361   9.127  0.6148  1.0252 -0.8211
  156SAPE  H12Y17457   1.370   1.447   9.281 -0.1660 -1.5099  0.5175
  156SAPE  C31317458   1.541   1.311   9.275 -0.3328 -0.6253  0.3778
  156SAPE  H13X17459   1.637   1.306   9.219 -1.9016  0.1531 -2.5769
  156SAPE  H13Y17460   1.489   1.214   9.285  0.2662 -0.7955  2.1475
  156SAPE  C31417461   1.572   1.354   9.427  0.4126 -0.2100  0.1803
  156SAPE  H14X17462   1.621   1.454   9.423 -1.4547  0.9170  2.8533
  156SAPE  H14Y17463   1.641   1.280   9.473 -0.5641 -1.3463 -0.1298
  156SAPE  C31517464   1.443   1.358   9.517  0.3478  0.5154  0.2204
  156SAPE  H15X17465   1.381   1.271   9.484  1.6585 -0.2366 -0.3093
  156SAPE  H15Y17466   1.381   1.444   9.484 -0.2104 -0.5513 -1.6915
  156SAPE  C31617467   1.476   1.346   9.666  0.1652  0.4212 -1.0100
  156SAPE  H16X17468   1.526   1.248   9.680  0.0858  0.1171 -2.6699
  156SAPE  H16Y17469   1.386   1.340   9.730  1.2700  1.6375  0.7274
  156SAPE  C31717470   1.572   1.455   9.722 -0.1460 -0.1291 -0.7061
  156SAPE  H17X17471   1.537   1.548   9.673  0.3009  0.5242  0.1829
  156SAPE  H17Y17472   1.675   1.439   9.685 -0.3806 -0.3805 -1.2509
  156SAPE  C31817473   1.565   1.485   9.874 -0.2722  0.6264 -0.2153
  156SAPE  H18X17474   1.460   1.493   9.912 -0.6287 -3.5784  0.1435
  156SAPE  H18Y17475   1.618   1.581   9.888  0.5313 -0.1391  2.9665
  156SAPE  H18Z17476   1.619   1.403   9.926 -0.8717  0.0929 -0.4075
  157SAPE     N17477   6.777   0.629  11.025 -0.7277 -0.3882 -0.2156
  157SAPE   HN117478   6.709   0.671  10.957 -0.1200  0.7918 -0.1199
  157SAPE   HN217479   6.726   0.565  11.089  1.9552 -2.8377 -0.3513
  157SAPE   HN317480   6.815   0.702  11.087  2.4812 -2.1833  0.1301
  157SAPE   C1217481   6.881   0.570  10.942  0.0644  0.6507  0.4405
  157SAPE  H12A17482   6.949   0.524  11.016 -1.5449 -0.1429  1.4910
  157SAPE  H12B17483   6.940   0.643  10.884  1.5951 -1.7847 -1.2515
  157SAPE   C1117484   6.832   0.464  10.842 -0.1172 -0.2154 -0.1893
  157SAPE  H11A17485   6.797   0.372  10.894 -1.3813  2.3571  4.0252
  157SAPE  H11B17486   6.916   0.440  10.774 -0.5057  1.8067 -1.4616
  157SAPE     P17487   6.632   0.438  10.669 -0.0272  0.3795  0.2200
  157SAPE   O1317488   6.600   0.309  10.736  0.1232  0.1443  0.0990
  157SAPE   O1417489   6.524   0.525  10.617 -0.1047 -0.9818  0.4826
  157SAPE   O1217490   6.723   0.522  10.766  0.3242  0.5560  0.2559
  157SAPE   O1117491   6.741   0.416  10.561 -0.3471 -0.4558 -0.4332
  157SAPE    C117492   6.788   0.518  10.470 -0.4534  0.1946 -0.3445
  157SAPE    HA17493   6.770   0.620  10.511 -2.2601  0.0649 -0.7345
  157SAPE    HB17494   6.897   0.507  10.451 -0.4495  1.0489 -0.8884
  157SAPE    C217495   6.720   0.505  10.328 -0.7683 -0.1650 -0.1590
  157SAPE    HS17496   6.627   0.566  10.330 -1.6315 -1.4645  0.4507
  157SAPE   O2117497   6.699   0.365  10.304 -0.0635 -0.5570  0.0019
  157SAPE   C2117498   6.617   0.324  10.210  0.0891  0.7174 -0.6813
  157SAPE   O2217499   6.543   0.392  10.147 -0.2603 -0.1435 -0.2232
  157SAPE   C2217500   6.632   0.170  10.203 -0.3356 -0.5824 -0.2017
  157SAPE   H2R17501   6.726   0.129  10.244  0.9840  2.1738 -0.2635
  157SAPE   H2S17502   6.544   0.128  10.257 -1.3997  1.1179 -0.5295
  157SAPE    C317503   6.827   0.554  10.218 -0.0757  0.7960  0.5706
  157SAPE    HX17504   6.900   0.471  10.223 -0.6468  0.3421  1.9219
  157SAPE    HY17505   6.869   0.650  10.256 -1.0850  2.0281 -1.2552
  157SAPE   O3117506   6.775   0.563  10.081  0.1978 -0.0075 -0.3926
  157SAPE   C3117507   6.722   0.678  10.057  0.0257 -0.0533  0.0279
  157SAPE   O3217508   6.732   0.775  10.129 -0.1678  0.5832  0.2425
  157SAPE   C3217509   6.665   0.686   9.913 -0.4831  0.2373  0.1029
  157SAPE   H2X17510   6.587   0.606   9.908  0.5618 -0.7835 -0.2747
  157SAPE   H2Y17511   6.749   0.663   9.845 -2.0673  1.1466 -2.2694
  157SAPE   C2317512   6.631   0.134  10.059  0.2384 -0.5486 -0.1594
  157SAPE   H3R17513   6.724   0.174  10.013  0.2926  0.7687  1.0157
  157SAPE   H3S17514   6.547   0.188  10.010 -1.0723  0.1851  2.6875
  157SAPE   C2417515   6.603  -0.017  10.041 -0.2356  0.1198  0.7244
  157SAPE   H4R17516   6.570  -0.038   9.937 -1.5165 -0.5346  1.2351
  157SAPE   H4S17517   6.511  -0.045  10.096 -1.3180  0.2592 -0.9537
  157SAPE   C2517518   6.730  -0.088  10.083  0.4671  0.5138 -0.0134
  157SAPE   H5R17519   6.729  -0.107  10.191  2.0783 -0.2445 -0.1096
  157SAPE   C2617520   6.836  -0.124  10.004  0.5550 -0.0674  0.7605
  157SAPE   H6R17521   6.924  -0.169  10.053  2.5738  2.1670 -0.5599
  157SAPE   C2717522   6.840  -0.103   9.856  0.2708 -0.6200 -0.1926
  157SAPE   H7R17523   6.809   0.000   9.828  2.2905  0.0298 -0.1813
  157SAPE   H7S17524   6.779  -0.172   9.793  0.1846  0.4148 -1.2751
  157SAPE   C2817525   6.980  -0.130   9.808 -0.2088  0.2189 -0.0442
  157SAPE   H8R17526   7.046  -0.195   9.868 -1.1826 -0.3464  0.4488
  157SAPE   C2917527   7.020  -0.089   9.684 -0.0513  0.6354  0.4453
  157SAPE   H9R17528   7.120  -0.118   9.649  0.0847  0.4039  1.0100
  157SAPE  C21017529   6.935  -0.022   9.573 -0.2317 -0.3145  0.4773
  157SAPE  H10R17530   6.871   0.060   9.612 -1.8746 -0.2062 -2.1705
  157SAPE  H10S17531   6.864  -0.095   9.529 -0.1952  0.9271 -1.8149
  157SAPE  C21117532   6.999   0.037   9.448  0.0627  0.7594 -0.9584
  157SAPE  H11R17533   7.105   0.068   9.447 -0.1299  1.4109 -1.1181
  157SAPE  C21217534   6.931   0.075   9.337 -0.2827  0.5680  0.7616
  157SAPE  H12R17535   6.987   0.133   9.262 -2.5116  0.8279 -0.7939
  157SAPE  C21317536   6.779   0.059   9.307  0.0147 -0.3059 -0.6313
  157SAPE  H13R17537   6.737   0.161   9.317  1.1618 -0.0061  2.0202
  157SAPE  H13S17538   6.720  -0.002   9.379 -0.1458  0.8374  0.2242
  157SAPE  C21417539   6.768   0.010   9.157 -0.0023 -0.1758  0.6646
  157SAPE  H14R17540   6.777  -0.099   9.150 -0.0097 -0.2502  1.6072
  157SAPE  C21517541   6.754   0.095   9.052 -0.2867  0.1898 -0.7475
  157SAPE  H15R17542   6.758   0.057   8.949 -1.7285  0.3431 -0.8784
  157SAPE  C21617543   6.740   0.247   9.053  0.3944 -0.6068  0.1711
  157SAPE  H16R17544   6.696   0.280   9.149  1.0726 -1.8097  0.9287
  157SAPE  H16S17545   6.666   0.285   8.980 -0.5292 -1.6282  0.5445
  157SAPE  C21717546   6.880   0.319   9.036  0.4547  0.1892 -0.0519
  157SAPE  H17R17547   6.932   0.303   9.132 -3.0681  2.1072  2.3974
  157SAPE  H17S17548   6.858   0.427   9.022  1.3597  0.1083 -2.5767
  157SAPE  C21817549   6.976   0.276   8.923  0.5111  0.4657  1.0612
  157SAPE  H18R17550   6.988   0.166   8.934 -1.8642 -0.1813 -1.7872
  157SAPE  H18S17551   7.076   0.322   8.938  0.9425 -0.1974  0.3281
  157SAPE  C21917552   6.922   0.310   8.782  0.8332 -0.7937 -0.4464
  157SAPE  H19R17553   6.813   0.287   8.781 -0.5515  4.4145 -1.1485
  157SAPE  H19S17554   6.971   0.237   8.715  0.5642 -0.9561 -0.4683
  157SAPE  C22017555   6.940   0.456   8.736  0.3319  0.0487  0.1532
  157SAPE  H20R17556   6.892   0.474   8.637  0.0129  0.7925  0.4349
  157SAPE  H20S17557   7.047   0.482   8.726  0.5695  0.7935  3.4483
  157SAPE  H20T17558   6.895   0.524   8.812 -0.7584  1.1067 -1.3713
  157SAPE   C3317559   6.628   0.831   9.881  0.0511  0.6835 -0.5579
  157SAPE   H3X17560   6.718   0.896   9.871 -1.6183  3.0275 -1.1936
  157SAPE   H3Y17561   6.574   0.877   9.966  1.7637  0.6456  0.6054
  157SAPE   C3417562   6.540   0.844   9.763 -0.0179 -0.0860 -0.2038
  157SAPE   H4X17563   6.516   0.951   9.746  2.7876  0.3636 -1.9812
  157SAPE   H4Y17564   6.448   0.788   9.793 -1.0261  2.0628  0.9407
  157SAPE   C3517565   6.599   0.783   9.635 -0.4574  0.2434 -0.1201
  157SAPE   H5X17566   6.592   0.673   9.650  0.3450  0.2271  0.1779
  157SAPE   H5Y17567   6.706   0.813   9.633  0.1981 -1.6534  1.7777
  157SAPE   C3617568   6.530   0.829   9.510  0.0668  0.3339  0.3309
  157SAPE   H6X17569   6.533   0.939   9.494  0.1807  0.0502 -2.0446
  157SAPE   H6Y17570   6.425   0.793   9.505  0.4155 -0.7309  0.2907
  157SAPE   C3717571   6.608   0.781   9.384 -0.7366  0.2969 -0.0123
  157SAPE   H7X17572   6.709   0.826   9.393  0.6140 -2.8396  2.6355
  157SAPE   H7Y17573   6.562   0.825   9.293  0.6050 -2.6455 -2.2904
  157SAPE   C3817574   6.627   0.631   9.362  0.2885  0.1871 -0.4801
  157SAPE   H8X17575   6.528   0.583   9.353 -0.2893  1.4338 -1.0513
  157SAPE   H8Y17576   6.675   0.581   9.449 -1.3023  0.9957  0.9299
  157SAPE   C3917577   6.719   0.607   9.237 -0.1034  0.3519 -0.1471
  157SAPE   H9X17578   6.715   0.498   9.215 -0.7424 -0.1682  2.2282
  157SAPE   H9Y17579   6.821   0.640   9.264 -0.2070  1.7584 -1.3537
  157SAPE  C31017580   6.677   0.679   9.108 -0.2398  0.4649 -0.5518
  157SAPE  H10X17581   6.756   0.664   9.031  0.1536  1.8803 -0.4406
  157SAPE  H10Y17582   6.688   0.785   9.136 -2.3166  0.3991  0.7297
  157SAPE  C31117583   6.539   0.638   9.059  0.3903  0.4137  0.4800
  157SAPE  H11X17584   6.463   0.655   9.138 -0.5790 -0.3391 -0.2583
  157SAPE  H11Y17585   6.552   0.529   9.042  0.2001  0.1789  1.7661
  157SAPE  C31217586   6.500   0.700   8.923  0.2356 -0.5310 -0.1668
  157SAPE  H12X17587   6.405   0.647   8.900  0.7765 -0.7726 -2.0079
  157SAPE  H12Y17588   6.565   0.674   8.837 -2.1569 -2.1059 -1.6353
  157SAPE  C31317589   6.451   0.845   8.945 -0.5809 -0.1060  0.2300
  157SAPE  H13X17590   6.532   0.915   8.975  0.9817 -1.4000 -0.7466
  157SAPE  H13Y17591   6.371   0.842   9.021  0.2254 -2.3364  1.0718
  157SAPE  C31417592   6.391   0.902   8.819  0.1950  0.0982 -0.4906
  157SAPE  H14X17593   6.463   0.898   8.735 -0.0385 -0.4492 -0.6661
  157SAPE  H14Y17594   6.388   1.012   8.834  2.2000  0.1496 -0.2314
  157SAPE  C31517595   6.253   0.842   8.784 -0.0384  0.2811 -0.8580
  157SAPE  H15X17596   6.184   0.850   8.871 -0.3521 -3.1758 -0.6667
  157SAPE  H15Y17597   6.261   0.734   8.760 -0.2791  0.2780 -0.9239
  157SAPE  C31617598   6.178   0.910   8.668  0.0148  0.2291 -0.7871
  157SAPE  H16X17599   6.261   0.935   8.598 -0.3201 -2.7284 -2.3898
  157SAPE  H16Y17600   6.129   1.002   8.707 -1.7918 -1.3518  0.8895
  157SAPE  C31717601   6.076   0.820   8.599 -0.0901 -0.9776 -0.2403
  157SAPE  H17X17602   6.116   0.717   8.592 -1.0671 -1.4277  0.5748
  157SAPE  H17Y17603   6.065   0.858   8.495 -1.1802 -1.0353 -0.1617
  157SAPE  C31817604   5.939   0.822   8.664 -0.0451  0.5646  0.3656
  157SAPE  H18X17605   5.941   0.772   8.764  0.3984  2.1650  1.1856
  157SAPE  H18Y17606   5.863   0.766   8.606 -2.1210  0.4676  3.0052
  157SAPE  H18Z17607   5.900   0.925   8.675  1.9439  1.4087  0.0758
  158SAPE     N17608   3.913   2.583  10.491  0.1813  0.1235  0.7352
  158SAPE   HN117609   3.883   2.510  10.559 -2.0921 -0.1305 -0.4579
  158SAPE   HN217610   4.009   2.555  10.464  0.0126 -1.4653  1.6471
  158SAPE   HN317611   3.912   2.672  10.544 -3.5488  0.7651 -0.1680
  158SAPE   C1217612   3.824   2.591  10.367  0.2660  0.2207 -0.0558
  158SAPE  H12A17613   3.888   2.648  10.297  0.8575 -0.6145 -0.2058
  158SAPE  H12B17614   3.730   2.638  10.402  1.2851  0.4947  2.5844
  158SAPE   C1117615   3.794   2.450  10.314  0.2074  0.1675  0.1231
  158SAPE  H11A17616   3.892   2.406  10.283 -0.5411 -1.7713  0.3858
  158SAPE  H11B17617   3.737   2.469  10.221  2.3914 -0.3056 -1.4043
  158SAPE     P17618   3.579   2.383  10.483  0.0499  0.0302 -0.0474
  158SAPE   O1317619   3.545   2.254  10.547  0.3499 -0.5027 -0.1886
  158SAPE   O1417620   3.573   2.510  10.565 -0.2932  0.7536  0.1520
  158SAPE   O1217621   3.724   2.371  10.414  0.1347 -0.2754  0.2881
  158SAPE   O1117622   3.490   2.405  10.361  0.3782  0.0090 -0.2450
  158SAPE    C117623   3.350   2.380  10.365  0.4730 -0.0677 -0.5624
  158SAPE    HA17624   3.303   2.371  10.465 -0.4149 -1.2346 -1.0619
  158SAPE    HB17625   3.304   2.467  10.314 -1.2900  0.7834  2.2564
  158SAPE    C217626   3.298   2.262  10.284 -0.5047 -0.7589  0.0991
  158SAPE    HS17627   3.337   2.179  10.347 -1.5834  0.5638  2.6497
  158SAPE   O2117628   3.363   2.267  10.155 -0.0347 -0.1023  0.2885
  158SAPE   C2117629   3.391   2.145  10.096 -0.9219 -0.4751 -0.2390
  158SAPE   O2217630   3.377   2.040  10.155 -0.2999  0.4171  0.5878
  158SAPE   C2217631   3.436   2.161   9.955 -0.5640 -0.3859  0.0216
  158SAPE   H2R17632   3.347   2.167   9.889  1.0011  1.5523 -2.1238
  158SAPE   H2S17633   3.486   2.260   9.953 -1.0857 -0.1137  0.4787
  158SAPE    C317634   3.146   2.271  10.266  0.2182 -0.4635 -0.4092
  158SAPE    HX17635   3.113   2.348  10.193 -0.4265 -1.5854 -1.3425
  158SAPE    HY17636   3.117   2.303  10.368  0.5459  2.4361 -1.1392
  158SAPE   O3117637   3.085   2.146  10.224 -0.6761 -0.1942  0.0886
  158SAPE   C3117638   3.084   2.122  10.091 -0.1360  0.4043  0.1700
  158SAPE   O3217639   3.116   2.193  10.004 -0.5021 -0.0370 -0.1650
  158SAPE   C3217640   3.056   1.981  10.068 -0.4515  0.3715 -0.0754
  158SAPE   H2X17641   3.046   1.933  10.168 -0.0477  1.5589  0.5484
  158SAPE   H2Y17642   3.145   1.932  10.024 -0.3186  0.5182  0.0328
  158SAPE   C2317643   3.537   2.055   9.903 -0.1814 -0.2981  0.2118
  158SAPE   H3R17644   3.483   1.960   9.887 -3.8897  1.6349  0.0059
  158SAPE   H3S17645   3.613   2.036   9.982  1.8511  0.6817 -1.4068
  158SAPE   C2417646   3.621   2.105   9.788  0.4032 -0.1830  0.0827
  158SAPE   H4R17647   3.695   2.030   9.752  1.0995  1.0310 -1.0695
  158SAPE   H4S17648   3.683   2.183   9.836 -1.4041  1.0352  0.5321
  158SAPE   C2517649   3.538   2.151   9.666  0.3952  0.2816 -1.0627
  158SAPE   H5R17650   3.485   2.247   9.677 -1.2295 -0.5530 -1.3055
  158SAPE   C2617651   3.536   2.090   9.548 -1.1887  0.0763  0.5440
  158SAPE   H6R17652   3.471   2.129   9.468  0.0707  1.4542  0.1505
  158SAPE   C2717653   3.610   1.962   9.510 -0.0466  0.1210 -0.0819
  158SAPE   H7R17654   3.673   1.922   9.592  0.0775  0.1592 -0.1586
  158SAPE   H7S17655   3.670   1.975   9.418  0.6436 -3.4514 -0.2494
  158SAPE   C2817656   3.510   1.854   9.476 -0.0615 -0.3712 -0.1227
  158SAPE   H8R17657   3.451   1.817   9.561  0.4547 -0.1295  0.3452
  158SAPE   C2917658   3.489   1.794   9.352  0.6675 -0.3802 -0.9800
  158SAPE   H9R17659   3.421   1.708   9.347 -0.1400  0.1386  0.3358
  158SAPE  C21017660   3.565   1.820   9.223 -0.0652  0.4549 -0.4522
  158SAPE  H10R17661   3.661   1.764   9.231 -0.4426 -0.1608 -0.1051
  158SAPE  H10S17662   3.587   1.928   9.231 -2.2285  0.8246  1.7519
  158SAPE  C21117663   3.474   1.785   9.107 -0.0623  0.0327 -0.4174
  158SAPE  H11R17664   3.370   1.820   9.114 -0.7481 -2.1265  0.9553
  158SAPE  C21217665   3.502   1.695   9.006 -0.7875 -0.2190  0.0087
  158SAPE  H12R17666   3.424   1.680   8.930  1.1464  1.9027 -2.5407
  158SAPE  C21317667   3.631   1.621   8.993 -0.1558 -0.1986 -0.1201
  158SAPE  H13R17668   3.629   1.527   9.053  1.1207 -0.5639 -0.6221
  158SAPE  H13S17669   3.710   1.685   9.036  0.7665 -0.2662 -1.6323
  158SAPE  C21417670   3.659   1.568   8.857 -0.7538 -0.6491  0.2072
  158SAPE  H14R17671   3.575   1.516   8.808 -1.8907 -0.0971  1.5064
  158SAPE  C21517672   3.771   1.585   8.791 -0.2092  0.0020  0.5901
  158SAPE  H15R17673   3.777   1.528   8.697 -2.0471 -1.7898  1.4988
  158SAPE  C21617674   3.892   1.660   8.826 -0.6337 -0.2356  0.6541
  158SAPE  H16R17675   3.951   1.600   8.899 -0.1077 -0.3762  0.1255
  158SAPE  H16S17676   3.867   1.753   8.880  0.3526  0.0084  0.7112
  158SAPE  C21717677   3.994   1.674   8.707 -0.1294  0.1648 -0.7309
  158SAPE  H17R17678   4.069   1.745   8.747 -1.5261  2.1176 -1.4110
  158SAPE  H17S17679   3.949   1.724   8.618 -1.5088 -0.6295 -0.5030
  158SAPE  C21817680   4.063   1.546   8.660  0.8894 -0.0547 -0.6495
  158SAPE  H18R17681   3.991   1.477   8.610  0.4173 -0.0247 -0.0178
  158SAPE  H18S17682   4.112   1.488   8.742 -2.5416 -0.5515  1.2165
  158SAPE  C21917683   4.158   1.586   8.549 -0.4325  0.2199 -0.0043
  158SAPE  H19R17684   4.240   1.649   8.589  0.7339 -0.8175 -0.6869
  158SAPE  H19S17685   4.101   1.643   8.472 -0.0233  0.9696  0.2316
  158SAPE  C22017686   4.218   1.463   8.485  0.2031  0.2313 -0.4656
  158SAPE  H20R17687   4.254   1.396   8.566 -0.7684  1.0364  0.6665
  158SAPE  H20S17688   4.309   1.496   8.430  0.9213 -0.6217  0.1800
  158SAPE  H20T17689   4.150   1.414   8.413  0.4482  0.6915 -1.0175
  158SAPE   C3317690   2.927   1.948   9.983  0.2891  0.1169  0.2574
  158SAPE   H3X17691   2.872   2.035   9.943 -1.2683 -1.1356 -0.4319
  158SAPE   H3Y17692   2.866   1.877  10.043  1.5278  2.2465  4.4488
  158SAPE   C3417693   2.967   1.863   9.862  0.4359  1.0825  1.0477
  158SAPE   H4X17694   2.872   1.825   9.819  1.5285  0.7679 -1.2982
  158SAPE   H4Y17695   3.022   1.773   9.896 -2.5026 -0.7275  1.2854
  158SAPE   C3517696   3.029   1.947   9.753  0.0834 -0.2688  0.1662
  158SAPE   H5X17697   3.131   1.969   9.792  0.7706 -3.0311  0.1269
  158SAPE   H5Y17698   2.971   2.040   9.733 -0.5815 -0.4909  1.0155
  158SAPE   C3617699   3.037   1.874   9.610  0.1774  0.0260 -0.1784
  158SAPE   H6X17700   2.935   1.834   9.590  0.7882 -0.7032 -1.9883
  158SAPE   H6Y17701   3.102   1.784   9.606 -1.0630 -0.8411 -1.5890
  158SAPE   C3717702   3.075   1.967   9.492  0.2930 -0.0358  0.4511
  158SAPE   H7X17703   3.183   1.993   9.491  0.8787 -2.1326  2.0198
  158SAPE   H7Y17704   3.010   2.057   9.486 -1.2656 -1.1700 -0.4205
  158SAPE   C3817705   3.071   1.887   9.358 -0.0977 -0.0953  0.3688
  158SAPE   H8X17706   2.967   1.849   9.352 -0.4169  0.9649 -1.8883
  158SAPE   H8Y17707   3.144   1.804   9.366  3.3156  2.3716 -2.1216
  158SAPE   C3917708   3.110   1.969   9.234 -0.6213  0.1368  0.1779
  158SAPE   H9X17709   3.213   2.008   9.241 -0.2968 -0.6513 -0.0971
  158SAPE   H9Y17710   3.027   2.043   9.227 -0.5003  0.2015 -0.6000
  158SAPE  C31017711   3.097   1.890   9.103  0.1963  0.5727 -0.0075
  158SAPE  H10X17712   2.995   1.846   9.103  0.9346 -1.2736 -1.2010
  158SAPE  H10Y17713   3.166   1.803   9.098 -0.9042 -0.2932 -0.6225
  158SAPE  C31117714   3.114   1.984   8.976  0.4460 -0.0775 -0.4540
  158SAPE  H11X17715   3.222   1.988   8.948  0.4472 -0.8852 -0.5878
  158SAPE  H11Y17716   3.095   2.091   8.997 -0.0935 -0.3447  0.4707
  158SAPE  C31217717   3.027   1.943   8.866 -0.5108 -0.4692 -0.2219
  158SAPE  H12X17718   2.924   1.963   8.904 -0.1748  0.7257  0.1082
  158SAPE  H12Y17719   3.027   1.835   8.843  0.0593 -0.4019 -0.5614
  158SAPE  C31317720   3.070   2.023   8.739 -0.2749 -0.4576  0.1028
  158SAPE  H13X17721   3.172   1.988   8.710  1.4827  2.4193  2.1833
  158SAPE  H13Y17722   3.071   2.132   8.761  1.8305 -0.4965  0.4809
  158SAPE  C31417723   2.972   2.006   8.624 -0.6358  0.1078  0.8943
  158SAPE  H14X17724   2.873   2.032   8.668  0.3173  1.3418  2.4365
  158SAPE  H14Y17725   2.964   1.900   8.589  2.7557 -0.1693  0.6299
  158SAPE  C31517726   2.998   2.120   8.519 -0.0350  0.5461  0.2706
  158SAPE  H15X17727   3.097   2.115   8.470  0.7025 -0.1027  1.7786
  158SAPE  H15Y17728   2.981   2.214   8.576 -0.9873 -0.3572  1.5343
  158SAPE  C31617729   2.890   2.122   8.408  0.1113 -0.2539  0.1128
  158SAPE  H16X17730   2.867   2.228   8.384  1.1231  0.1123  0.7012
  158SAPE  H16Y17731   2.810   2.074   8.468  0.3985  1.5595  2.1111
  158SAPE  C31717732   2.925   2.052   8.278 -0.1547 -0.7196  0.1159
  158SAPE  H17X17733   2.830   2.001   8.249 -2.6341  2.6906  1.5143
  158SAPE  H17Y17734   3.010   1.984   8.298  0.4845 -0.4147 -1.4111
  158SAPE  C31817735   2.964   2.157   8.164 -0.0296  0.0391  0.4611
  158SAPE  H18X17736   2.880   2.221   8.129 -0.2747 -1.1936 -1.3075
  158SAPE  H18Y17737   2.987   2.098   8.073  0.4858  1.1848 -0.1866
  158SAPE  H18Z17738   3.051   2.219   8.195 -0.5548  2.3051 -2.1450
  159SAPE     N17739   1.448   6.014   6.422 -0.0352 -0.1889 -0.2478
  159SAPE   HN117740   1.450   5.913   6.397  2.9301 -0.5998  1.2212
  159SAPE   HN217741   1.409   6.059   6.337 -1.2082  1.2547  1.0058
  159SAPE   HN317742   1.543   6.041   6.453 -0.6466  0.3219  1.2840
  159SAPE   C1217743   1.354   6.034   6.535 -1.1654  0.4848 -0.2216
  159SAPE  H12A17744   1.249   6.020   6.500 -0.1587 -0.8659 -2.9441
  159SAPE  H12B17745   1.376   6.128   6.590  2.2036 -0.0102 -0.5159
  159SAPE   C1117746   1.384   5.915   6.633  0.4530 -0.9308  0.4259
  159SAPE  H11A17747   1.345   5.942   6.733  2.0039  0.6991  0.6455
  159SAPE  H11B17748   1.494   5.921   6.650  1.0879 -3.3434 -2.1007
  159SAPE     P17749   1.424   5.698   6.489  0.0464 -0.1907  0.2253
  159SAPE   O1317750   1.358   5.564   6.497 -0.2895  0.6759 -0.1685
  159SAPE   O1417751   1.448   5.763   6.354 -0.0832 -0.3051 -0.0978
  159SAPE   O1217752   1.337   5.793   6.580  0.9940 -0.4129 -0.2055
  159SAPE   O1117753   1.555   5.698   6.576 -0.7949  0.1486 -0.2897
  159SAPE    C117754   1.572   5.593   6.671  0.3879  0.7711  0.0219
  159SAPE    HA17755   1.547   5.492   6.633  1.0902 -0.8133  3.3466
  159SAPE    HB17756   1.679   5.598   6.704 -0.0957 -0.8276  2.0303
  159SAPE    C217757   1.481   5.608   6.801 -0.2223  0.0364 -0.6935
  159SAPE    HS17758   1.374   5.621   6.777 -1.2410 -2.2086  2.1366
  159SAPE   O2117759   1.533   5.721   6.868  0.5643 -0.2380  0.0086
  159SAPE   C2117760   1.458   5.777   6.954  0.6161 -0.0492  0.5113
  159SAPE   O2217761   1.332   5.769   6.954  0.0469 -0.1968  0.3662
  159SAPE   C2217762   1.527   5.860   7.056  0.4442  0.2121 -0.2461
  159SAPE   H2R17763   1.577   5.788   7.124 -1.2112 -0.3470  0.4459
  159SAPE   H2S17764   1.604   5.924   7.007  0.0955  2.2660  1.6831
  159SAPE    C317765   1.500   5.480   6.891 -0.0365 -0.5524 -0.3998
  159SAPE    HX17766   1.455   5.395   6.836 -0.9193  0.9636 -2.1187
  159SAPE    HY17767   1.450   5.482   6.990 -1.2088 -0.3573 -0.9787
  159SAPE   O3117768   1.642   5.450   6.899  0.2280  0.2165  0.8186
  159SAPE   C3117769   1.704   5.480   7.008 -0.7908 -0.1575 -0.2695
  159SAPE   O3217770   1.650   5.520   7.111 -0.3414 -0.0954 -0.8264
  159SAPE   C3217771   1.855   5.439   6.995  0.1757 -0.4014 -0.3492
  159SAPE   H2X17772   1.880   5.479   6.894  1.9617 -0.2368  0.1381
  159SAPE   H2Y17773   1.854   5.332   6.966  0.0724  0.4014 -3.8630
  159SAPE   C2317774   1.440   5.939   7.159 -0.9371  0.5852  0.1285
  159SAPE   H3R17775   1.375   5.866   7.212 -1.2364  0.3675 -0.5291
  159SAPE   H3S17776   1.365   6.005   7.111 -2.7824  0.9715  3.2433
  159SAPE   C2417777   1.524   6.017   7.255 -0.2958 -0.2063  0.4376
  159SAPE   H4R17778   1.572   6.102   7.202 -0.5575  0.2689  0.9529
  159SAPE   H4S17779   1.606   5.959   7.302  0.0999  1.1384  1.4718
  159SAPE   C2517780   1.459   6.076   7.382 -0.1975 -0.5279 -0.7261
  159SAPE   H5R17781   1.455   6.186   7.371  2.1620 -0.3742 -0.4552
  159SAPE   C2617782   1.440   6.012   7.499  0.0818  0.1595 -0.2127
  159SAPE   H6R17783   1.385   6.060   7.581  0.4943 -2.0886  1.4715
  159SAPE   C2717784   1.467   5.866   7.529  0.1802 -0.1123 -0.0928
  159SAPE   H7R17785   1.562   5.862   7.586  0.0668 -1.4766  0.0308
  159SAPE   H7S17786   1.487   5.802   7.440  1.0114 -0.9407  0.6717
  159SAPE   C2817787   1.349   5.814   7.605  0.7857  0.2752  0.1988
  159SAPE   H8R17788   1.264   5.775   7.547  0.4229  1.2039  0.1053
  159SAPE   C2917789   1.335   5.817   7.739  0.4111 -0.3582  0.5489
  159SAPE   H9R17790   1.239   5.784   7.782  0.0061  0.4548  0.2838
  159SAPE  C21017791   1.437   5.874   7.836  0.8721 -0.2033  0.1587
  159SAPE  H10R17792   1.533   5.899   7.786  0.9440  1.0374  0.8655
  159SAPE  H10S17793   1.462   5.806   7.921  0.6214 -0.7459 -0.1953
  159SAPE  C21117794   1.369   6.003   7.893 -0.2496 -0.6118 -0.2217
  159SAPE  H11R17795   1.355   6.071   7.808  3.2531 -1.1154 -1.3701
  159SAPE  C21217796   1.350   6.039   8.020 -0.0023 -0.3766  0.4089
  159SAPE  H12R17797   1.304   6.135   8.049  0.0856 -0.0335 -0.5366
  159SAPE  C21317798   1.382   5.962   8.148  0.3084 -0.1161  0.1964
  159SAPE  H13R17799   1.406   6.037   8.226  0.6687  0.1997 -0.2078
  159SAPE  H13S17800   1.476   5.905   8.134 -0.2206 -1.2495  1.1980
  159SAPE  C21417801   1.268   5.871   8.188  0.2626 -0.2139 -0.8291
  159SAPE  H14R17802   1.186   5.859   8.116 -1.7443  1.4463  1.0628
  159SAPE  C21517803   1.270   5.799   8.300  0.4564  0.0626 -0.2759
  159SAPE  H15R17804   1.179   5.758   8.348  1.1259 -0.7000  0.3736
  159SAPE  C21617805   1.386   5.805   8.397  0.2347  0.2075 -0.5084
  159SAPE  H16R17806   1.472   5.862   8.355  0.3381 -0.3841 -1.1007
  159SAPE  H16S17807   1.436   5.708   8.418 -1.4337 -0.5235  0.2301
  159SAPE  C21717808   1.343   5.877   8.527 -0.0656 -0.2507 -0.3860
  159SAPE  H17R17809   1.334   5.988   8.517  3.4772  0.3739  1.8365
  159SAPE  H17S17810   1.427   5.869   8.599 -0.1545  2.2335  0.0925
  159SAPE  C21817811   1.220   5.826   8.591  0.4934 -0.1743 -0.8443
  159SAPE  H18R17812   1.244   5.723   8.625  0.1020  0.9128  3.2071
  159SAPE  H18S17813   1.126   5.833   8.531  0.2259 -0.1629 -0.4325
  159SAPE  C21917814   1.195   5.883   8.729 -0.6886  0.1114  0.1019
  159SAPE  H19R17815   1.172   5.992   8.726 -1.3503  0.1388  2.8773
  159SAPE  H19S17816   1.287   5.878   8.791  0.0524 -1.9228 -1.0974
  159SAPE  C22017817   1.093   5.812   8.798  0.8128 -0.1652  0.5635
  159SAPE  H20R17818   1.131   5.710   8.816  0.0014 -0.3158  1.5266
  159SAPE  H20S17819   0.993   5.799   8.750  0.6889 -0.8355  0.9879
  159SAPE  H20T17820   1.069   5.868   8.891 -0.8689 -1.2525  0.8264
  159SAPE   C3317821   1.947   5.480   7.102 -0.0788 -1.2950  0.4281
  159SAPE   H3X17822   2.041   5.420   7.101  0.9102  0.1339 -1.6587
  159SAPE   H3Y17823   1.901   5.483   7.203  1.8656  2.2913  1.4198
  159SAPE   C3417824   2.006   5.627   7.084 -0.0345  0.2886 -0.0504
  159SAPE   H4X17825   2.051   5.635   6.983 -2.0268 -0.4908 -1.0717
  159SAPE   H4Y17826   2.086   5.623   7.161 -0.0137  1.1906 -0.0113
  159SAPE   C3517827   1.914   5.746   7.110 -0.4928 -0.5395 -0.3670
  159SAPE   H5X17828   1.807   5.719   7.119 -0.3701 -0.4440  1.9654
  159SAPE   H5Y17829   1.929   5.806   7.018 -1.5080  1.1243  0.4835
  159SAPE   C3617830   1.953   5.832   7.232 -0.3970  0.1885  0.5677
  159SAPE   H6X17831   1.870   5.905   7.246 -2.8338 -2.2414 -0.4058
  159SAPE   H6Y17832   2.055   5.877   7.224  1.9944 -4.5946  0.7670
  159SAPE   C3717833   1.939   5.745   7.359  0.4790  0.1208 -0.0169
  159SAPE   H7X17834   1.996   5.650   7.351  0.0942 -0.0067 -1.3318
  159SAPE   H7Y17835   1.832   5.727   7.381  0.6130  1.0728  1.6146
  159SAPE   C3817836   1.996   5.817   7.483 -0.5583  0.1242  0.1276
  159SAPE   H8X17837   1.926   5.892   7.526 -0.2709  0.3632  0.1838
  159SAPE   H8Y17838   2.096   5.857   7.457  0.3200  0.0163  2.9900
  159SAPE   C3917839   2.043   5.717   7.590  0.3141  0.1313  0.4688
  159SAPE   H9X17840   2.130   5.661   7.550 -2.2482 -2.1978 -2.3320
  159SAPE   H9Y17841   1.977   5.634   7.622 -0.5730  0.3287 -0.7666
  159SAPE  C31017842   2.080   5.793   7.716 -0.5071 -0.1511 -0.6936
  159SAPE  H10X17843   1.985   5.844   7.742 -1.6520 -1.2110 -2.5445
  159SAPE  H10Y17844   2.151   5.878   7.705 -0.1013 -0.3712  0.1210
  159SAPE  C31117845   2.121   5.701   7.830 -0.2605  0.7719 -0.6938
  159SAPE  H11X17846   2.204   5.632   7.804  0.2223  0.6133  1.1000
  159SAPE  H11Y17847   2.030   5.646   7.861 -0.6333 -0.1355 -3.2103
  159SAPE  C31217848   2.166   5.781   7.954 -0.9808  0.0971  0.9282
  159SAPE  H12X17849   2.100   5.864   7.989  1.4165  1.9858  1.1888
  159SAPE  H12Y17850   2.266   5.821   7.930 -0.4715  0.7710  3.8081
  159SAPE  C31317851   2.183   5.690   8.073 -0.1748  0.1642  0.6031
  159SAPE  H13X17852   2.225   5.593   8.038  0.5875  0.9524 -0.7643
  159SAPE  H13Y17853   2.089   5.670   8.129 -0.5775  0.5877  0.0896
  159SAPE  C31417854   2.282   5.762   8.166 -0.4057  0.1874  0.4074
  159SAPE  H14X17855   2.247   5.868   8.168  2.1793  1.1601 -0.7095
  159SAPE  H14Y17856   2.377   5.761   8.109 -0.7072 -0.0335 -0.1026
  159SAPE  C31517857   2.293   5.709   8.307  0.0722  0.3984 -0.0963
  159SAPE  H15X17858   2.283   5.599   8.298 -2.2942  0.4201  1.2795
  159SAPE  H15Y17859   2.198   5.733   8.360 -2.2231 -2.4253 -2.5659
  159SAPE  C31617860   2.415   5.753   8.382 -0.2397 -0.2276  0.3173
  159SAPE  H16X17861   2.397   5.851   8.431 -0.5249 -0.4789  0.7213
  159SAPE  H16Y17862   2.507   5.764   8.320  0.3594 -0.5762  1.1149
  159SAPE  C31717863   2.453   5.644   8.489  0.0078  0.0210  0.5212
  159SAPE  H17X17864   2.562   5.645   8.510  0.1990 -0.1348 -0.4388
  159SAPE  H17Y17865   2.437   5.542   8.448  0.4608 -0.4697  1.5317
  159SAPE  C31817866   2.367   5.644   8.617 -0.2863  0.0231  0.8521
  159SAPE  H18X17867   2.329   5.746   8.641 -1.3890  1.1164 -4.3698
  159SAPE  H18Y17868   2.425   5.596   8.698 -0.8815 -3.7183 -0.7453
  159SAPE  H18Z17869   2.277   5.579   8.606  0.8492 -1.5490  0.5103
  160SAPE     N17870   1.941   5.788   6.452  0.2478  0.4742  0.1106
  160SAPE   HN117871   2.044   5.783   6.448  0.3369  1.7732  0.3239
  160SAPE   HN217872   1.900   5.868   6.400  0.7614  1.5668  1.3093
  160SAPE   HN317873   1.918   5.789   6.554 -0.8406 -0.0712 -0.1156
  160SAPE   C1217874   1.867   5.671   6.398  0.0125 -0.3401  0.1815
  160SAPE  H12A17875   1.896   5.664   6.291 -0.0331  1.0078  0.0641
  160SAPE  H12B17876   1.763   5.709   6.407  0.6055  1.4370 -0.2084
  160SAPE   C1117877   1.881   5.543   6.486  0.1028  0.2477  0.3029
  160SAPE  H11A17878   1.855   5.567   6.591 -2.8612  0.7984 -0.4478
  160SAPE  H11B17879   1.981   5.495   6.483 -0.6468 -1.3695 -1.0939
  160SAPE     P17880   1.812   5.297   6.426 -0.0517  0.2800  0.2578
  160SAPE   O1317881   1.680   5.225   6.400  0.1952 -0.3252  0.2797
  160SAPE   O1417882   1.918   5.285   6.320 -0.2344  0.1583  0.2685
  160SAPE   O1217883   1.789   5.450   6.451 -0.1026  0.1617  0.0835
  160SAPE   O1117884   1.869   5.242   6.566  0.3335 -0.4558  0.8337
  160SAPE    C117885   1.810   5.262   6.693 -0.3117 -0.4144  0.4069
  160SAPE    HA17886   1.889   5.299   6.762  0.2322 -0.0484 -0.3924
  160SAPE    HB17887   1.720   5.326   6.686 -0.3353 -0.6621 -3.2563
  160SAPE    C217888   1.747   5.130   6.739  0.1760 -0.6542  0.5188
  160SAPE    HS17889   1.677   5.103   6.658 -1.4342  1.7764  0.9724
  160SAPE   O2117890   1.678   5.147   6.864 -0.0119  0.1238 -0.2922
  160SAPE   C2117891   1.596   5.044   6.886 -0.2478 -0.0949  0.2985
  160SAPE   O2217892   1.588   4.949   6.814 -0.1722  0.2525  0.2168
  160SAPE   C2217893   1.505   5.066   7.001 -0.0842  0.0228  0.6347
  160SAPE   H2R17894   1.543   5.144   7.072  2.4148  0.2524 -0.8297
  160SAPE   H2S17895   1.412   5.100   6.952 -2.0292 -2.8591  2.0858
  160SAPE    C317896   1.865   5.026   6.752  0.0961  0.4571 -0.2440
  160SAPE    HX17897   1.902   5.002   6.650  0.7391 -2.2493  0.5552
  160SAPE    HY17898   1.834   4.928   6.795  2.4758 -0.4190 -0.3681
  160SAPE   O3117899   1.966   5.091   6.829  0.3054  0.8984  0.2572
  160SAPE   C3117900   2.076   5.022   6.848  0.0274 -0.2091  0.1651
  160SAPE   O3217901   2.089   4.906   6.812  0.2732 -0.2545  0.0546
  160SAPE   C3217902   2.191   5.107   6.911  0.5032 -0.5988  0.6476
  160SAPE   H2X17903   2.149   5.178   6.986  2.8517 -0.0147  1.4917
  160SAPE   H2Y17904   2.238   5.158   6.825 -1.5759 -1.4081 -1.0608
  160SAPE   C2317905   1.491   4.935   7.091 -0.0381 -0.5054 -0.3136
  160SAPE   H3R17906   1.597   4.918   7.118  0.0716 -1.1991 -1.1642
  160SAPE   H3S17907   1.443   4.861   7.023  0.2642  0.9990 -2.2222
  160SAPE   C2417908   1.421   4.961   7.227  0.4991 -0.2327 -0.7857
  160SAPE   H4R17909   1.419   4.867   7.287 -1.9264  1.4671  2.0431
  160SAPE   H4S17910   1.316   4.991   7.207  0.4028  0.0992  0.1901
  160SAPE   C2517911   1.500   5.061   7.307 -0.7426 -0.5324  0.6496
  160SAPE   H5R17912   1.480   5.164   7.273 -0.8788 -0.8250 -0.1751
  160SAPE   C2617913   1.574   5.043   7.416 -0.8134  0.0705  0.4390
  160SAPE   H6R17914   1.621   5.129   7.466 -2.1694  1.6961 -0.9494
  160SAPE   C2717915   1.598   4.909   7.480 -0.4597 -0.2428  0.8728
  160SAPE   H7R17916   1.690   4.866   7.434  0.4626  2.7572 -0.3389
  160SAPE   H7S17917   1.514   4.839   7.459  0.4293 -2.0225  2.8782
  160SAPE   C2817918   1.619   4.907   7.633 -0.5331  0.7092 -0.2441
  160SAPE   H8R17919   1.542   4.959   7.692 -1.3001 -3.5252  3.0554
  160SAPE   C2917920   1.719   4.859   7.708 -0.1123  0.2840  0.5796
  160SAPE   H9R17921   1.713   4.873   7.816  3.4843 -5.1638  1.9259
  160SAPE  C21017922   1.846   4.789   7.663 -0.6933 -0.5246 -0.0313
  160SAPE  H10R17923   1.936   4.854   7.663 -0.6042 -0.6312 -1.1516
  160SAPE  H10S17924   1.830   4.760   7.558  0.3612  1.4817 -0.8022
  160SAPE  C21117925   1.871   4.665   7.744 -0.3972 -0.0822 -0.1620
  160SAPE  H11R17926   1.844   4.570   7.694 -1.0389 -1.0693  1.9447
  160SAPE  C21217927   1.923   4.658   7.872 -0.3615  0.7563 -0.3902
  160SAPE  H12R17928   1.945   4.555   7.906  0.3079  1.2039  0.5739
  160SAPE  C21317929   1.967   4.772   7.953 -0.3539  0.2397  0.0627
  160SAPE  H13R17930   1.881   4.843   7.956 -0.2901  0.4672 -2.1682
  160SAPE  H13S17931   2.050   4.816   7.895 -1.7505  0.5419 -1.8383
  160SAPE  C21417932   2.027   4.730   8.089  0.1707 -0.6794  0.1096
  160SAPE  H14R17933   2.080   4.633   8.091  1.1490 -0.1546  0.2757
  160SAPE  C21517934   2.024   4.805   8.205 -0.7167  0.8354 -0.5334
  160SAPE  H15R17935   2.073   4.758   8.292 -1.7006  0.0185 -0.4090
  160SAPE  C21617936   1.965   4.937   8.217 -0.2862 -0.9450  0.6345
  160SAPE  H16R17937   1.911   4.968   8.125 -1.5419 -0.7141  1.4212
  160SAPE  H16S17938   2.056   5.002   8.219 -0.6874 -0.1953 -1.8102
  160SAPE  C21717939   1.871   4.953   8.330  0.5779  0.3617  0.7696
  160SAPE  H17R17940   1.783   4.885   8.321  0.1728  0.7340  1.7988
  160SAPE  H17S17941   1.824   5.053   8.315  1.2120  0.4099 -1.1455
  160SAPE  C21817942   1.932   4.939   8.471  0.5849  0.2312  0.1856
  160SAPE  H18R17943   1.999   5.026   8.490 -3.2515  3.7906 -0.8931
  160SAPE  H18S17944   1.982   4.841   8.481 -2.4697 -1.7614 -2.1263
  160SAPE  C21917945   1.837   4.950   8.590  0.3233  0.0275 -0.0264
  160SAPE  H19R17946   1.902   4.948   8.679  0.6302  1.6417 -0.1832
  160SAPE  H19S17947   1.779   4.855   8.585 -1.1963  0.8819  0.6127
  160SAPE  C22017948   1.748   5.075   8.590 -0.0555 -0.6878  0.5211
  160SAPE  H20R17949   1.647   5.058   8.546 -1.5319  5.5011  0.6070
  160SAPE  H20S17950   1.805   5.158   8.543 -0.9530 -1.1934 -1.5788
  160SAPE  H20T17951   1.718   5.111   8.690  0.5421  0.0459  0.4477
  160SAPE   C3317952   2.290   5.026   6.996  0.1237  0.5619 -0.4009
  160SAPE   H3X17953   2.353   4.960   6.933  0.1047  0.5876 -0.4474
  160SAPE   H3Y17954   2.227   4.963   7.062 -1.0454  1.0039 -1.0554
  160SAPE   C3417955   2.391   5.112   7.079  0.1080  0.0276  0.0703
  160SAPE   H4X17956   2.442   5.184   7.012  0.4433 -1.2751 -1.1296
  160SAPE   H4Y17957   2.467   5.053   7.134  0.3230  0.6360  0.4286
  160SAPE   C3517958   2.329   5.197   7.183 -0.2058 -0.2449  0.3296
  160SAPE   H5X17959   2.270   5.128   7.247 -2.9202  1.0805 -0.5539
  160SAPE   H5Y17960   2.249   5.256   7.131 -2.4810 -1.6656  2.0308
  160SAPE   C3617961   2.432   5.280   7.262  0.3639 -0.1344 -0.5815
  160SAPE   H6X17962   2.509   5.308   7.188  2.3636 -2.4732  0.4766
  160SAPE   H6Y17963   2.479   5.209   7.333 -0.5587 -1.7277 -1.4894
  160SAPE   C3717964   2.374   5.403   7.324 -0.2166 -0.4471  0.1694
  160SAPE   H7X17965   2.310   5.467   7.260  1.2927 -0.1824 -1.1542
  160SAPE   H7Y17966   2.441   5.461   7.391 -0.0062 -1.9192  1.2785
  160SAPE   C3817967   2.277   5.352   7.434 -0.6600 -0.4044  0.6458
  160SAPE   H8X17968   2.188   5.305   7.387 -0.9567  0.7736  0.0093
  160SAPE   H8Y17969   2.225   5.446   7.463 -0.3758  0.1445 -0.5714
  160SAPE   C3917970   2.341   5.293   7.560  0.4184 -0.5878 -0.4769
  160SAPE   H9X17971   2.420   5.363   7.596 -1.1722  2.0620 -1.8279
  160SAPE   H9Y17972   2.383   5.192   7.542 -1.1797 -1.6293  1.3061
  160SAPE  C31017973   2.228   5.275   7.670  0.3479  0.8299  0.3539
  160SAPE  H10X17974   2.140   5.240   7.613  1.2917 -1.5815  0.2575
  160SAPE  H10Y17975   2.196   5.372   7.713  1.3941  2.1182 -1.5979
  160SAPE  C31117976   2.256   5.160   7.777  0.2479 -0.5548 -0.0910
  160SAPE  H11X17977   2.310   5.203   7.864 -3.3033  1.1824  1.4502
  160SAPE  H11Y17978   2.316   5.074   7.739  1.4205  0.5305 -0.7853
  160SAPE  C31217979   2.138   5.088   7.822 -0.0527 -0.6326  0.2254
  160SAPE  H12X17980   2.160   5.011   7.899 -0.8243  0.1257  1.2227
  160SAPE  H12Y17981   2.099   5.033   7.733  2.3751 -1.5977 -0.3303
  160SAPE  C31317982   2.022   5.179   7.869 -0.1681  0.0211  0.0677
  160SAPE  H13X17983   1.933   5.112   7.869 -1.5007  1.6346 -2.7952
  160SAPE  H13Y17984   2.005   5.262   7.797  0.3602 -0.9396 -1.2018
  160SAPE  C31417985   2.036   5.236   8.005 -0.3995  0.3862  0.5487
  160SAPE  H14X17986   2.108   5.320   7.998 -0.7589  0.8605  2.1665
  160SAPE  H14Y17987   2.086   5.163   8.072  0.9767  1.2095  0.4583
  160SAPE  C31517988   1.913   5.310   8.048  0.2981 -0.0886 -0.4055
  160SAPE  H15X17989   1.825   5.247   8.020  0.5297  0.2088 -1.8954
  160SAPE  H15Y17990   1.910   5.408   7.996  0.8239  0.3091  0.2999
  160SAPE  C31617991   1.910   5.325   8.201  1.0418  0.3260 -0.4676
  160SAPE  H16X17992   1.946   5.226   8.236  1.8729  1.1854  1.2352
  160SAPE  H16Y17993   1.803   5.325   8.230  1.3928 -1.1290  0.9274
  160SAPE  C31717994   1.995   5.453   8.242  0.6826 -0.3339  0.1124
  160SAPE  H17X17995   1.948   5.546   8.204 -0.9783 -1.3132 -0.3516
  160SAPE  H17Y17996   2.088   5.435   8.185  0.5921  0.8106 -0.4119
  160SAPE  C31817997   2.000   5.466   8.396  0.0372 -0.6837  0.2019
  160SAPE  H18X17998   2.067   5.541   8.442 -1.6022  1.0327 -0.0720
  160SAPE  H18Y17999   2.035   5.371   8.441  1.4848 -0.7816 -1.0693
  160SAPE  H18Z18000   1.899   5.495   8.435  0.8959  0.0360  1.9946
  161SAPE     N18001   2.786   6.583   6.101 -0.0111  0.3874  0.1483
  161SAPE   HN118002   2.798   6.523   6.186 -2.3067  0.1871  0.3857
  161SAPE   HN218003   2.747   6.677   6.120  0.6540  0.6748  0.1151
  161SAPE   HN318004   2.699   6.537   6.068  0.4147 -1.3168  1.2628
  161SAPE   C1218005   2.905   6.567   6.009 -0.2830 -0.1932  0.0406
  161SAPE  H12A18006   2.892   6.637   5.924 -0.1947 -2.2244 -1.7070
  161SAPE  H12B18007   2.921   6.467   5.965  1.6561  0.8578 -1.8485
  161SAPE   C1118008   3.034   6.618   6.089  0.9327  0.6998  0.7644
  161SAPE  H11A18009   3.008   6.726   6.094 -0.7357  0.4406 -1.0106
  161SAPE  H11B18010   3.128   6.609   6.030  1.1482 -0.0688  1.2175
  161SAPE     P18011   3.147   6.614   6.314 -0.0973 -0.3285  0.2854
  161SAPE   O1318012   3.150   6.525   6.430  0.0971 -0.8577 -0.5922
  161SAPE   O1418013   3.274   6.640   6.253 -0.1311  0.2155 -0.4032
  161SAPE   O1218014   3.039   6.559   6.216 -0.2976 -0.5624  0.0179
  161SAPE   O1118015   3.088   6.745   6.364  0.3685 -0.6999  0.3833
  161SAPE    C118016   2.955   6.759   6.413  0.6553  0.2914  0.0255
  161SAPE    HA18017   2.891   6.817   6.342 -0.2383  1.2926  1.5900
  161SAPE    HB18018   2.902   6.662   6.421  0.9403  0.1853  0.6888
  161SAPE    C218019   2.964   6.836   6.544  0.1643  0.1137  0.3747
  161SAPE    HS18020   3.024   6.928   6.528 -0.6558  0.5028 -0.6005
  161SAPE   O2118021   3.014   6.752   6.649  0.3743  0.5842 -0.1269
  161SAPE   C2118022   3.094   6.816   6.737 -0.0482 -0.2613  0.3183
  161SAPE   O2218023   3.102   6.937   6.742 -0.1968  0.3795  0.7298
  161SAPE   C2218024   3.142   6.708   6.840  0.2571 -0.6493 -0.7785
  161SAPE   H2R18025   3.076   6.623   6.814  0.0507 -1.2921  1.6173
  161SAPE   H2S18026   3.247   6.686   6.813  0.2234  0.9818 -2.4943
  161SAPE    C318027   2.818   6.872   6.588  0.8755  0.1687  0.2551
  161SAPE    HX18028   2.775   6.771   6.609  0.4080 -0.0748 -1.6987
  161SAPE    HY18029   2.763   6.911   6.500 -0.3349 -1.0149  0.4547
  161SAPE   O3118030   2.806   6.959   6.703 -0.1333 -0.1428 -0.8106
  161SAPE   C3118031   2.801   7.090   6.670 -0.4419 -0.1570 -0.2247
  161SAPE   O3218032   2.810   7.133   6.555 -0.4628 -0.1576  0.2807
  161SAPE   C3218033   2.786   7.185   6.787 -0.3331  0.7213 -0.0656
  161SAPE   H2X18034   2.762   7.131   6.882 -0.4929  2.5737  0.9925
  161SAPE   H2Y18035   2.694   7.243   6.765 -0.3764  0.9193  0.6052
  161SAPE   C2318036   3.133   6.770   6.984 -0.6523  1.0446 -0.6990
  161SAPE   H3R18037   3.154   6.879   6.992  0.3743  0.7565  1.0863
  161SAPE   H3S18038   3.217   6.716   7.034 -1.5650 -1.3833 -1.6460
  161SAPE   C2418039   3.016   6.737   7.064 -0.2444 -0.2220  0.0796
  161SAPE   H4R18040   3.026   6.765   7.171  1.9267  3.1182 -0.8594
  161SAPE   H4S18041   3.001   6.626   7.068 -0.1477 -0.2127  3.4684
  161SAPE   C2518042   2.897   6.796   6.984  0.5575 -0.5874 -0.5877
  161SAPE   H5R18043   2.886   6.774   6.877 -0.1860  0.5744 -0.7679
  161SAPE   C2618044   2.791   6.860   7.048 -0.0959 -0.9937  0.8138
  161SAPE   H6R18045   2.711   6.903   6.986  1.7416 -0.2380 -1.1789
  161SAPE   C2718046   2.779   6.887   7.200 -0.4686 -0.0278  0.1723
  161SAPE   H7R18047   2.865   6.851   7.261 -2.0688 -0.1163  2.5048
  161SAPE   H7S18048   2.697   6.819   7.230  1.3839 -1.6718  1.7896
  161SAPE   C2818049   2.749   7.032   7.231  0.1651  0.4811 -0.1694
  161SAPE   H8R18050   2.766   7.103   7.148  0.0524  3.5263  2.2002
  161SAPE   C2918051   2.693   7.084   7.346 -0.0040  0.7517 -0.7056
  161SAPE   H9R18052   2.671   7.191   7.355 -1.0036  0.4008  2.2248
  161SAPE  C21018053   2.679   7.006   7.475  1.0054 -0.0841  0.0910
  161SAPE  H10R18054   2.631   6.907   7.459 -1.6732  1.0382  0.5388
  161SAPE  H10S18055   2.607   7.061   7.540 -0.9927 -0.5803 -1.5747
  161SAPE  C21118056   2.813   6.995   7.544  0.7731 -0.0090 -0.2304
  161SAPE  H11R18057   2.903   6.972   7.486  0.7743 -2.7709  0.7080
  161SAPE  C21218058   2.831   7.009   7.675 -0.0904  0.4049  0.0990
  161SAPE  H12R18059   2.934   6.987   7.707  0.1701  1.2486 -0.1098
  161SAPE  C21318060   2.731   7.022   7.782 -0.5729  0.3287  1.1450
  161SAPE  H13R18061   2.760   6.949   7.860  2.1254 -1.8885 -1.6900
  161SAPE  H13S18062   2.632   6.987   7.747 -0.9979  1.7988  0.7983
  161SAPE  C21418063   2.722   7.161   7.841  0.3036 -0.9592  0.3902
  161SAPE  H14R18064   2.637   7.219   7.803 -1.0961 -2.1699  1.5845
  161SAPE  C21518065   2.801   7.207   7.944  0.9824  0.3620 -0.7133
  161SAPE  H15R18066   2.786   7.306   7.990 -1.5039 -0.3138  0.1078
  161SAPE  C21618067   2.912   7.134   8.014 -0.5616 -1.0161  0.4142
  161SAPE  H16R18068   3.001   7.143   7.948 -1.1126  0.5478 -0.1603
  161SAPE  H16S18069   2.885   7.026   8.020 -3.1009 -0.4156  0.9592
  161SAPE  C21718070   2.937   7.191   8.154  0.0305  0.1317  0.2063
  161SAPE  H17R18071   2.965   7.298   8.141 -0.6313  0.1978 -0.8076
  161SAPE  H17S18072   3.020   7.129   8.194  0.9780  0.7015 -0.8210
  161SAPE  C21818073   2.822   7.165   8.239 -0.0578  0.7660 -0.0206
  161SAPE  H18R18074   2.807   7.056   8.230  0.5520  0.6941 -0.2198
  161SAPE  H18S18075   2.736   7.230   8.213  0.3007  0.6285 -1.6513
  161SAPE  C21918076   2.855   7.183   8.392  0.0845  0.3758  1.2260
  161SAPE  H19R18077   2.949   7.127   8.410 -0.4975 -1.1326 -0.1703
  161SAPE  H19S18078   2.773   7.133   8.446 -2.7377  4.1193  0.8008
  161SAPE  C22018079   2.883   7.327   8.433  0.3615  0.2906 -0.0556
  161SAPE  H20R18080   2.971   7.371   8.381  0.4674  0.9132  0.6477
  161SAPE  H20S18081   2.901   7.350   8.540 -0.3809  2.2400 -0.3122
  161SAPE  H20T18082   2.798   7.390   8.398  1.1626  0.7464 -1.2744
  161SAPE   C3318083   2.896   7.285   6.800  0.7160 -0.2713  0.0344
  161SAPE   H3X18084   2.879   7.380   6.743 -1.0084 -1.4737 -1.5971
  161SAPE   H3Y18085   2.993   7.240   6.770  0.7149  0.0765 -0.5105
  161SAPE   C3418086   2.917   7.329   6.944 -0.4795 -0.1368 -0.7044
  161SAPE   H4X18087   2.827   7.319   7.010 -0.5967  0.4574 -0.7680
  161SAPE   H4Y18088   2.966   7.428   6.949 -0.4698 -0.1841  2.6473
  161SAPE   C3518089   3.019   7.244   7.023 -0.1368  0.1217  0.6377
  161SAPE   H5X18090   3.123   7.252   6.986  0.7101 -1.7622  2.3993
  161SAPE   H5Y18091   2.997   7.135   7.016 -0.3032  0.1562  0.6246
  161SAPE   C3618092   3.009   7.285   7.174 -0.4707 -0.2760  0.6596
  161SAPE   H6X18093   2.907   7.272   7.214 -1.6532  1.7293 -1.4333
  161SAPE   H6Y18094   3.027   7.395   7.174 -2.0879  0.1009 -2.3154
  161SAPE   C3718095   3.111   7.211   7.261  0.1054  0.1623 -0.0400
  161SAPE   H7X18096   3.210   7.246   7.223 -0.1433  1.6580  0.5921
  161SAPE   H7Y18097   3.097   7.102   7.244 -2.4301  0.4650 -0.2163
  161SAPE   C3818098   3.103   7.235   7.416  0.0889  1.1523 -0.7213
  161SAPE   H8X18099   3.158   7.150   7.461 -1.6213 -2.5616 -4.8281
  161SAPE   H8Y18100   3.000   7.228   7.458  0.8913  1.1501  1.3265
  161SAPE   C3918101   3.143   7.376   7.466 -0.0865  0.5393 -0.0072
  161SAPE   H9X18102   3.088   7.460   7.418  1.6798  2.1093  0.6109
  161SAPE   H9Y18103   3.248   7.376   7.429  0.7787  1.9841  2.2659
  161SAPE  C31018104   3.144   7.401   7.621  0.5493 -0.2762  0.0554
  161SAPE  H10X18105   3.196   7.318   7.673  1.5257  0.9919  1.1871
  161SAPE  H10Y18106   3.039   7.400   7.656  0.8819 -0.0774  1.1259
  161SAPE  C31118107   3.205   7.536   7.670 -0.5277  0.1092 -0.1622
  161SAPE  H11X18108   3.147   7.610   7.610 -0.9616 -0.2333 -0.1665
  161SAPE  H11Y18109   3.309   7.537   7.631 -1.3736 -0.2162 -2.6141
  161SAPE  C31218110   3.193   7.558   7.825 -0.0157  0.0635  0.6110
  161SAPE  H12X18111   3.229   7.660   7.850 -2.1018  1.7710 -2.7109
  161SAPE  H12Y18112   3.251   7.479   7.878 -3.5737 -1.0406  3.2496
  161SAPE  C31318113   3.047   7.558   7.867  0.1771 -0.1231 -0.1971
  161SAPE  H13X18114   3.012   7.453   7.864  2.1042 -0.7993 -0.0124
  161SAPE  H13Y18115   2.988   7.623   7.798 -0.2628  0.8596  1.0663
  161SAPE  C31418116   3.018   7.627   8.003 -0.1325  0.1830 -1.1998
  161SAPE  H14X18117   2.916   7.592   8.031  0.1052 -0.4499 -1.1192
  161SAPE  H14Y18118   3.007   7.737   7.990 -2.6554  0.2982  1.0628
  161SAPE  C31518119   3.112   7.586   8.111 -0.1459 -0.0893  0.8410
  161SAPE  H15X18120   3.218   7.611   8.093  0.4808 -4.1185 -2.6971
  161SAPE  H15Y18121   3.122   7.476   8.116 -3.0173 -0.4532  0.2751
  161SAPE  C31618122   3.070   7.642   8.245  0.4478  0.2579  0.7563
  161SAPE  H16X18123   2.987   7.579   8.284 -0.9109  2.1359  1.0416
  161SAPE  H16Y18124   3.025   7.741   8.225 -0.1135 -0.4131 -1.6190
  161SAPE  C31718125   3.179   7.655   8.356  0.5790  0.8237  0.3848
  161SAPE  H17X18126   3.145   7.698   8.452  2.7193  0.7431  1.2252
  161SAPE  H17Y18127   3.263   7.723   8.329  1.5896 -0.8814 -1.0301
  161SAPE  C31818128   3.244   7.526   8.394 -0.6414  0.6114 -0.1641
  161SAPE  H18X18129   3.286   7.469   8.308 -1.9181  0.8701 -0.9727
  161SAPE  H18Y18130   3.192   7.461   8.467  0.0554 -0.4834 -0.6143
  161SAPE  H18Z18131   3.334   7.556   8.453 -1.3811 -1.1540  2.0002
  162SAPE     N18132   5.517   5.843   6.399  0.0843  0.0972  0.0958
  162SAPE   HN118133   5.552   5.924   6.343 -0.4719  0.3702  0.1342
  162SAPE   HN218134   5.524   5.761   6.335 -0.8094 -0.6289  0.9105
  162SAPE   HN318135   5.419   5.862   6.428  0.1608  0.0217  0.4000
  162SAPE   C1218136   5.591   5.829   6.526  0.2321  0.6156  0.0953
  162SAPE  H12A18137   5.545   5.754   6.594 -1.6179  2.2013  0.6714
  162SAPE  H12B18138   5.578   5.925   6.581 -0.1673 -0.1398  1.3680
  162SAPE   C1118139   5.735   5.799   6.492 -0.0105  0.0944 -0.1632
  162SAPE  H11A18140   5.794   5.769   6.582 -1.8614 -1.7356  0.5320
  162SAPE  H11B18141   5.780   5.891   6.449  0.0111  1.1498  1.9934
  162SAPE     P18142   5.886   5.639   6.355  0.4689  0.2337  0.4005
  162SAPE   O1318143   5.860   5.525   6.255  0.4162 -0.2744  0.1219
  162SAPE   O1418144   5.982   5.753   6.325 -0.2172  0.7522  0.6428
  162SAPE   O1218145   5.748   5.686   6.409 -0.2737  0.5453  0.3970
  162SAPE   O1118146   5.950   5.569   6.477  0.5217 -0.0965 -0.6788
  162SAPE    C118147   5.881   5.464   6.534 -0.0527  0.3369 -0.0566
  162SAPE    HA18148   5.775   5.488   6.555 -0.9180 -1.7122 -1.6840
  162SAPE    HB18149   5.869   5.377   6.466 -0.7245  1.0577 -0.8929
  162SAPE    C218150   5.954   5.420   6.672 -0.0249  0.4429  0.3698
  162SAPE    HS18151   5.888   5.343   6.717  0.1735  0.5154  0.7889
  162SAPE   O2118152   5.977   5.535   6.757 -0.2481  0.3463 -0.2312
  162SAPE   C2118153   5.864   5.590   6.797 -0.0633 -0.0602 -0.2290
  162SAPE   O2218154   5.753   5.548   6.779  0.5353  0.2618 -0.2304
  162SAPE   C2218155   5.897   5.722   6.859 -0.3348 -0.8907 -0.3184
  162SAPE   H2R18156   5.967   5.711   6.945 -2.6648  2.0543  2.1897
  162SAPE   H2S18157   5.938   5.793   6.784  1.1442 -1.7289 -0.3339
  162SAPE    C318158   6.094   5.358   6.653 -0.4019 -0.5439  0.0388
  162SAPE    HX18159   6.156   5.440   6.613  0.7148 -2.0868 -1.5807
  162SAPE    HY18160   6.089   5.273   6.581  0.2857 -1.5597  1.1449
  162SAPE   O3118161   6.153   5.306   6.779  0.2981 -0.1716  0.1313
  162SAPE   C3118162   6.263   5.376   6.818 -0.6531  0.3359  0.1273
  162SAPE   O3218163   6.320   5.463   6.758 -0.3400 -0.1620  0.3526
  162SAPE   C3218164   6.317   5.309   6.945  0.2287  0.2631 -0.0101
  162SAPE   H2X18165   6.429   5.309   6.943  0.2259  0.9841 -1.3792
  162SAPE   H2Y18166   6.276   5.207   6.952 -0.6876  0.5989 -0.3828
  162SAPE   C2318167   5.770   5.776   6.944  0.3126  0.2847 -0.4284
  162SAPE   H3R18168   5.687   5.765   6.870 -0.1685  2.2869 -0.2353
  162SAPE   H3S18169   5.771   5.887   6.946  1.6158  0.2692  0.5227
  162SAPE   C2418170   5.731   5.699   7.070  0.0521  1.0264 -0.3341
  162SAPE   H4R18171   5.705   5.596   7.040 -0.9175 -0.3323  4.2866
  162SAPE   H4S18172   5.630   5.722   7.111 -0.3780  0.6710 -1.1918
  162SAPE   C2518173   5.839   5.712   7.175  0.7992 -0.4776 -0.5216
  162SAPE   H5R18174   5.915   5.789   7.155 -1.4439  2.0594  0.2154
  162SAPE   C2618175   5.853   5.640   7.284 -0.3524  0.6848 -0.2139
  162SAPE   H6R18176   5.936   5.661   7.353  0.2026 -0.4017 -0.5260
  162SAPE   C2718177   5.775   5.512   7.307 -0.1414 -0.4695  0.2499
  162SAPE   H7R18178   5.716   5.483   7.217 -1.7284 -1.9932  1.7090
  162SAPE   H7S18179   5.700   5.544   7.383  0.1397 -0.0218  0.3408
  162SAPE   C2818180   5.859   5.397   7.357  0.5776 -0.4109 -0.6756
  162SAPE   H8R18181   5.879   5.315   7.286 -0.5886 -0.0324 -1.4835
  162SAPE   C2918182   5.903   5.381   7.485  0.2569 -0.8025 -0.2206
  162SAPE   H9R18183   5.974   5.299   7.506  1.0395  0.2348  1.4908
  162SAPE  C21018184   5.877   5.478   7.610 -0.3561  0.7013 -0.6310
  162SAPE  H10R18185   5.785   5.537   7.591 -2.1092 -1.4864  0.5586
  162SAPE  H10S18186   5.967   5.539   7.633 -0.3221  1.4414 -2.5490
  162SAPE  C21118187   5.878   5.398   7.737  0.2148 -0.4909  0.0688
  162SAPE  H11R18188   5.973   5.398   7.793 -0.8210  0.6864  1.9689
  162SAPE  C21218189   5.782   5.325   7.791 -0.3497  0.1426 -0.3794
  162SAPE  H12R18190   5.801   5.263   7.881 -1.0539 -1.8318 -1.5193
  162SAPE  C21318191   5.642   5.321   7.730  0.3153 -0.2631  0.7663
  162SAPE  H13R18192   5.625   5.376   7.635  0.3772  1.4278  1.6865
  162SAPE  H13S18193   5.577   5.375   7.802  2.2047  0.7233  1.8187
  162SAPE  C21418194   5.596   5.175   7.718  0.5922 -0.7380  0.4631
  162SAPE  H14R18195   5.585   5.123   7.814  1.1930  0.5934  1.2789
  162SAPE  C21518196   5.577   5.112   7.594 -0.1372  0.4403 -0.4040
  162SAPE  H15R18197   5.561   5.003   7.585 -0.9362  0.3473  1.6764
  162SAPE  C21618198   5.585   5.183   7.462  0.2058  0.5545  0.1308
  162SAPE  H16R18199   5.627   5.103   7.398  0.7854 -0.0821  1.2737
  162SAPE  H16S18200   5.660   5.265   7.470 -0.0808  0.8617 -0.2627
  162SAPE  C21718201   5.459   5.233   7.393 -0.2628 -0.6087 -0.6443
  162SAPE  H17R18202   5.425   5.320   7.453 -0.1673 -1.1046  0.1503
  162SAPE  H17S18203   5.374   5.162   7.407  0.1319 -0.8556  0.5862
  162SAPE  C21818204   5.486   5.280   7.256 -0.6611 -1.1545  0.8277
  162SAPE  H18R18205   5.475   5.195   7.186 -0.7123 -0.5530  0.0962
  162SAPE  H18S18206   5.588   5.321   7.247 -0.5048 -1.7658 -0.3046
  162SAPE  C21918207   5.380   5.384   7.218 -0.6766 -0.1712  0.6212
  162SAPE  H19R18208   5.398   5.420   7.115  0.5844 -0.7542  0.6182
  162SAPE  H19S18209   5.390   5.476   7.280 -0.3813 -0.6833  1.3484
  162SAPE  C22018210   5.237   5.327   7.224  0.0009 -0.7785 -0.0622
  162SAPE  H20R18211   5.224   5.246   7.149  1.6518 -0.3938 -0.7957
  162SAPE  H20S18212   5.159   5.406   7.217  0.3194 -0.0421  3.2454
  162SAPE  H20T18213   5.218   5.291   7.328 -3.4109 -0.3067 -0.3885
  162SAPE   C3318214   6.281   5.383   7.077 -0.0065 -0.3178  1.6462
  162SAPE   H3X18215   6.174   5.411   7.064 -0.0493 -0.8872  0.7507
  162SAPE   H3Y18216   6.336   5.479   7.085  0.3393 -0.4966  1.4262
  162SAPE   C3418217   6.299   5.299   7.209 -0.1720  0.1805  0.1500
  162SAPE   H4X18218   6.407   5.273   7.212 -0.2928 -0.4639 -0.6227
  162SAPE   H4Y18219   6.251   5.199   7.214 -0.4689  0.2871 -0.4404
  162SAPE   C3518220   6.256   5.377   7.333  0.6233  0.3486  0.2415
  162SAPE   H5X18221   6.146   5.366   7.343  0.4405  0.4515 -1.3954
  162SAPE   H5Y18222   6.288   5.484   7.336 -1.0527  0.9452 -1.4493
  162SAPE   C3618223   6.319   5.321   7.462  0.0280  0.0569 -0.0800
  162SAPE   H6X18224   6.417   5.375   7.462 -0.8048  1.6214  0.2921
  162SAPE   H6Y18225   6.335   5.211   7.458  0.6428  0.1549 -3.4024
  162SAPE   C3718226   6.236   5.360   7.587 -0.4557 -0.0093  1.2723
  162SAPE   H7X18227   6.155   5.287   7.606  0.4190 -0.6549  2.6903
  162SAPE   H7Y18228   6.194   5.463   7.576 -2.3192 -0.9573 -1.5851
  162SAPE   C3818229   6.320   5.346   7.712 -0.3730 -0.0295 -0.2828
  162SAPE   H8X18230   6.402   5.420   7.713  2.0667 -2.5459  1.7283
  162SAPE   H8Y18231   6.355   5.241   7.713 -0.4942 -0.0692  0.1028
  162SAPE   C3918232   6.237   5.366   7.833  0.6179 -0.4313  0.0156
  162SAPE   H9X18233   6.155   5.292   7.832  0.1982 -0.0073  1.2654
  162SAPE   H9Y18234   6.196   5.469   7.822  2.6451  0.1403 -3.7384
  162SAPE  C31018235   6.311   5.353   7.956  0.3783  0.7250  0.4512
  162SAPE  H10X18236   6.399   5.420   7.947  0.5158  0.3969 -0.8392
  162SAPE  H10Y18237   6.354   5.250   7.960  0.8082  0.6516 -2.9260
  162SAPE  C31118238   6.227   5.358   8.085 -0.6212 -0.6017 -0.0000
  162SAPE  H11X18239   6.150   5.280   8.067  0.2866 -1.4563 -0.3331
  162SAPE  H11Y18240   6.196   5.462   8.105 -0.4001 -0.4776 -0.2934
  162SAPE  C31218241   6.303   5.316   8.211 -0.6353 -0.0828 -0.7837
  162SAPE  H12X18242   6.369   5.404   8.226  2.1013 -2.2665  1.1360
  162SAPE  H12Y18243   6.375   5.232   8.203 -0.6208 -0.0096 -1.4977
  162SAPE  C31318244   6.208   5.305   8.331 -0.0203  0.2147  0.6723
  162SAPE  H13X18245   6.135   5.224   8.314 -0.6848  1.1853 -1.4094
  162SAPE  H13Y18246   6.151   5.401   8.342  1.3447  0.8814  2.4831
  162SAPE  C31418247   6.279   5.279   8.468 -0.9202 -0.6545  0.5535
  162SAPE  H14X18248   6.362   5.353   8.477  0.9437 -2.1346 -2.7138
  162SAPE  H14Y18249   6.322   5.177   8.470  1.0900  0.0816  3.9752
  162SAPE  C31518250   6.181   5.302   8.584  0.0353 -0.0451 -0.2977
  162SAPE  H15X18251   6.209   5.233   8.666  3.0046  1.1266 -0.2059
  162SAPE  H15Y18252   6.083   5.265   8.546  0.2337  0.4506 -1.3490
  162SAPE  C31618253   6.180   5.450   8.642 -0.4025  0.1276 -0.5374
  162SAPE  H16X18254   6.137   5.503   8.554  0.9451  0.5893 -0.9405
  162SAPE  H16Y18255   6.279   5.490   8.671 -0.3438  0.1286 -0.7326
  162SAPE  C31718256   6.084   5.453   8.767 -0.2781  0.3927 -0.4087
  162SAPE  H17X18257   6.147   5.440   8.858 -0.5091 -1.1976 -0.4342
  162SAPE  H17Y18258   6.025   5.359   8.756  1.6084 -0.6852 -1.9422
  162SAPE  C31818259   6.018   5.586   8.779  0.4069 -0.7899 -0.2569
  162SAPE  H18X18260   6.083   5.660   8.726 -0.6572 -0.6831 -1.4477
  162SAPE  H18Y18261   5.990   5.613   8.883 -1.1073 -2.1664 -0.2653
  162SAPE  H18Z18262   5.922   5.591   8.723  0.7800  0.7253 -0.8233
  163SAPE     N18263   0.151   3.316   6.522 -0.2886 -0.9104  0.6991
  163SAPE   HN118264   0.247   3.322   6.481  0.1225 -1.1508  1.5990
  163SAPE   HN218265   0.100   3.279   6.440  1.7366  0.0645 -1.0882
  163SAPE   HN318266   0.109   3.405   6.557 -2.6202 -1.6103 -0.1458
  163SAPE   C1218267   0.157   3.230   6.633  0.3186 -0.5130 -0.2269
  163SAPE  H12A18268   0.201   3.286   6.718  0.4990  0.4831 -0.9682
  163SAPE  H12B18269   0.229   3.151   6.603  1.2120 -1.0079  2.8632
  163SAPE   C1118270   0.018   3.172   6.669  0.0334 -0.0983  0.4778
  163SAPE  H11A18271   0.010   3.140   6.775 -1.2457  1.8177  1.0161
  163SAPE  H11B18272  -0.002   3.081   6.609 -0.6495 -0.2808  0.9736
  163SAPE     P18273  -0.240   3.233   6.670  0.1061 -0.0099  0.2030
  163SAPE   O1318274  -0.307   3.352   6.611 -0.1198  0.1775  0.4979
  163SAPE   O1418275  -0.273   3.096   6.623  0.0362 -0.3192  0.4043
  163SAPE   O1218276  -0.086   3.265   6.639  0.2117 -0.0748  0.1518
  163SAPE   O1118277  -0.254   3.237   6.825  0.8137 -0.2688 -0.0532
  163SAPE    C118278  -0.384   3.246   6.886 -0.3043  0.3911  0.1265
  163SAPE    HA18279  -0.461   3.185   6.834 -1.5074  2.0042 -0.0712
  163SAPE    HB18280  -0.379   3.210   6.991  0.5806 -0.1360 -0.0873
  163SAPE    C218281  -0.438   3.391   6.900  0.3685  0.3329  0.3088
  163SAPE    HS18282  -0.452   3.425   6.795 -0.6636 -1.0328 -0.0223
  163SAPE   O2118283  -0.346   3.472   6.975  0.2086  0.3743  0.3866
  163SAPE   C2118284  -0.344   3.600   6.941 -0.1042 -0.2272 -0.6298
  163SAPE   O2218285  -0.414   3.649   6.855 -0.0522  0.3527  1.2089
  163SAPE   C2218286  -0.237   3.674   7.024  0.0987  0.8534  0.3313
  163SAPE   H2R18287  -0.137   3.644   6.983 -0.0112  1.7078 -0.6086
  163SAPE   H2S18288  -0.251   3.784   7.018  2.4372  1.1889 -0.0104
  163SAPE    C318289  -0.589   3.391   6.960 -0.0893 -0.0849 -0.9144
  163SAPE    HX18290  -0.642   3.333   6.882 -0.7425  0.7463 -1.1056
  163SAPE    HY18291  -0.632   3.493   6.963 -0.7198 -0.3372  2.2341
  163SAPE   O3118292  -0.604   3.323   7.094  0.1792  0.5847 -0.0505
  163SAPE   C3118293  -0.582   3.405   7.196  1.0682 -0.8575  0.9556
  163SAPE   O3218294  -0.550   3.523   7.190 -0.1307  0.1713  0.7981
  163SAPE   C3218295  -0.628   3.328   7.322 -0.7261 -0.1800  0.2124
  163SAPE   H2X18296  -0.595   3.223   7.309 -2.7110 -1.0158  1.5185
  163SAPE   H2Y18297  -0.739   3.327   7.316 -0.8594 -0.2359  2.1800
  163SAPE   C2318298  -0.236   3.624   7.170 -0.7156  0.3650 -0.6600
  163SAPE   H3R18299  -0.211   3.516   7.162  0.1348  0.5485 -0.5451
  163SAPE   H3S18300  -0.321   3.635   7.241  0.7270  1.3472  1.0189
  163SAPE   C2418301  -0.122   3.702   7.240  0.5705  0.6985 -0.1254
  163SAPE   H4R18302  -0.170   3.796   7.274  0.0547  1.2305 -2.1807
  163SAPE   H4S18303  -0.046   3.732   7.165  2.9129  1.1869  2.2829
  163SAPE   C2518304  -0.050   3.630   7.350 -0.4665 -0.5909 -0.7059
  163SAPE   H5R18305   0.008   3.552   7.299  1.4852  2.5371 -3.7252
  163SAPE   C2618306  -0.038   3.660   7.481 -0.1147 -0.8803  0.6125
  163SAPE   H6R18307   0.036   3.599   7.534 -0.0838 -0.9202  0.5231
  163SAPE   C2718308  -0.100   3.772   7.564  0.4133  0.4996  0.1863
  163SAPE   H7R18309  -0.180   3.726   7.625 -0.4541  2.5289  0.6750
  163SAPE   H7S18310  -0.151   3.837   7.490  1.7791  0.0595 -1.1948
  163SAPE   C2818311   0.003   3.851   7.638 -0.4826 -0.5221  0.6586
  163SAPE   H8R18312   0.097   3.859   7.582 -0.6396 -1.6546  0.2064
  163SAPE   C2918313  -0.011   3.921   7.753  0.2545  0.2379 -0.4405
  163SAPE   H9R18314   0.067   3.993   7.782 -1.8879  3.3282 -1.7799
  163SAPE  C21018315  -0.139   3.931   7.836  0.3663  0.4816 -0.0961
  163SAPE  H10R18316  -0.231   3.891   7.788  0.5507  1.5115 -1.3583
  163SAPE  H10S18317  -0.160   4.038   7.854 -1.2119 -0.1024  1.8919
  163SAPE  C21118318  -0.126   3.851   7.966  0.8817  0.5214  0.4870
  163SAPE  H11R18319  -0.072   3.755   7.955  0.9011  0.7490 -2.0020
  163SAPE  C21218320  -0.175   3.881   8.086  0.0094 -0.0657  0.0751
  163SAPE  H12R18321  -0.157   3.806   8.165  2.1270 -4.3515 -4.0112
  163SAPE  C21318322  -0.254   3.998   8.136  0.8032  0.5456 -0.6262
  163SAPE  H13R18323  -0.274   4.072   8.055 -1.1453  0.1851 -0.5308
  163SAPE  H13S18324  -0.188   4.045   8.212  0.7042 -0.0198 -0.1860
  163SAPE  C21418325  -0.383   3.954   8.195  0.5426 -0.0586  1.0266
  163SAPE  H14R18326  -0.454   3.897   8.133  0.0444 -0.2448  1.7545
  163SAPE  C21518327  -0.427   3.989   8.315  0.1489  0.8197 -0.6406
  163SAPE  H15R18328  -0.515   3.939   8.357  1.6325 -1.0736  0.4089
  163SAPE  C21618329  -0.354   4.072   8.410 -0.3178 -0.7784 -0.2362
  163SAPE  H16R18330  -0.435   4.098   8.482 -0.4073  0.9941 -0.9209
  163SAPE  H16S18331  -0.307   4.159   8.360  2.9935 -2.6490 -0.6384
  163SAPE  C21718332  -0.246   4.003   8.478 -0.7290 -0.3154 -0.2768
  163SAPE  H17R18333  -0.153   3.989   8.419 -2.2123 -2.8110 -2.1841
  163SAPE  H17S18334  -0.277   3.901   8.508  1.2789 -0.6849  0.7274
  163SAPE  C21818335  -0.204   4.078   8.606 -0.1958  0.2759 -0.0811
  163SAPE  H18R18336  -0.293   4.081   8.673  1.4109 -0.0480  2.1606
  163SAPE  H18S18337  -0.176   4.181   8.574  1.9190 -0.4659 -0.7960
  163SAPE  C21918338  -0.096   4.016   8.685 -0.3897 -0.2882  0.3947
  163SAPE  H19R18339  -0.007   4.046   8.626 -0.2045  2.3986  1.8612
  163SAPE  H19S18340  -0.111   3.906   8.686 -0.4835 -0.3594 -2.4903
  163SAPE  C22018341  -0.085   4.063   8.828 -0.2425  0.0187 -0.3157
  163SAPE  H20R18342  -0.070   4.173   8.838 -0.7802  0.5032 -3.6623
  163SAPE  H20S18343  -0.014   4.003   8.888  0.7907  1.3904 -0.0993
  163SAPE  H20T18344  -0.181   4.046   8.879  0.4192 -0.6757  0.7315
  163SAPE   C3318345  -0.578   3.395   7.447  0.1987 -0.3784 -0.1122
  163SAPE   H3X18346  -0.618   3.497   7.462 -0.5804 -0.7844  0.6577
  163SAPE   H3Y18347  -0.467   3.392   7.442  0.2136 -3.2411  0.2143
  163SAPE   C3418348  -0.603   3.318   7.585 -0.3443 -0.3747  1.1771
  163SAPE   H4X18349  -0.564   3.372   7.674  1.2617  1.1202 -0.3703
  163SAPE   H4Y18350  -0.547   3.221   7.582  4.0093  1.9265 -0.7115
  163SAPE   C3518351  -0.748   3.278   7.621  0.3899 -0.6298  0.4913
  163SAPE   H5X18352  -0.814   3.246   7.538 -1.3130  0.6748  1.2774
  163SAPE   H5Y18353  -0.796   3.371   7.659 -1.2050 -2.0150  2.0348
  163SAPE   C3618354  -0.749   3.177   7.736 -0.4408  0.0444  0.2268
  163SAPE   H6X18355  -0.685   3.215   7.818 -0.8975  0.2700  0.4844
  163SAPE   H6Y18356  -0.716   3.077   7.701 -0.2336  0.2939 -0.3041
  163SAPE   C3718357  -0.887   3.163   7.805  0.3187 -0.7888 -0.4875
  163SAPE   H7X18358  -0.879   3.091   7.889 -1.5304  1.4573  1.7797
  163SAPE   H7Y18359  -0.962   3.122   7.734  2.2351 -3.1132 -1.2803
  163SAPE   C3818360  -0.923   3.294   7.879  0.3708 -0.0311 -0.0685
  163SAPE   H8X18361  -0.942   3.378   7.809  0.1413 -1.2846 -1.5552
  163SAPE   H8Y18362  -0.833   3.320   7.940  0.6020 -0.6563 -0.1393
  163SAPE   C3918363  -1.046   3.288   7.973  0.4468  1.1292 -0.0398
  163SAPE   H9X18364  -1.132   3.302   7.903  1.1405  1.4514 -0.8390
  163SAPE   H9Y18365  -1.068   3.384   8.025 -5.7964  0.8104 -1.2352
  163SAPE  C31018366  -1.071   3.162   8.050  0.3362  0.5997 -0.8467
  163SAPE  H10X18367  -1.111   3.078   7.989 -0.2570 -1.2673  1.9013
  163SAPE  H10Y18368  -1.154   3.191   8.118  1.1466 -0.2930  0.5620
  163SAPE  C31118369  -0.945   3.129   8.139  0.3541  0.0290 -0.2565
  163SAPE  H11X18370  -0.917   3.220   8.196  0.5822  0.7288 -1.4526
  163SAPE  H11Y18371  -0.848   3.101   8.091  0.2512 -2.4308  0.8103
  163SAPE  C31218372  -0.973   3.013   8.237  0.5679  0.2048 -0.1161
  163SAPE  H12X18373  -1.031   2.935   8.182  1.0601 -2.1793  2.5390
  163SAPE  H12Y18374  -1.033   3.046   8.325  1.9099 -2.0457  1.7385
  163SAPE  C31318375  -0.861   2.938   8.288 -0.5691  0.3370  0.4938
  163SAPE  H13X18376  -0.767   2.998   8.279 -0.8810  0.8384  0.5583
  163SAPE  H13Y18377  -0.847   2.851   8.221 -1.3829 -0.2428  1.0707
  163SAPE  C31418378  -0.886   2.902   8.430 -0.1152  0.0065 -0.3563
  163SAPE  H14X18379  -0.983   2.848   8.431  0.3442 -0.8181  0.7679
  163SAPE  H14Y18380  -0.887   2.997   8.488  0.6803 -0.6753  0.8032
  163SAPE  C31518381  -0.770   2.817   8.489  0.1638  0.4065  0.5402
  163SAPE  H15X18382  -0.679   2.864   8.446 -0.7846 -0.6584 -2.9672
  163SAPE  H15Y18383  -0.763   2.718   8.440 -2.3045  0.2324  0.4243
  163SAPE  C31618384  -0.761   2.800   8.643 -0.1927  0.1441 -0.0206
  163SAPE  H16X18385  -0.804   2.892   8.688  2.2484  2.1807 -1.5580
  163SAPE  H16Y18386  -0.657   2.793   8.683 -0.9808  1.0576  2.3580
  163SAPE  C31718387  -0.852   2.688   8.698  0.2820  0.3219 -0.1985
  163SAPE  H17X18388  -0.811   2.592   8.659  0.2471  1.0966 -2.2652
  163SAPE  H17Y18389  -0.949   2.701   8.647 -0.4496 -0.3395  0.9805
  163SAPE  C31818390  -0.867   2.681   8.851  0.1937 -0.1521  0.1294
  163SAPE  H18X18391  -0.957   2.624   8.884  1.0043 -0.8666  1.1722
  163SAPE  H18Y18392  -0.865   2.783   8.894 -0.8605 -0.4921  1.0255
  163SAPE  H18Z18393  -0.786   2.619   8.895  1.1498  3.0506  3.3482
  164SAPE     N18394   2.861   2.735   6.574 -0.0478 -0.0589  0.0188
  164SAPE   HN118395   2.787   2.670   6.608 -0.7250  1.5823  1.8533
  164SAPE   HN218396   2.931   2.751   6.648  1.4435 -1.4198 -1.0268
  164SAPE   HN318397   2.809   2.823   6.553  2.0049  0.8922 -1.4841
  164SAPE   C1218398   2.922   2.681   6.450 -0.1639  0.0701 -0.3233
  164SAPE  H12A18399   2.991   2.601   6.484  0.0395  0.1333 -0.5886
  164SAPE  H12B18400   2.990   2.753   6.401  0.5498 -0.8393 -0.7067
  164SAPE   C1118401   2.819   2.639   6.342  0.2715 -0.0670 -0.0586
  164SAPE  H11A18402   2.767   2.547   6.377 -0.6789 -0.0478 -1.3681
  164SAPE  H11B18403   2.878   2.609   6.253  2.6584  2.7540  0.3971
  164SAPE     P18404   2.578   2.735   6.309  0.2731  0.3145  0.0782
  164SAPE   O1318405   2.520   2.869   6.334  0.7627  0.1664  0.0183
  164SAPE   O1418406   2.527   2.673   6.190 -0.3864  0.7820 -0.4639
  164SAPE   O1218407   2.731   2.748   6.305 -0.1331 -0.4256 -0.0688
  164SAPE   O1118408   2.566   2.642   6.437  0.1111 -0.3799 -0.1896
  164SAPE    C118409   2.460   2.548   6.453  1.2890  0.4716  0.2552
  164SAPE    HA18410   2.380   2.548   6.376  0.9857  0.3327  0.5663
  164SAPE    HB18411   2.498   2.443   6.455 -2.1034 -0.8652  0.5210
  164SAPE    C218412   2.388   2.566   6.593  0.3710  0.0020 -0.3622
  164SAPE    HS18413   2.311   2.487   6.606  1.1173 -0.8745 -1.1353
  164SAPE   O2118414   2.328   2.696   6.592  0.1356  0.1128 -0.2810
  164SAPE   C2118415   2.216   2.709   6.510 -0.4306 -0.7208 -0.3127
  164SAPE   O2218416   2.155   2.626   6.449  0.3050  0.4764  0.2394
  164SAPE   C2218417   2.185   2.861   6.530  0.4677  0.4511  0.3505
  164SAPE   H2R18418   2.262   2.908   6.466  0.3640  2.0713  1.3554
  164SAPE   H2S18419   2.081   2.865   6.492  0.8900  0.1223 -0.8848
  164SAPE    C318420   2.479   2.563   6.713  0.2853  0.4623  0.5342
  164SAPE    HX18421   2.415   2.601   6.795  0.5638  0.9677  0.5148
  164SAPE    HY18422   2.557   2.640   6.701  0.1856  0.5544  0.4718
  164SAPE   O3118423   2.531   2.434   6.746 -0.0108  0.4876  0.6016
  164SAPE   C3118424   2.662   2.425   6.778 -0.0318 -0.2016  0.0189
  164SAPE   O3218425   2.741   2.517   6.761 -0.2933  0.5088  0.1021
  164SAPE   C3218426   2.694   2.282   6.827  0.0094  0.3780  0.8173
  164SAPE   H2X18427   2.742   2.232   6.741 -2.6718  0.6171 -0.9512
  164SAPE   H2Y18428   2.598   2.226   6.838  0.1647 -1.2924 -3.9337
  164SAPE   C2318429   2.183   2.921   6.670  0.6294  0.2427 -0.0602
  164SAPE   H3R18430   2.181   3.032   6.673 -2.6021  0.2471  1.8383
  164SAPE   H3S18431   2.274   2.902   6.732  1.0387 -4.2069 -1.6871
  164SAPE   C2418432   2.058   2.880   6.752 -0.4382  0.3550 -0.1573
  164SAPE   H4R18433   2.035   2.772   6.739  2.2014 -0.1296 -1.4151
  164SAPE   H4S18434   1.975   2.933   6.700  0.1543  0.3407 -1.1485
  164SAPE   C2518435   2.072   2.922   6.898  0.3425 -0.5538 -0.0265
  164SAPE   H5R18436   2.137   3.009   6.913 -0.4444  0.0902 -0.2351
  164SAPE   C2618437   2.019   2.857   7.002 -0.4849 -0.1036  0.3039
  164SAPE   H6R18438   2.027   2.890   7.107 -2.1331  0.9811  0.1298
  164SAPE   C2718439   1.943   2.728   7.006  0.3590 -0.3054  0.3344
  164SAPE   H7R18440   1.968   2.680   7.103  4.0983 -0.1928 -0.4216
  164SAPE   H7S18441   1.986   2.657   6.931  3.1394  1.1459  0.4056
  164SAPE   C2818442   1.796   2.755   6.989  0.1959  0.5107  0.4065
  164SAPE   H8R18443   1.769   2.786   6.887  0.3545 -0.4869  0.0519
  164SAPE   C2918444   1.698   2.719   7.078  0.4166 -0.9186 -0.0950
  164SAPE   H9R18445   1.594   2.728   7.043  0.1252 -1.3905  0.6157
  164SAPE  C21018446   1.730   2.660   7.218  0.1491  0.3441  0.0246
  164SAPE  H10R18447   1.837   2.674   7.246 -0.0439  0.8806  0.5004
  164SAPE  H10S18448   1.712   2.551   7.203  1.3448  0.2410 -0.8125
  164SAPE  C21118449   1.633   2.707   7.323 -0.3346 -0.5876 -0.1513
  164SAPE  H11R18450   1.546   2.759   7.282  1.8136  2.7248 -0.8735
  164SAPE  C21218451   1.671   2.707   7.452  0.5190 -0.0721 -0.2324
  164SAPE  H12R18452   1.608   2.745   7.534  0.6854 -1.0115  0.3532
  164SAPE  C21318453   1.794   2.653   7.522  0.4169 -0.2121  0.3645
  164SAPE  H13R18454   1.868   2.735   7.533  1.1439 -1.0600  2.2489
  164SAPE  H13S18455   1.850   2.579   7.461  1.1425 -0.2651  1.0696
  164SAPE  C21418456   1.772   2.590   7.662  0.3339 -0.1000  0.2134
  164SAPE  H14R18457   1.694   2.647   7.716 -0.7958 -1.5435  0.1646
  164SAPE  C21518458   1.852   2.498   7.721 -0.8065  0.5466  0.0860
  164SAPE  H15R18459   1.837   2.453   7.820  0.9741 -2.2130 -0.7740
  164SAPE  C21618460   1.974   2.437   7.647 -0.3534  0.2482  0.0024
  164SAPE  H16R18461   1.953   2.414   7.541  0.2833 -2.1210  0.3440
  164SAPE  H16S18462   1.990   2.337   7.693 -0.1241  0.4229  0.3088
  164SAPE  C21718463   2.108   2.506   7.656 -0.2812 -0.0673  0.3950
  164SAPE  H17R18464   2.100   2.613   7.625  0.5425  0.3022  1.4058
  164SAPE  H17S18465   2.170   2.456   7.578  0.2525 -1.6974  1.8068
  164SAPE  C21818466   2.179   2.503   7.786  0.2882 -0.6974 -0.0111
  164SAPE  H18R18467   2.158   2.407   7.837 -1.1600 -0.0931  0.5983
  164SAPE  H18S18468   2.132   2.586   7.844 -0.4685 -0.8618 -0.3722
  164SAPE  C21918469   2.332   2.514   7.767  0.2971  0.1281  0.1396
  164SAPE  H19R18470   2.358   2.618   7.741 -0.3483  1.0486  2.8784
  164SAPE  H19S18471   2.361   2.452   7.679  1.3733 -0.5711  0.9545
  164SAPE  C22018472   2.406   2.482   7.898 -0.3493 -0.3778 -0.3804
  164SAPE  H20R18473   2.378   2.566   7.964 -0.5151  1.7964 -3.0680
  164SAPE  H20S18474   2.517   2.490   7.894 -0.4560  0.7171 -2.3411
  164SAPE  H20T18475   2.377   2.384   7.942  0.7461  0.4290  2.3719
  164SAPE   C3318476   2.762   2.268   6.967 -0.0129 -0.4075  0.0569
  164SAPE   H3X18477   2.865   2.306   6.958  0.1096 -0.7803 -0.1344
  164SAPE   H3Y18478   2.773   2.159   6.983 -2.3273 -0.3837  2.5901
  164SAPE   C3418479   2.683   2.321   7.086 -0.0786  0.0199 -0.1959
  164SAPE   H4X18480   2.579   2.285   7.076  0.0344 -0.8277  1.3314
  164SAPE   H4Y18481   2.685   2.432   7.092 -2.3154  0.1879 -1.6890
  164SAPE   C3518482   2.730   2.253   7.218  0.6552 -0.6711  0.1463
  164SAPE   H5X18483   2.839   2.269   7.233  0.3919  2.6288 -0.6079
  164SAPE   H5Y18484   2.711   2.143   7.215 -1.3685 -0.3983  0.9136
  164SAPE   C3618485   2.653   2.304   7.347 -1.0519  0.2501 -0.3289
  164SAPE   H6X18486   2.691   2.404   7.374  0.8096 -0.0631 -1.6434
  164SAPE   H6Y18487   2.687   2.234   7.427 -3.1314  0.0803  0.4668
  164SAPE   C3718488   2.502   2.303   7.346  0.3051  0.1407  0.0062
  164SAPE   H7X18489   2.457   2.374   7.273 -0.2371  1.0516  1.2039
  164SAPE   H7Y18490   2.464   2.346   7.441 -0.5305  1.1575 -0.7597
  164SAPE   C3818491   2.450   2.159   7.317  0.1000  0.6591  0.4001
  164SAPE   H8X18492   2.508   2.090   7.382 -0.3975 -2.0439 -1.8363
  164SAPE   H8Y18493   2.470   2.135   7.211 -1.2578  0.6921  0.1160
  164SAPE   C3918494   2.298   2.138   7.327  0.5473  0.1606 -0.1445
  164SAPE   H9X18495   2.299   2.027   7.325 -0.4808  0.1533 -0.5520
  164SAPE   H9Y18496   2.241   2.176   7.239  1.2452 -0.9531 -1.1126
  164SAPE  C31018497   2.238   2.195   7.458 -0.0500 -0.8349  0.2888
  164SAPE  H10X18498   2.127   2.184   7.450  0.0905 -1.3429 -1.0483
  164SAPE  H10Y18499   2.268   2.302   7.468 -0.0200 -0.8233  0.0632
  164SAPE  C31118500   2.289   2.106   7.568  0.1530 -0.4003  0.2831
  164SAPE  H11X18501   2.398   2.122   7.583 -0.1681  1.2126  1.1235
  164SAPE  H11Y18502   2.274   1.997   7.550 -2.5317 -0.4928  2.5092
  164SAPE  C31218503   2.216   2.134   7.704  0.1046  0.0624  0.2636
  164SAPE  H12X18504   2.112   2.095   7.699  0.0391  0.1261  0.9806
  164SAPE  H12Y18505   2.199   2.243   7.704  0.8762  0.2440 -2.2109
  164SAPE  C31318506   2.299   2.078   7.814 -0.5723 -0.2593 -0.0116
  164SAPE  H13X18507   2.393   2.136   7.828 -0.3005 -0.9486  1.1916
  164SAPE  H13Y18508   2.316   1.972   7.789 -0.8326 -0.2105 -0.3958
  164SAPE  C31418509   2.244   2.090   7.959  0.1566 -0.1586 -0.3715
  164SAPE  H14X18510   2.140   2.051   7.955 -0.6955  1.9080  0.1057
  164SAPE  H14Y18511   2.232   2.194   7.996  1.8977  0.0940 -0.4649
  164SAPE  C31518512   2.334   2.024   8.058 -0.3001  0.2606  0.3068
  164SAPE  H15X18513   2.365   1.928   8.011 -1.9553  0.0988 -0.5084
  164SAPE  H15Y18514   2.280   2.004   8.153  1.3952 -2.0079  0.8776
  164SAPE  C31618515   2.462   2.109   8.082  0.4064 -0.2015 -0.7720
  164SAPE  H16X18516   2.436   2.217   8.086  1.6955  0.1020  1.3735
  164SAPE  H16Y18517   2.527   2.098   7.993 -0.4963  2.2044 -1.8452
  164SAPE  C31718518   2.534   2.079   8.215  0.4253  0.3664 -0.3174
  164SAPE  H17X18519   2.629   2.137   8.215  1.4420 -1.1845 -2.0830
  164SAPE  H17Y18520   2.541   1.968   8.222  2.2562  0.3254 -2.0075
  164SAPE  C31818521   2.443   2.105   8.339 -0.6057 -0.2757 -0.3569
  164SAPE  H18X18522   2.354   2.166   8.311  0.3733  1.1284 -0.5094
  164SAPE  H18Y18523   2.508   2.160   8.410 -0.6533 -0.5610 -0.0918
  164SAPE  H18Z18524   2.422   2.008   8.390 -0.1548 -0.3059 -0.2262
  165SAPE     N18525   1.830   6.344   6.083  0.3801 -0.5162 -0.4336
  165SAPE   HN118526   1.925   6.329   6.123 -0.6587 -0.2005  2.3931
  165SAPE   HN218527   1.814   6.263   6.021  4.5147 -2.3478  0.5749
  165SAPE   HN318528   1.847   6.430   6.026 -1.1213 -0.1586 -0.3780
  165SAPE   C1218529   1.733   6.395   6.187  0.3282 -0.3044 -0.3605
  165SAPE  H12A18530   1.640   6.420   6.130  0.0673 -2.6880 -1.1235
  165SAPE  H12B18531   1.777   6.488   6.227 -1.2974  0.1549  0.4561
  165SAPE   C1118532   1.713   6.294   6.304 -0.3648  0.3522 -0.2645
  165SAPE  H11A18533   1.664   6.205   6.258 -0.2363 -1.4858  2.8919
  165SAPE  H11B18534   1.645   6.343   6.377 -1.7467  1.1652 -2.0116
  165SAPE     P18535   1.824   6.148   6.485  0.4446  0.2444  0.0112
  165SAPE   O1318536   1.716   6.050   6.457  0.1969  0.8524 -0.1020
  165SAPE   O1418537   1.959   6.097   6.506 -0.0896  0.3809  0.3021
  165SAPE   O1218538   1.838   6.247   6.361 -0.1858 -0.3375 -0.4534
  165SAPE   O1118539   1.778   6.230   6.602  0.5794 -0.3995 -0.3599
  165SAPE    C118540   1.844   6.355   6.624 -0.2142 -0.6485 -0.2559
  165SAPE    HA18541   1.955   6.353   6.616 -0.2147  2.0088 -2.5327
  165SAPE    HB18542   1.834   6.430   6.543  3.8538 -0.7550 -1.0576
  165SAPE    C218543   1.814   6.411   6.766  0.1330 -0.9923 -0.3969
  165SAPE    HS18544   1.873   6.504   6.779  0.7036 -1.7254  3.8826
  165SAPE   O2118545   1.844   6.321   6.872  0.0689  0.0206  0.6240
  165SAPE   C2118546   1.968   6.289   6.891 -0.8710  0.1553  0.5819
  165SAPE   O2218547   2.062   6.358   6.845  0.1617  0.8726  0.2698
  165SAPE   C2218548   1.972   6.176   6.990 -0.4569 -0.0944  0.2268
  165SAPE   H2R18549   1.895   6.201   7.066 -1.3043  2.4921 -1.3647
  165SAPE   H2S18550   1.931   6.090   6.933  0.4419 -0.6353  0.3648
  165SAPE    C318551   1.663   6.459   6.772 -0.4034 -0.4466  0.3122
  165SAPE    HX18552   1.609   6.371   6.732  0.2748 -0.4863 -0.5479
  165SAPE    HY18553   1.664   6.541   6.697 -0.5808 -0.2092  0.5691
  165SAPE   O3118554   1.633   6.509   6.905  0.7886  0.3784  0.7567
  165SAPE   C3118555   1.581   6.420   6.983 -0.5685  0.0732  0.2209
  165SAPE   O3218556   1.560   6.300   6.948 -0.2347  0.3416 -0.0754
  165SAPE   C3218557   1.561   6.472   7.120  0.2031 -0.6415 -0.5922
  165SAPE   H2X18558   1.455   6.444   7.139  0.0425 -1.0074 -1.9656
  165SAPE   H2Y18559   1.558   6.583   7.122 -1.0560 -0.6157 -2.0405
  165SAPE   C2318560   2.107   6.134   7.040 -0.1893  0.3820  0.0297
  165SAPE   H3R18561   2.177   6.159   6.957  3.6458  1.2215  3.2274
  165SAPE   H3S18562   2.112   6.023   7.045 -0.6820  0.4166  1.9376
  165SAPE   C2418563   2.150   6.195   7.170  0.2172  0.5712  0.6863
  165SAPE   H4R18564   2.155   6.304   7.152  0.7102  0.6424  1.2138
  165SAPE   H4S18565   2.250   6.161   7.205  0.5250  2.8893  2.3611
  165SAPE   C2518566   2.057   6.175   7.284  0.1952  0.0350 -0.2813
  165SAPE   H5R18567   1.960   6.128   7.262 -0.6326  1.4323  0.2391
  165SAPE   C2618568   2.076   6.218   7.407  0.0598 -0.7057 -0.3738
  165SAPE   H6R18569   2.003   6.189   7.484 -1.0268 -0.0110 -1.1174
  165SAPE   C2718570   2.201   6.303   7.449 -0.2174  0.7043 -0.2610
  165SAPE   H7R18571   2.246   6.361   7.366  0.4604 -0.2080 -0.5449
  165SAPE   H7S18572   2.273   6.226   7.484 -0.1453  1.5616  1.6385
  165SAPE   C2818573   2.170   6.405   7.559 -0.5783 -0.1209  0.0254
  165SAPE   H8R18574   2.105   6.489   7.532  1.6131  1.6209 -0.1032
  165SAPE   C2918575   2.228   6.410   7.686 -0.0729  0.2169 -0.0911
  165SAPE   H9R18576   2.199   6.493   7.752  0.0659 -0.6834  1.1453
  165SAPE  C21018577   2.325   6.310   7.745  0.9734  0.1230  0.4113
  165SAPE  H10R18578   2.392   6.373   7.807  0.6630  0.1563  0.7140
  165SAPE  H10S18579   2.384   6.260   7.665  1.0044 -0.8304  1.0222
  165SAPE  C21118580   2.248   6.203   7.823 -0.7727  0.8521  0.1203
  165SAPE  H11R18581   2.191   6.129   7.764 -0.2020 -0.2804  0.9542
  165SAPE  C21218582   2.247   6.186   7.955 -0.5684  0.2408 -0.3757
  165SAPE  H12R18583   2.181   6.105   7.989  0.6521 -0.4318  0.4490
  165SAPE  C21318584   2.315   6.265   8.065  0.3764  0.2180 -0.3240
  165SAPE  H13R18585   2.334   6.368   8.027  0.1398 -0.0278 -1.1235
  165SAPE  H13S18586   2.414   6.226   8.099  0.0196 -0.7527 -0.3588
  165SAPE  C21418587   2.231   6.260   8.193  0.3331  0.7079 -0.1545
  165SAPE  H14R18588   2.131   6.218   8.174 -0.3381  2.0768  0.2036
  165SAPE  C21518589   2.258   6.292   8.320  0.2140  0.0111 -0.5900
  165SAPE  H15R18590   2.182   6.312   8.397  0.5187 -0.9619 -0.0110
  165SAPE  C21618591   2.395   6.337   8.361  0.4035  0.2468  0.8162
  165SAPE  H16R18592   2.469   6.309   8.283 -2.2626 -2.9771 -0.8149
  165SAPE  H16S18593   2.428   6.284   8.454 -0.7517  1.0653  1.7128
  165SAPE  C21718594   2.398   6.487   8.401 -0.2182  0.3445 -0.2282
  165SAPE  H17R18595   2.502   6.500   8.439 -0.1149 -1.5546  0.2585
  165SAPE  H17S18596   2.335   6.506   8.490  0.2789 -1.6976  0.6048
  165SAPE  C21818597   2.382   6.582   8.283  0.4221 -0.2390 -0.1304
  165SAPE  H18R18598   2.282   6.550   8.248  0.2282 -1.5183  1.4542
  165SAPE  H18S18599   2.447   6.567   8.194 -1.5406  0.6472 -1.7967
  165SAPE  C21918600   2.391   6.732   8.309 -0.4804  0.1365 -0.2621
  165SAPE  H19R18601   2.489   6.752   8.358 -2.0991 -0.8823  3.8313
  165SAPE  H19S18602   2.318   6.761   8.388  2.0240  1.9709  1.5285
  165SAPE  C22018603   2.379   6.826   8.193  0.5032 -0.6393  0.3627
  165SAPE  H20R18604   2.348   6.928   8.223  1.9259  0.8648 -2.7596
  165SAPE  H20S18605   2.306   6.790   8.117  1.8404  0.0513 -1.3185
  165SAPE  H20T18606   2.481   6.842   8.152 -0.3888  1.7953 -1.1219
  165SAPE   C3318607   1.665   6.415   7.227  0.1287 -0.2263  0.1745
  165SAPE   H3X18608   1.760   6.466   7.200 -1.9226  3.0970 -1.4761
  165SAPE   H3Y18609   1.677   6.305   7.213  0.9065 -0.1720  0.3785
  165SAPE   C3418610   1.630   6.446   7.371  0.0472 -0.1362 -0.1824
  165SAPE   H4X18611   1.537   6.392   7.401 -0.0555 -0.6606 -1.4141
  165SAPE   H4Y18612   1.612   6.555   7.388  1.6884  0.0048  0.8436
  165SAPE   C3518613   1.743   6.404   7.472 -0.1491  0.0732  0.0154
  165SAPE   H5X18614   1.832   6.462   7.438 -1.7777  2.9944  0.4080
  165SAPE   H5Y18615   1.763   6.295   7.461  0.2694 -0.3455  3.5627
  165SAPE   C3618616   1.728   6.434   7.624 -0.0171  0.4649 -0.5005
  165SAPE   H6X18617   1.646   6.365   7.654 -0.9047  0.8951 -1.8685
  165SAPE   H6Y18618   1.699   6.540   7.636 -1.0276 -0.0614  2.8971
  165SAPE   C3718619   1.850   6.416   7.716 -0.7481 -0.2277 -0.2765
  165SAPE   H7X18620   1.926   6.492   7.690  1.1471 -1.6610  0.7963
  165SAPE   H7Y18621   1.887   6.314   7.691 -0.9686 -0.4461  0.2627
  165SAPE   C3818622   1.818   6.429   7.865 -0.0828  0.3088  0.0217
  165SAPE   H8X18623   1.763   6.525   7.878 -0.1868  0.0473  1.6398
  165SAPE   H8Y18624   1.921   6.449   7.900  0.7956 -0.1222 -2.1214
  165SAPE   C3918625   1.757   6.308   7.939 -0.0305  0.4071  0.0149
  165SAPE   H9X18626   1.651   6.290   7.910  0.6198  0.6311 -2.7252
  165SAPE   H9Y18627   1.750   6.332   8.047 -3.4279 -0.2555  0.0705
  165SAPE  C31018628   1.838   6.185   7.920 -0.3623  0.1177 -0.0416
  165SAPE  H10X18629   1.945   6.183   7.951 -1.3103 -2.1307  3.8182
  165SAPE  H10Y18630   1.831   6.156   7.813  0.9698 -0.1165 -0.0879
  165SAPE  C31118631   1.776   6.063   8.000 -0.3630  0.2393  0.3330
  165SAPE  H11X18632   1.812   5.971   7.950 -3.3339  0.8943 -3.5157
  165SAPE  H11Y18633   1.666   6.069   7.984 -0.1654 -1.2280 -1.9595
  165SAPE  C31218634   1.814   6.054   8.148 -0.5701 -0.2225  0.3001
  165SAPE  H12X18635   1.771   6.146   8.192  0.5241  0.6511 -0.4127
  165SAPE  H12Y18636   1.924   6.061   8.158 -0.7371  2.3938  1.1035
  165SAPE  C31318637   1.760   5.934   8.215 -0.4031  0.3979  0.2100
  165SAPE  H13X18638   1.792   5.856   8.143  1.2116  1.5718 -0.4221
  165SAPE  H13Y18639   1.650   5.943   8.206 -0.4011  0.4721  0.2627
  165SAPE  C31418640   1.805   5.913   8.360 -0.5531  0.0523  0.8813
  165SAPE  H14X18641   1.749   5.987   8.422  0.1554 -0.3401  2.0140
  165SAPE  H14Y18642   1.911   5.932   8.385 -0.8911  1.7463  1.1760
  165SAPE  C31518643   1.766   5.780   8.415  0.2073  1.0369  0.4987
  165SAPE  H15X18644   1.785   5.697   8.344 -0.9155  0.6505  0.6373
  165SAPE  H15Y18645   1.657   5.773   8.436 -0.1431 -1.1839 -1.6623
  165SAPE  C31618646   1.839   5.758   8.552  0.6032  0.0216  0.1501
  165SAPE  H16X18647   1.946   5.755   8.522  0.1374  1.9056 -1.9281
  165SAPE  H16Y18648   1.802   5.662   8.594  1.3792 -0.7828 -0.9429
  165SAPE  C31718649   1.823   5.863   8.665 -0.3240 -0.1581 -0.5494
  165SAPE  H17X18650   1.715   5.863   8.691 -0.6270 -2.2793 -1.5889
  165SAPE  H17Y18651   1.850   5.966   8.634 -0.7679  1.0583  2.7873
  165SAPE  C31818652   1.902   5.834   8.784  0.3168 -0.1815 -1.0567
  165SAPE  H18X18653   1.860   5.745   8.835  0.4587  0.5465  0.3698
  165SAPE  H18Y18654   1.878   5.918   8.852 -2.9036 -2.2598  0.6093
  165SAPE  H18Z18655   2.011   5.819   8.764  0.6753  0.9577 -0.0859
  166SAPE     N18656   3.105   2.835   5.968 -0.9034 -0.5725  0.2779
  166SAPE   HN118657   3.171   2.814   6.047 -4.0856  0.0269  3.3516
  166SAPE   HN218658   3.104   2.749   5.909  2.4569 -0.1581 -0.5814
  166SAPE   HN318659   3.149   2.913   5.916 -1.6712 -3.1707 -4.8569
  166SAPE   C1218660   2.971   2.861   6.033  0.2409  0.0955 -0.2195
  166SAPE  H12A18661   2.924   2.765   6.061 -1.6496  0.4399 -1.9822
  166SAPE  H12B18662   2.907   2.903   5.952  0.4333 -0.1744 -0.5166
  166SAPE   C1118663   2.994   2.958   6.149  0.1564  0.5592  0.0440
  166SAPE  H11A18664   3.068   2.917   6.220 -1.5012  1.2067  2.2618
  166SAPE  H11B18665   2.903   2.977   6.211 -0.6594 -2.9379  0.1345
  166SAPE     P18666   2.971   3.195   6.056 -0.1124  0.1313  0.1780
  166SAPE   O1318667   3.061   3.286   5.976 -0.6760 -0.0775 -0.7990
  166SAPE   O1418668   2.849   3.152   5.987  0.2057  0.0152 -0.7582
  166SAPE   O1218669   3.062   3.076   6.102  0.1239  0.3084 -0.0907
  166SAPE   O1118670   2.940   3.277   6.182  0.5082  0.0023 -0.5019
  166SAPE    C118671   3.044   3.292   6.286 -0.4060  0.0884 -0.0901
  166SAPE    HA18672   3.148   3.270   6.254 -1.3564 -1.6173 -2.2428
  166SAPE    HB18673   3.043   3.400   6.310  0.5367 -0.3879  2.3691
  166SAPE    C218674   3.002   3.208   6.407  0.1107  0.3437 -0.0379
  166SAPE    HS18675   3.029   3.103   6.382 -1.0396 -0.0878  0.4361
  166SAPE   O2118676   2.857   3.205   6.427  0.3354 -0.4965  0.0212
  166SAPE   C2118677   2.803   3.102   6.492  0.5281  1.3039  0.4620
  166SAPE   O2218678   2.861   3.002   6.529 -0.1247  0.4144  0.0769
  166SAPE   C2218679   2.647   3.110   6.495 -0.6104  0.4398  0.3261
  166SAPE   H2R18680   2.611   3.213   6.512  0.6977  0.8445  0.7848
  166SAPE   H2S18681   2.612   3.077   6.395  0.6815  0.8431 -0.2708
  166SAPE    C318682   3.062   3.252   6.540 -1.0436  0.1311  0.6895
  166SAPE    HX18683   3.172   3.242   6.524 -1.2485  0.7789 -1.4902
  166SAPE    HY18684   3.042   3.184   6.625  2.0111 -1.9847 -0.0988
  166SAPE   O3118685   3.036   3.391   6.563  1.2764  0.1430 -0.3273
  166SAPE   C3118686   2.932   3.414   6.647  0.1541  0.2098  0.4101
  166SAPE   O3218687   2.853   3.329   6.688 -0.8050 -0.3422 -0.2609
  166SAPE   C3218688   2.928   3.568   6.668  0.1384  0.6997 -0.3077
  166SAPE   H2X18689   2.897   3.602   6.566 -3.6477  0.3879  0.5878
  166SAPE   H2Y18690   3.026   3.588   6.715  0.5288 -1.8916  0.1326
  166SAPE   C2318691   2.581   3.024   6.607  0.1664 -0.2798 -0.2708
  166SAPE   H3R18692   2.602   2.917   6.587  1.8043 -0.1625  0.6581
  166SAPE   H3S18693   2.470   3.026   6.601  0.1576 -1.9826 -3.0027
  166SAPE   C2418694   2.610   3.057   6.756  0.0730  0.2440 -0.5512
  166SAPE   H4R18695   2.514   3.064   6.812  0.1958 -1.0563 -0.1555
  166SAPE   H4S18696   2.634   3.165   6.768  0.2254  0.3793 -1.9474
  166SAPE   C2518697   2.718   2.974   6.814 -0.2994  0.5453 -0.4672
  166SAPE   H5R18698   2.814   3.001   6.768  0.2738  0.7375  0.8065
  166SAPE   C2618699   2.716   2.885   6.915  0.2053 -0.3143 -0.7821
  166SAPE   H6R18700   2.806   2.825   6.938 -1.5074 -3.2602 -1.2737
  166SAPE   C2718701   2.596   2.859   7.002 -0.8217  0.0440 -0.1603
  166SAPE   H7R18702   2.505   2.905   6.958  0.4313  1.7021 -1.1135
  166SAPE   H7S18703   2.616   2.910   7.099 -2.7263 -2.4969  1.6874
  166SAPE   C2818704   2.583   2.714   7.036 -0.7777 -0.2050 -0.2921
  166SAPE   H8R18705   2.675   2.662   7.007  0.3405  1.2342  0.5480
  166SAPE   C2918706   2.483   2.645   7.088  0.1449 -0.3469 -0.3049
  166SAPE   H9R18707   2.493   2.538   7.112  1.1570 -0.2097 -0.0469
  166SAPE  C21018708   2.347   2.710   7.118 -0.5846  0.0853  0.5526
  166SAPE  H10R18709   2.278   2.687   7.034 -1.3914  1.5288  0.7931
  166SAPE  H10S18710   2.342   2.821   7.113  0.4959  0.1001 -1.1891
  166SAPE  C21118711   2.289   2.658   7.249  0.5854 -0.2487  0.5136
  166SAPE  H11R18712   2.310   2.724   7.335  1.6967  1.0155 -0.6698
  166SAPE  C21218713   2.204   2.556   7.276  0.1065 -0.0903  0.6122
  166SAPE  H12R18714   2.158   2.542   7.375  0.6761 -3.7393  0.4887
  166SAPE  C21318715   2.137   2.457   7.177  0.1915 -0.3385  0.4711
  166SAPE  H13R18716   2.218   2.398   7.127 -1.8288 -1.4461 -1.6816
  166SAPE  H13S18717   2.103   2.511   7.086 -1.8971  0.1790  1.5014
  166SAPE  C21418718   2.040   2.358   7.226 -0.0576 -0.3882 -0.0065
  166SAPE  H14R18719   2.044   2.340   7.334 -3.8039 -0.6274  0.2474
  166SAPE  C21518720   1.945   2.303   7.153  0.2771 -0.3525  0.2664
  166SAPE  H15R18721   1.886   2.220   7.193 -0.3408 -0.1508 -0.2074
  166SAPE  C21618722   1.918   2.328   7.005 -0.5563 -0.3724 -0.4947
  166SAPE  H16R18723   2.016   2.353   6.959  0.3457 -0.3111  1.3514
  166SAPE  H16S18724   1.848   2.412   6.991 -0.5274 -0.7048 -3.1475
  166SAPE  C21718725   1.864   2.196   6.952 -0.1707  0.0952 -0.1046
  166SAPE  H17R18726   1.764   2.164   6.988 -0.3982  0.2851 -0.5609
  166SAPE  H17S18727   1.936   2.115   6.976  1.0653  1.3408  0.5440
  166SAPE  C21818728   1.868   2.195   6.798  0.0251 -0.2406  0.0551
  166SAPE  H18R18729   1.967   2.174   6.752 -0.7019  1.3740 -2.4414
  166SAPE  H18S18730   1.823   2.290   6.764 -1.5312 -0.3142  1.8043
  166SAPE  C21918731   1.796   2.083   6.726 -0.0570  0.1192  0.0678
  166SAPE  H19R18732   1.690   2.087   6.760 -0.2054 -2.3364  0.0863
  166SAPE  H19S18733   1.819   1.985   6.773 -0.3712  0.7612  1.6062
  166SAPE  C22018734   1.797   2.078   6.574  0.2677  0.3066  0.0345
  166SAPE  H20R18735   1.777   2.181   6.535 -2.0674  0.5147  1.5948
  166SAPE  H20S18736   1.718   2.008   6.539  0.2702 -1.6676  3.6110
  166SAPE  H20T18737   1.889   2.039   6.525  0.0177 -1.1138  0.6784
  166SAPE   C3318738   2.820   3.619   6.773 -0.4554  0.0317 -0.0524
  166SAPE   H3X18739   2.722   3.577   6.742 -0.0462  0.3476 -1.8871
  166SAPE   H3Y18740   2.818   3.729   6.785  2.0459  0.1728 -0.5551
  166SAPE   C3418741   2.834   3.572   6.917 -0.6377 -0.1407  0.5105
  166SAPE   H4X18742   2.866   3.465   6.910 -0.9104 -0.1665 -0.5824
  166SAPE   H4Y18743   2.742   3.590   6.976 -1.2888 -1.7110  0.0429
  166SAPE   C3518744   2.948   3.642   6.996 -0.0673  0.5096 -0.2745
  166SAPE   H5X18745   2.912   3.745   7.016  0.6172  0.7752 -0.3720
  166SAPE   H5Y18746   3.047   3.652   6.947  0.4623 -0.5414  0.5374
  166SAPE   C3618747   2.964   3.576   7.135  0.2364 -0.7117  0.0049
  166SAPE   H6X18748   3.016   3.478   7.133  1.0871 -0.2592 -0.9527
  166SAPE   H6Y18749   2.863   3.560   7.178 -1.0469  0.5226 -2.3576
  166SAPE   C3718750   3.029   3.668   7.243 -0.2388  0.8296 -0.2852
  166SAPE   H7X18751   2.988   3.771   7.244 -0.2606  0.8152  0.4710
  166SAPE   H7Y18752   3.137   3.672   7.216 -0.0323  1.2716  0.5898
  166SAPE   C3818753   3.005   3.610   7.392  0.6634  0.3908  0.2787
  166SAPE   H8X18754   3.020   3.500   7.389 -0.2534  0.2658 -0.1095
  166SAPE   H8Y18755   2.896   3.617   7.414  0.4192 -0.7081 -0.5150
  166SAPE   C3918756   3.093   3.669   7.504  0.3851 -0.0869 -0.4717
  166SAPE   H9X18757   3.083   3.779   7.503  3.5769  0.3210 -1.8823
  166SAPE   H9Y18758   3.201   3.649   7.484  0.6166 -0.1656  0.8018
  166SAPE  C31018759   3.049   3.609   7.638 -0.7708 -0.2313  0.4885
  166SAPE  H10X18760   3.068   3.499   7.629 -0.8271 -0.2538  0.6413
  166SAPE  H10Y18761   2.940   3.605   7.658 -1.0732 -2.2539 -1.1357
  166SAPE  C31118762   3.108   3.679   7.756  0.7061  0.9398  0.0015
  166SAPE  H11X18763   3.049   3.773   7.770  0.0999  0.4774  0.6361
  166SAPE  H11Y18764   3.212   3.714   7.739  1.0775  0.8464  1.8631
  166SAPE  C31218765   3.103   3.600   7.887  0.5009 -0.1592  0.4490
  166SAPE  H12X18766   3.174   3.516   7.882  2.5059  1.3581  1.8159
  166SAPE  H12Y18767   3.007   3.545   7.897  0.6778 -0.7341 -0.8533
  166SAPE  C31318768   3.136   3.685   8.010 -0.1176  0.1501 -0.4760
  166SAPE  H13X18769   3.044   3.748   8.011 -0.9357 -0.9425 -2.0994
  166SAPE  H13Y18770   3.231   3.740   7.997 -0.3812  0.8433  0.4452
  166SAPE  C31418771   3.149   3.603   8.144  0.2538 -0.1030  0.3306
  166SAPE  H14X18772   3.165   3.677   8.226  1.3880 -0.3671  0.3621
  166SAPE  H14Y18773   3.236   3.534   8.136  0.8427  0.6945 -0.3141
  166SAPE  C31518774   3.035   3.506   8.179  0.2960 -0.4212  0.2462
  166SAPE  H15X18775   3.019   3.424   8.105 -2.0721 -0.2455  0.4698
  166SAPE  H15Y18776   2.941   3.564   8.185  0.4033  0.0820 -2.2484
  166SAPE  C31618777   3.067   3.428   8.307  0.0397 -0.5326  0.0800
  166SAPE  H16X18778   3.083   3.508   8.383  2.9770  1.4937 -2.3832
  166SAPE  H16Y18779   3.169   3.384   8.308  0.6171  0.7634  1.5766
  166SAPE  C31718780   2.970   3.317   8.342  0.3614 -0.2549  0.4286
  166SAPE  H17X18781   2.875   3.367   8.314  1.6536  2.7014  0.8455
  166SAPE  H17Y18782   2.956   3.291   8.449  1.9824 -2.2540  0.2041
  166SAPE  C31818783   2.979   3.183   8.262 -0.7345  0.0869  0.1043
  166SAPE  H18X18784   3.014   3.203   8.158 -3.2490  1.1924 -0.5921
  166SAPE  H18Y18785   2.878   3.138   8.272 -0.3075 -0.6237  1.4729
  166SAPE  H18Z18786   3.050   3.110   8.308  0.3744  0.7840 -0.4603
  167SAPE     N18787   2.580   0.923   6.150 -0.1500 -1.0351 -0.0433
  167SAPE   HN118788   2.669   0.975   6.139  0.2867 -0.8779  3.1820
  167SAPE   HN218789   2.596   0.824   6.178  3.4955 -0.1787  1.4445
  167SAPE   HN318790   2.531   0.935   6.059  1.3813  1.8241 -0.6301
  167SAPE   C1218791   2.491   1.004   6.250 -0.2451  0.5964  0.7251
  167SAPE  H12A18792   2.486   1.108   6.211  2.4064  0.2132 -0.9329
  167SAPE  H12B18793   2.542   1.005   6.348 -0.3256  0.9942  0.7623
  167SAPE   C1118794   2.354   0.936   6.271 -0.0416 -0.5992  0.3097
  167SAPE  H11A18795   2.288   0.999   6.335  0.5767  0.5823 -0.1748
  167SAPE  H11B18796   2.379   0.854   6.341 -1.3648  0.0016  1.5493
  167SAPE     P18797   2.180   0.798   6.148 -0.4380  0.5050  0.2115
  167SAPE   O1318798   2.099   0.815   6.022 -0.4737 -0.7576 -1.0702
  167SAPE   O1418799   2.238   0.664   6.164 -0.1867  0.4277  0.1675
  167SAPE   O1218800   2.287   0.909   6.149  0.1668 -0.4948 -0.1740
  167SAPE   O1118801   2.094   0.829   6.270  0.0041 -0.0848 -0.2262
  167SAPE    C118802   1.991   0.927   6.272  0.3080 -0.0557  0.0823
  167SAPE    HA18803   2.008   1.008   6.197  2.5696  0.8521  1.4732
  167SAPE    HB18804   1.889   0.883   6.269 -0.0333  0.6522  0.8186
  167SAPE    C218805   1.985   1.006   6.409  0.5327 -0.1987  0.5364
  167SAPE    HS18806   2.090   0.998   6.444  0.2858 -0.7509  1.1855
  167SAPE   O2118807   1.894   0.932   6.493  0.0438 -0.5018  0.1972
  167SAPE   C2118808   1.931   0.818   6.549 -0.0367  0.3273  0.3702
  167SAPE   O2218809   2.040   0.774   6.540 -0.4128  0.6372  0.2389
  167SAPE   C2218810   1.817   0.758   6.627  0.3853 -0.3749 -0.1895
  167SAPE   H2R18811   1.774   0.834   6.695  0.0129  0.3232 -1.1874
  167SAPE   H2S18812   1.743   0.722   6.552 -2.0607  1.5330  1.1467
  167SAPE    C318813   1.940   1.155   6.400  0.1770  0.0067  0.3670
  167SAPE    HX18814   1.832   1.156   6.375 -0.0770 -0.6357  1.4114
  167SAPE    HY18815   1.996   1.209   6.321  0.5993  1.0681  1.3593
  167SAPE   O3118816   1.956   1.228   6.516 -0.0932 -0.7083 -0.1219
  167SAPE   C3118817   2.074   1.256   6.550 -1.0123 -0.0954 -0.5973
  167SAPE   O3218818   2.178   1.224   6.492  0.3140 -0.0993 -0.5966
  167SAPE   C3218819   2.070   1.309   6.697  0.2464 -1.1579  0.4214
  167SAPE   H2X18820   1.962   1.304   6.723  0.2572 -3.7373  0.2209
  167SAPE   H2Y18821   2.097   1.416   6.695 -0.0841 -1.0593  0.9042
  167SAPE   C2318822   1.854   0.631   6.710  0.1238 -0.2976 -0.0650
  167SAPE   H3R18823   1.938   0.672   6.771  1.9204 -0.8930 -1.9982
  167SAPE   H3S18824   1.906   0.549   6.655  1.8420  0.3910  0.4689
  167SAPE   C2418825   1.741   0.581   6.810 -0.1133 -0.0517 -0.3180
  167SAPE   H4R18826   1.637   0.586   6.770 -0.2143 -1.9180 -0.3344
  167SAPE   H4S18827   1.740   0.663   6.886 -0.4658  2.6765 -3.0660
  167SAPE   C2518828   1.783   0.447   6.854 -0.0531  0.4057  0.4090
  167SAPE   H5R18829   1.769   0.367   6.779 -0.3388  0.7481  0.0958
  167SAPE   C2618830   1.824   0.403   6.974  1.1081 -0.1831 -0.3291
  167SAPE   H6R18831   1.825   0.294   6.989  0.6246 -0.0434  0.8768
  167SAPE   C2718832   1.839   0.485   7.101  0.3458  0.4737  0.0230
  167SAPE   H7R18833   1.741   0.487   7.154  0.7548 -1.0731  0.8747
  167SAPE   H7S18834   1.865   0.588   7.067  3.1771  0.1263  0.9243
  167SAPE   C2818835   1.939   0.429   7.194 -0.3676  0.6729  0.0215
  167SAPE   H8R18836   2.016   0.364   7.150 -0.4440  0.1941  0.5902
  167SAPE   C2918837   1.942   0.456   7.325 -0.0224 -0.3992 -0.8499
  167SAPE   H9R18838   2.022   0.401   7.377  0.5636  0.2073 -1.1018
  167SAPE  C21018839   1.853   0.540   7.409 -0.1198  0.2644 -0.4275
  167SAPE  H10R18840   1.797   0.609   7.343  2.4946  0.6081 -2.4452
  167SAPE  H10S18841   1.916   0.607   7.472 -0.5063 -1.7148  2.2911
  167SAPE  C21118842   1.767   0.461   7.499  0.8937 -0.1448 -0.0576
  167SAPE  H11R18843   1.678   0.418   7.450  2.0165 -1.6463 -0.8469
  167SAPE  C21218844   1.785   0.421   7.628 -0.3260 -0.3790  0.9977
  167SAPE  H12R18845   1.696   0.379   7.676  0.2984 -1.8460  0.9186
  167SAPE  C21318846   1.898   0.450   7.724 -0.0205  0.3122  0.1138
  167SAPE  H13R18847   1.995   0.463   7.672 -0.5466  0.7036 -0.7831
  167SAPE  H13S18848   1.913   0.352   7.775 -3.0891 -1.4705 -2.0817
  167SAPE  C21418849   1.888   0.569   7.821 -0.1868  0.4346  0.0004
  167SAPE  H14R18850   1.896   0.664   7.766  0.1396  0.7774  0.6278
  167SAPE  C21518851   1.865   0.569   7.952  0.3538  0.7445  0.4113
  167SAPE  H15R18852   1.852   0.661   8.011 -2.3662  0.1561  0.8918
  167SAPE  C21618853   1.851   0.450   8.044 -0.0254 -0.3954  1.1696
  167SAPE  H16R18854   1.918   0.377   7.992  1.3932  3.2956 -2.8163
  167SAPE  H16S18855   1.748   0.411   8.033 -0.3520  0.8418 -0.6234
  167SAPE  C21718856   1.891   0.468   8.196  0.5371  0.9420  0.1909
  167SAPE  H17R18857   1.834   0.556   8.232 -0.8842 -0.8408  2.6300
  167SAPE  H17S18858   1.998   0.499   8.204  0.6056  0.2046  3.8730
  167SAPE  C21818859   1.844   0.349   8.283 -0.1130  0.1557 -0.3092
  167SAPE  H18R18860   1.907   0.260   8.261  1.8979  1.6332 -0.8175
  167SAPE  H18S18861   1.738   0.335   8.255 -0.8269  0.6393  1.9265
  167SAPE  C21918862   1.829   0.389   8.429 -0.4088  0.2467 -0.2242
  167SAPE  H19R18863   1.735   0.447   8.438  0.1598  1.2661 -0.6607
  167SAPE  H19S18864   1.914   0.452   8.462 -1.5611  1.6666  0.1294
  167SAPE  C22018865   1.824   0.274   8.531 -0.2470  0.4038  0.2340
  167SAPE  H20R18866   1.721   0.231   8.528  0.1900 -0.6270 -1.8635
  167SAPE  H20S18867   1.843   0.312   8.634 -0.8034 -2.0446  1.3347
  167SAPE  H20T18868   1.904   0.201   8.507 -0.6829 -0.1854  0.5415
  167SAPE   C3318869   2.153   1.220   6.786  0.2729 -0.2146  0.9458
  167SAPE   H3X18870   2.168   1.263   6.888 -1.3267 -1.1470  1.6113
  167SAPE   H3Y18871   2.254   1.215   6.740 -0.8521 -1.4343 -1.5837
  167SAPE   C3418872   2.093   1.083   6.816 -0.2025 -0.3039  0.4090
  167SAPE   H4X18873   2.096   1.021   6.724 -0.3383  0.6498 -0.2568
  167SAPE   H4Y18874   1.987   1.101   6.843 -0.1861  1.3915 -0.4574
  167SAPE   C3518875   2.166   1.016   6.932  0.5040  0.8336 -0.2290
  167SAPE   H5X18876   2.148   1.076   7.024 -3.2210 -1.3336  0.6659
  167SAPE   H5Y18877   2.272   0.995   6.908  0.6130 -0.9616  1.5521
  167SAPE   C3618878   2.114   0.875   6.970  0.6551 -0.8338 -0.0642
  167SAPE   H6X18879   2.099   0.813   6.880 -2.4932  0.1602 -0.3562
  167SAPE   H6Y18880   2.011   0.883   7.010  0.8717 -2.0405  0.7826
  167SAPE   C3718881   2.204   0.802   7.074 -0.8379 -1.0581 -0.6700
  167SAPE   H7X18882   2.314   0.809   7.062 -0.8505 -1.2700 -0.9313
  167SAPE   H7Y18883   2.178   0.694   7.083  0.6201 -1.3715  0.0222
  167SAPE   C3818884   2.193   0.857   7.222  0.0707 -0.3263  0.1219
  167SAPE   H8X18885   2.085   0.878   7.234 -0.2542 -1.6073 -0.3063
  167SAPE   H8Y18886   2.241   0.957   7.225 -2.7708  1.0926  1.1856
  167SAPE   C3918887   2.226   0.758   7.329  0.9227 -0.4590 -0.5904
  167SAPE   H9X18888   2.332   0.736   7.305  1.6060  2.6376 -0.7527
  167SAPE   H9Y18889   2.165   0.666   7.322  0.8342 -0.6426  1.7231
  167SAPE  C31018890   2.237   0.814   7.478 -0.3127  0.4021 -0.1934
  167SAPE  H10X18891   2.325   0.880   7.491  1.8548 -2.1911 -0.8559
  167SAPE  H10Y18892   2.242   0.736   7.557 -0.5412  0.7730  0.1930
  167SAPE  C31118893   2.117   0.898   7.522  0.6565  0.1413 -0.2638
  167SAPE  H11X18894   2.038   0.823   7.502  2.0293 -1.2862 -0.5476
  167SAPE  H11Y18895   2.099   0.983   7.453  1.1540 -0.2667 -0.9147
  167SAPE  C31218896   2.135   0.964   7.660  0.3802  0.4234 -0.4881
  167SAPE  H12X18897   2.047   1.031   7.674  0.1898 -0.4204  3.4919
  167SAPE  H12Y18898   2.226   1.027   7.652  1.4950 -1.1872 -1.2224
  167SAPE  C31318899   2.145   0.867   7.781 -0.0186 -0.2112  0.0278
  167SAPE  H13X18900   2.251   0.836   7.785  0.6871  2.0302 -0.0437
  167SAPE  H13Y18901   2.084   0.781   7.746  1.0410 -0.6669 -0.7513
  167SAPE  C31418902   2.082   0.914   7.917 -0.5341  0.1256 -0.1965
  167SAPE  H14X18903   2.078   0.817   7.970  0.8497 -0.8475 -1.7539
  167SAPE  H14Y18904   1.976   0.943   7.899 -0.1561  0.5825 -1.9024
  167SAPE  C31518905   2.172   1.012   7.999 -0.2483  0.4433 -0.4116
  167SAPE  H15X18906   2.269   0.963   8.021 -0.5350 -0.7348 -1.6092
  167SAPE  H15Y18907   2.121   1.025   8.096 -1.1453 -1.1947 -0.6254
  167SAPE  C31618908   2.197   1.152   7.932 -0.4606  0.1170 -0.3001
  167SAPE  H16X18909   2.258   1.135   7.840  1.4022 -3.0793  1.3856
  167SAPE  H16Y18910   2.263   1.211   7.998 -0.0543  0.1149 -0.6969
  167SAPE  C31718911   2.066   1.230   7.909 -0.2536  0.1247  0.5643
  167SAPE  H17X18912   2.020   1.248   8.009 -0.5921  1.0192  0.2554
  167SAPE  H17Y18913   1.993   1.172   7.848 -0.6484  2.6983 -1.5604
  167SAPE  C31818914   2.091   1.365   7.840 -0.7949  0.1344  0.5858
  167SAPE  H18X18915   2.147   1.424   7.915  1.8091 -1.1403 -0.1991
  167SAPE  H18Y18916   1.990   1.403   7.815 -0.7906 -1.7199 -2.9498
  167SAPE  H18Z18917   2.153   1.348   7.749 -2.7363  0.4647 -0.8619
  168SAPE     N18918   5.068   1.286   6.455  0.0386 -0.3197 -0.5705
  168SAPE   HN118919   5.045   1.206   6.518  1.0019  1.0363  1.6419
  168SAPE   HN218920   5.146   1.336   6.503 -0.8111  0.5568 -0.0599
  168SAPE   HN318921   4.986   1.349   6.463  0.6572  0.4006  0.2485
  168SAPE   C1218922   5.083   1.261   6.309 -0.1043 -0.0343  0.0262
  168SAPE  H12A18923   5.100   1.362   6.265 -1.7742  1.1750  1.9407
  168SAPE  H12B18924   4.981   1.223   6.285  0.4157 -1.2791 -0.2911
  168SAPE   C1118925   5.196   1.165   6.287  0.0157  0.4681 -0.8144
  168SAPE  H11A18926   5.217   1.130   6.183  3.0689  0.2259 -0.2155
  168SAPE  H11B18927   5.170   1.082   6.356 -1.3583  1.5597  0.0169
  168SAPE     P18928   5.429   1.298   6.264 -0.5003 -0.1077  0.1678
  168SAPE   O1318929   5.513   1.203   6.190  0.0057  0.6009  0.1007
  168SAPE   O1418930   5.372   1.420   6.198 -0.1578 -0.6114  0.7080
  168SAPE   O1218931   5.321   1.223   6.342  0.2346 -0.2967 -0.0844
  168SAPE   O1118932   5.520   1.347   6.383  0.2810  0.6524  0.7035
  168SAPE    C118933   5.600   1.263   6.463 -0.1525 -0.0539  0.1679
  168SAPE    HA18934   5.620   1.165   6.416 -0.7852 -0.5457  0.9012
  168SAPE    HB18935   5.700   1.311   6.466  0.5916 -1.5152 -0.3027
  168SAPE    C218936   5.533   1.247   6.602 -0.1870  0.4018  0.2933
  168SAPE    HS18937   5.441   1.188   6.582  1.0300 -0.7578 -2.4056
  168SAPE   O2118938   5.517   1.378   6.672 -0.2358 -0.3659  0.3747
  168SAPE   C2118939   5.392   1.413   6.694  0.7720  0.1430  0.0047
  168SAPE   O2218940   5.300   1.344   6.664  0.7845  0.2488 -0.2861
  168SAPE   C2218941   5.390   1.537   6.789  0.5441  0.5092 -0.0442
  168SAPE   H2R18942   5.446   1.509   6.881 -0.4477  0.4076  0.5448
  168SAPE   H2S18943   5.421   1.631   6.738  0.4672  0.8090  0.4501
  168SAPE    C318944   5.626   1.149   6.681  0.1041 -0.4076 -0.0254
  168SAPE    HX18945   5.717   1.213   6.685  0.1053 -0.4523  1.4935
  168SAPE    HY18946   5.650   1.052   6.634 -0.1780  0.1448 -1.3675
  168SAPE   O3118947   5.577   1.120   6.815 -0.0164 -0.0672  0.3726
  168SAPE   C3118948   5.499   1.011   6.825 -0.7539  0.4700 -0.8065
  168SAPE   O3218949   5.441   0.962   6.733 -0.0944  0.6250  0.2497
  168SAPE   C3218950   5.464   0.993   6.964  0.4659 -0.2460 -0.3634
  168SAPE   H2X18951   5.384   0.915   6.970  0.1019  0.0474 -1.2038
  168SAPE   H2Y18952   5.414   1.078   7.015 -1.0590 -0.3903 -1.5320
  168SAPE   C2318953   5.252   1.567   6.844 -0.3057  0.0659  0.6249
  168SAPE   H3R18954   5.217   1.494   6.920  1.4605 -0.4902  0.9319
  168SAPE   H3S18955   5.177   1.572   6.762 -0.1939  0.8871  0.5639
  168SAPE   C2418956   5.237   1.699   6.918 -0.6103 -0.6633  0.1902
  168SAPE   H4R18957   5.143   1.701   6.977 -0.4002 -1.4299  0.5555
  168SAPE   H4S18958   5.230   1.781   6.843  1.2559 -0.1700  0.5231
  168SAPE   C2518959   5.368   1.736   6.990 -0.8593  0.3133 -0.6972
  168SAPE   H5R18960   5.442   1.793   6.930  0.9510 -0.1875  0.9473
  168SAPE   C2618961   5.396   1.725   7.122 -0.1950 -0.6192 -0.2857
  168SAPE   H6R18962   5.496   1.759   7.155  0.1811  1.5077 -3.2230
  168SAPE   C2718963   5.291   1.681   7.220  0.2706 -0.3507 -0.2787
  168SAPE   H7R18964   5.339   1.614   7.293  2.9262  0.8688 -0.7702
  168SAPE   H7S18965   5.224   1.601   7.184 -1.9061  0.8766  0.8462
  168SAPE   C2818966   5.202   1.782   7.284  0.7635 -0.8919 -0.6882
  168SAPE   H8R18967   5.129   1.837   7.223 -0.5229 -0.7642  0.9167
  168SAPE   C2918968   5.199   1.806   7.420  0.9399  0.3883  0.2571
  168SAPE   H9R18969   5.127   1.881   7.456 -0.5532 -1.7788  2.0642
  168SAPE  C21018970   5.282   1.746   7.533  0.2429  0.4617  0.2730
  168SAPE  H10R18971   5.316   1.815   7.613  3.4782  0.0050 -0.5673
  168SAPE  H10S18972   5.376   1.710   7.485 -0.0400  0.0632  0.0092
  168SAPE  C21118973   5.207   1.629   7.591  0.7519 -0.5234  0.2423
  168SAPE  H11R18974   5.224   1.540   7.529 -0.5342  1.2263 -2.8516
  168SAPE  C21218975   5.121   1.622   7.692  0.3341  0.0323  0.0789
  168SAPE  H12R18976   5.071   1.527   7.716 -0.8635  0.8071  0.7432
  168SAPE  C21318977   5.086   1.732   7.788  0.2514 -0.1832  0.0146
  168SAPE  H13R18978   4.986   1.710   7.831  0.4195 -0.2313  0.3882
  168SAPE  H13S18979   5.067   1.826   7.733 -1.2117 -0.6546 -0.3256
  168SAPE  C21418980   5.192   1.762   7.888 -0.2807 -0.4667  0.5216
  168SAPE  H14R18981   5.294   1.781   7.853 -0.3590 -1.2800 -0.1864
  168SAPE  C21518982   5.177   1.757   8.020  0.3526  0.4844  0.0374
  168SAPE  H15R18983   5.257   1.786   8.090  0.0583  0.1724  0.5057
  168SAPE  C21618984   5.045   1.733   8.093  0.1146  0.1428 -0.4182
  168SAPE  H16R18985   4.961   1.769   8.029 -0.9778 -2.4887 -0.5833
  168SAPE  H16S18986   5.034   1.792   8.187  2.0433  0.7773 -0.5463
  168SAPE  C21718987   5.028   1.580   8.120  0.3951  1.1250  0.1279
  168SAPE  H17R18988   5.056   1.522   8.029 -2.5701  0.1680 -0.3157
  168SAPE  H17S18989   4.917   1.575   8.121  0.3204  1.9932  2.5741
  168SAPE  C21818990   5.086   1.515   8.250 -0.6371  0.6363 -0.6291
  168SAPE  H18R18991   5.086   1.583   8.337 -1.6348 -0.9617  0.6881
  168SAPE  H18S18992   5.195   1.508   8.230 -0.5078 -0.8350  0.4002
  168SAPE  C21918993   5.040   1.372   8.278  0.4520  0.5834 -0.6686
  168SAPE  H19R18994   5.112   1.337   8.356 -0.8197 -0.4497  0.0763
  168SAPE  H19S18995   5.047   1.311   8.186  0.5014 -0.8060  0.2381
  168SAPE  C22018996   4.897   1.361   8.333 -0.1148  0.0337 -0.3230
  168SAPE  H20R18997   4.878   1.417   8.427  1.0355  2.5403 -1.4879
  168SAPE  H20S18998   4.863   1.256   8.347  0.2051  0.1611  1.6196
  168SAPE  H20T18999   4.840   1.415   8.254  1.8837 -1.0977 -2.6494
  168SAPE   C3319000   5.587   0.958   7.051 -0.2487  0.0503 -0.3210
  168SAPE   H3X19001   5.686   0.996   7.020 -0.4583  1.4263  0.6063
  168SAPE   H3Y19002   5.598   0.848   7.038  2.0309  0.3625 -1.3669
  168SAPE   C3419003   5.566   0.966   7.202  0.1731  0.1344  1.0371
  168SAPE   H4X19004   5.461   0.940   7.230 -0.2443  0.0875 -0.4804
  168SAPE   H4Y19005   5.574   1.071   7.236  0.0891  0.0466  1.3298
  168SAPE   C3519006   5.659   0.877   7.289 -0.0423 -1.2527  0.0828
  168SAPE   H5X19007   5.761   0.919   7.275 -0.7561 -0.0563 -2.0649
  168SAPE   H5Y19008   5.669   0.772   7.254 -1.7323 -1.2800 -0.4120
  168SAPE   C3619009   5.627   0.875   7.434 -0.1978 -0.0409  0.3414
  168SAPE   H6X19010   5.527   0.831   7.455 -0.6700  0.1536 -1.3873
  168SAPE   H6Y19011   5.634   0.977   7.477  1.7569 -0.5828  1.4456
  168SAPE   C3719012   5.720   0.788   7.511  0.1459 -0.8754 -0.9278
  168SAPE   H7X19013   5.822   0.790   7.467  0.8090 -0.5782  0.5711
  168SAPE   H7Y19014   5.680   0.684   7.512 -0.1921 -0.7726  1.0340
  168SAPE   C3819015   5.720   0.822   7.665  0.2246  0.9757  0.5652
  168SAPE   H8X19016   5.767   0.920   7.686 -2.2317  1.8674  2.3962
  168SAPE   H8Y19017   5.770   0.733   7.709 -0.1351  1.5487  2.1983
  168SAPE   C3919018   5.574   0.830   7.725 -0.1537 -0.5076 -0.9131
  168SAPE   H9X19019   5.526   0.730   7.718 -2.8429  0.7207 -1.0498
  168SAPE   H9Y19020   5.506   0.900   7.673 -4.1357 -2.2437  1.5392
  168SAPE  C31019021   5.576   0.877   7.877 -0.1579  0.0335  0.1609
  168SAPE  H10X19022   5.472   0.878   7.915 -1.0125  2.6324 -1.8734
  168SAPE  H10Y19023   5.603   0.984   7.895  1.7742 -0.6244  1.5902
  168SAPE  C31119024   5.659   0.791   7.972  0.7072  0.9003 -0.3897
  168SAPE  H11X19025   5.768   0.787   7.949  0.8881  0.4172  0.5258
  168SAPE  H11Y19026   5.623   0.686   7.968  1.6487  0.6087 -2.3700
  168SAPE  C31219027   5.648   0.843   8.115  0.4749  0.0427  0.4838
  168SAPE  H12X19028   5.695   0.770   8.184 -0.2188 -1.0789 -0.2030
  168SAPE  H12Y19029   5.540   0.845   8.143 -0.1572 -2.3467 -1.4762
  168SAPE  C31319030   5.722   0.978   8.138  0.1924  0.3297  0.1945
  168SAPE  H13X19031   5.653   1.065   8.133  1.4625  1.5468  2.3687
  168SAPE  H13Y19032   5.783   0.987   8.046 -2.2647  3.6523 -1.3124
  168SAPE  C31419033   5.826   0.985   8.250  0.4397 -0.0054 -0.2942
  168SAPE  H14X19034   5.889   0.893   8.255  1.1704  0.4968 -0.0390
  168SAPE  H14Y19035   5.776   1.006   8.347  1.9409  0.5180  0.4020
  168SAPE  C31519036   5.919   1.097   8.229 -0.0125 -0.0546 -0.2908
  168SAPE  H15X19037   5.858   1.178   8.184  0.8999 -0.2134 -1.8938
  168SAPE  H15Y19038   6.002   1.080   8.158  0.5826  0.2586  0.3253
  168SAPE  C31619039   5.979   1.152   8.358  0.1982  0.4108 -0.7834
  168SAPE  H16X19040   6.038   1.074   8.410 -0.1050  0.0675 -0.9488
  168SAPE  H16Y19041   5.891   1.175   8.422  0.2934 -1.4862  0.1039
  168SAPE  C31719042   6.061   1.281   8.335  0.3798 -0.0829  0.2414
  168SAPE  H17X19043   5.982   1.359   8.328 -0.1475 -0.7108 -1.0516
  168SAPE  H17Y19044   6.135   1.294   8.253 -0.6293  1.0871 -0.5135
  168SAPE  C31819045   6.118   1.315   8.473 -0.8383  0.1917  0.6026
  168SAPE  H18X19046   6.039   1.330   8.550 -0.5992  2.2970  0.4979
  168SAPE  H18Y19047   6.192   1.397   8.462 -0.7173  0.2506  1.7203
  168SAPE  H18Z19048   6.174   1.225   8.506 -0.5224  0.2658  0.2618
  169SAPE     N19049   2.446   0.499   6.194  0.1097 -0.2059 -0.2394
  169SAPE   HN119050   2.490   0.562   6.265 -0.2640  0.3907 -0.5280
  169SAPE   HN219051   2.522   0.466   6.130  0.8208 -1.9689  1.4201
  169SAPE   HN319052   2.373   0.559   6.150  0.5658 -0.0955 -0.8636
  169SAPE   C1219053   2.382   0.386   6.270  0.2949 -0.4245  0.5718
  169SAPE  H12A19054   2.317   0.332   6.197  0.4438 -0.5934  0.5645
  169SAPE  H12B19055   2.329   0.440   6.351 -0.2456  0.8143 -0.5635
  169SAPE   C1119056   2.497   0.306   6.331 -0.7118  0.2788  0.3411
  169SAPE  H11A19057   2.446   0.242   6.406 -0.2728 -1.9369 -1.1549
  169SAPE  H11B19058   2.582   0.357   6.380  0.9556 -2.4818  0.5701
  169SAPE     P19059   2.540   0.074   6.212  0.3116 -0.0259 -0.0562
  169SAPE   O1319060   2.405   0.042   6.148 -0.7621 -0.5748 -0.0244
  169SAPE   O1419061   2.661   0.032   6.134 -0.3763 -0.2341 -0.4631
  169SAPE   O1219062   2.554   0.229   6.230 -0.1373 -0.1180  0.0355
  169SAPE   O1119063   2.542   0.013   6.362 -0.0567 -0.3613 -0.2114
  169SAPE    C119064   2.557  -0.125   6.386  1.0769 -0.6897  0.5459
  169SAPE    HA19065   2.524  -0.176   6.293  3.5114 -0.6792 -0.3890
  169SAPE    HB19066   2.664  -0.150   6.372  1.2669  1.2573 -2.1992
  169SAPE    C219067   2.495  -0.156   6.519 -0.1613  0.0330  0.1901
  169SAPE    HS19068   2.387  -0.177   6.501  0.1033 -0.4658 -0.9182
  169SAPE   O2119069   2.523  -0.048   6.611  0.7590  0.5504  0.2883
  169SAPE   C2119070   2.426   0.033   6.627  0.3822 -0.1577 -1.2389
  169SAPE   O2219071   2.319   0.032   6.569 -0.0398  0.3445 -0.0489
  169SAPE   C2219072   2.450   0.128   6.752  0.0900  0.0186  0.0420
  169SAPE   H2R19073   2.409   0.066   6.835  0.3560  1.2101  1.1006
  169SAPE   H2S19074   2.557   0.156   6.765 -0.2725  2.5412 -1.6272
  169SAPE    C319075   2.550  -0.289   6.583  0.5423 -0.9405 -0.3091
  169SAPE    HX19076   2.657  -0.261   6.597  0.4258 -1.2664  1.3445
  169SAPE    HY19077   2.532  -0.372   6.511 -4.7023 -0.3151 -0.0542
  169SAPE   O3119078   2.476  -0.317   6.707  0.4304 -0.0915  0.3092
  169SAPE   C3119079   2.533  -0.421   6.776  0.1002 -0.1024 -0.2776
  169SAPE   O3219080   2.628  -0.485   6.741 -0.4698 -0.4246  0.3254
  169SAPE   C3219081   2.438  -0.446   6.904 -0.1287 -0.4917 -0.6983
  169SAPE   H2X19082   2.429  -0.553   6.928 -0.3949 -0.0989  1.0553
  169SAPE   H2Y19083   2.337  -0.413   6.871 -0.0299 -1.8817 -2.5242
  169SAPE   C2319084   2.378   0.273   6.757 -0.2570  0.5021 -0.4252
  169SAPE   H3R19085   2.288   0.269   6.691  0.2793  3.2082 -1.4742
  169SAPE   H3S19086   2.446   0.343   6.704 -0.1387  0.3163 -0.5230
  169SAPE   C2419087   2.343   0.312   6.905 -0.0504 -0.9054  0.5954
  169SAPE   H4R19088   2.278   0.233   6.948  0.5624 -0.9338  1.5034
  169SAPE   H4S19089   2.293   0.412   6.898  0.1276 -0.8914 -0.5449
  169SAPE   C2519090   2.471   0.321   6.990  1.0198  0.4912 -0.1847
  169SAPE   H5R19091   2.513   0.221   7.010  1.2592  0.5814 -0.2347
  169SAPE   C2619092   2.519   0.434   7.049 -0.9825 -0.2545  0.0953
  169SAPE   H6R19093   2.603   0.417   7.118  0.3345 -2.5099 -1.9047
  169SAPE   C2719094   2.475   0.575   7.042 -0.4615 -0.3422 -0.1787
  169SAPE   H7R19095   2.419   0.603   7.134 -1.9410 -0.6796 -0.9347
  169SAPE   H7S19096   2.404   0.587   6.957  0.5060 -0.9659 -1.0900
  169SAPE   C2819097   2.597   0.662   7.010 -0.0531  0.2168  0.1790
  169SAPE   H8R19098   2.617   0.681   6.903  2.3505  1.5871  0.7765
  169SAPE   C2919099   2.676   0.721   7.104  0.3496  0.1685 -0.6545
  169SAPE   H9R19100   2.755   0.793   7.075  0.5487  0.1801 -0.0897
  169SAPE  C21019101   2.640   0.705   7.252 -0.4502  0.1416  0.7513
  169SAPE  H10R19102   2.592   0.607   7.273 -0.5161  0.2152  0.9412
  169SAPE  H10S19103   2.564   0.780   7.283  0.4474  0.8587  1.2658
  169SAPE  C21119104   2.766   0.713   7.337  0.6217  0.7755  0.2265
  169SAPE  H11R19105   2.858   0.710   7.277 -1.0578  0.2099 -2.5100
  169SAPE  C21219106   2.776   0.726   7.469 -0.1102  0.4615  0.5084
  169SAPE  H12R19107   2.876   0.743   7.512 -0.0047 -2.4624  1.6880
  169SAPE  C21319108   2.660   0.734   7.568 -0.4306  0.0782 -0.0193
  169SAPE  H13R19109   2.691   0.680   7.660  0.3563  0.6290  0.0518
  169SAPE  H13S19110   2.590   0.655   7.532  0.1706  0.0268 -1.0970
  169SAPE  C21419111   2.594   0.868   7.580 -0.4619 -0.0555 -0.9028
  169SAPE  H14R19112   2.605   0.922   7.485 -2.1127  1.2700 -0.3827
  169SAPE  C21519113   2.545   0.928   7.690  0.2933  1.3061 -0.4467
  169SAPE  H15R19114   2.477   1.012   7.670  0.8657  1.5729 -1.3437
  169SAPE  C21619115   2.540   0.861   7.827  0.8803  0.2898 -0.0510
  169SAPE  H16R19116   2.526   0.751   7.826 -0.1363  0.4055 -0.1719
  169SAPE  H16S19117   2.442   0.892   7.870 -0.2128 -0.4190 -1.8936
  169SAPE  C21719118   2.655   0.885   7.926  0.0027 -0.1551  0.0118
  169SAPE  H17R19119   2.679   0.993   7.915  1.2608 -0.4817 -0.5250
  169SAPE  H17S19120   2.745   0.831   7.892 -0.1281 -0.3656 -0.0011
  169SAPE  C21819121   2.617   0.841   8.064 -0.4585 -1.0186 -0.4150
  169SAPE  H18R19122   2.710   0.836   8.125  1.0832 -2.7339 -2.6980
  169SAPE  H18S19123   2.567   0.742   8.057  0.2424 -1.2970 -2.2794
  169SAPE  C21919124   2.539   0.944   8.144  0.0036  0.1256 -0.4462
  169SAPE  H19R19125   2.496   1.025   8.081  0.8905  1.5995  0.7657
  169SAPE  H19S19126   2.615   0.995   8.206 -1.3972  3.1608 -1.0353
  169SAPE  C22019127   2.438   0.879   8.237 -0.4814 -0.3020 -0.3099
  169SAPE  H20R19128   2.373   0.952   8.291 -0.7475 -1.0846  0.4593
  169SAPE  H20S19129   2.491   0.828   8.321  0.9922  2.4651  0.5880
  169SAPE  H20T19130   2.379   0.798   8.188  0.3936 -0.9945 -0.2541
  169SAPE   C3319131   2.495  -0.375   7.027  0.5730 -0.0592 -0.9142
  169SAPE   H3X19132   2.603  -0.397   7.040  0.7486  0.9650 -0.5468
  169SAPE   H3Y19133   2.447  -0.412   7.121  1.7146  1.2652  0.2219
  169SAPE   C3419134   2.465  -0.221   7.012 -0.5002  0.1535 -0.0358
  169SAPE   H4X19135   2.493  -0.185   6.911  1.0643 -0.7815  0.0319
  169SAPE   H4Y19136   2.525  -0.178   7.095  0.4091 -0.1926 -0.5008
  169SAPE   C3519137   2.316  -0.193   7.035 -0.5621 -0.3260  0.2160
  169SAPE   H5X19138   2.265  -0.251   7.114 -1.4339  1.2795  0.8696
  169SAPE   H5Y19139   2.264  -0.208   6.938  2.3565 -0.0429 -1.5183
  169SAPE   C3619140   2.301  -0.039   7.073 -0.0161  0.0743  0.0453
  169SAPE   H6X19141   2.202   0.002   7.040  0.4425  1.8219  0.7383
  169SAPE   H6Y19142   2.383   0.013   7.019 -0.9022  0.7234 -0.7056
  169SAPE   C3719143   2.312  -0.026   7.223  0.1624 -0.2695 -0.8402
  169SAPE   H7X19144   2.394  -0.085   7.270  1.0098  1.8498  0.5140
  169SAPE   H7Y19145   2.215  -0.061   7.263 -0.1570 -0.5947 -1.8822
  169SAPE   C3819146   2.342   0.126   7.264 -0.6016 -1.6645  0.6238
  169SAPE   H8X19147   2.291   0.183   7.184  1.3145  0.3668  0.7708
  169SAPE   H8Y19148   2.450   0.148   7.258 -1.3449  4.2710  2.4042
  169SAPE   C3919149   2.298   0.190   7.397 -0.4474  0.1885  0.0259
  169SAPE   H9X19150   2.359   0.147   7.478 -0.7161  1.2144  0.7988
  169SAPE   H9Y19151   2.189   0.183   7.416 -0.2688  0.8280  1.3637
  169SAPE  C31019152   2.328   0.346   7.403  0.0845 -1.0163  0.3164
  169SAPE  H10X19153   2.285   0.387   7.310  0.7388  3.0698  1.6036
  169SAPE  H10Y19154   2.434   0.376   7.395  0.2193 -2.0102 -3.9240
  169SAPE  C31119155   2.260   0.422   7.520  0.1506 -0.6631  0.1328
  169SAPE  H11X19156   2.153   0.397   7.533 -0.5906  0.8390 -2.4264
  169SAPE  H11Y19157   2.256   0.531   7.496 -2.1846  0.1795  3.5951
  169SAPE  C31219158   2.335   0.402   7.652 -0.2190  0.2617  0.0555
  169SAPE  H12X19159   2.427   0.463   7.643 -1.2627  1.8703 -0.1899
  169SAPE  H12Y19160   2.365   0.297   7.670  0.4756  0.4079 -0.2406
  169SAPE  C31319161   2.268   0.451   7.783  0.1273 -0.3772  0.2803
  169SAPE  H13X19162   2.188   0.379   7.809 -0.2430 -0.1766 -0.2828
  169SAPE  H13Y19163   2.231   0.552   7.755  2.6178  0.4565 -0.2471
  169SAPE  C31419164   2.363   0.462   7.901 -0.4467 -0.6264 -0.4337
  169SAPE  H14X19165   2.426   0.553   7.896 -1.4031  0.2132  1.6751
  169SAPE  H14Y19166   2.421   0.370   7.922  1.0508  0.6876  1.4645
  169SAPE  C31519167   2.291   0.489   8.033 -0.2461  0.0872 -0.1481
  169SAPE  H15X19168   2.204   0.422   8.048  0.7349 -1.1322  0.3706
  169SAPE  H15Y19169   2.250   0.592   8.041  0.5982  0.4497 -0.4026
  169SAPE  C31619170   2.386   0.469   8.154 -0.1580 -0.8926 -0.7818
  169SAPE  H16X19171   2.487   0.515   8.155 -0.0723 -1.0513  0.5824
  169SAPE  H16Y19172   2.419   0.363   8.164 -2.0486 -2.0802 -4.7963
  169SAPE  C31719173   2.309   0.502   8.283  0.4460 -0.7090  0.5328
  169SAPE  H17X19174   2.222   0.433   8.293 -0.1343 -0.0507  0.0695
  169SAPE  H17Y19175   2.277   0.608   8.277  3.2353  0.2236  0.7187
  169SAPE  C31819176   2.387   0.493   8.419 -0.6889 -0.4308  0.1856
  169SAPE  H18X19177   2.475   0.561   8.427  0.3558 -0.9159 -4.2793
  169SAPE  H18Y19178   2.426   0.389   8.423 -1.3136 -0.6777  0.0423
  169SAPE  H18Z19179   2.319   0.507   8.506 -1.5130  0.5422 -0.5805
  170SAPE     N19180   5.288   0.895   5.968 -0.7450 -0.0646  0.2172
  170SAPE   HN119181   5.358   0.864   5.897 -0.1247 -1.3247  1.3286
  170SAPE   HN219182   5.243   0.985   5.941  2.5406  1.5147 -0.5305
  170SAPE   HN319183   5.344   0.927   6.050  1.8524 -0.3666 -1.3349
  170SAPE   C1219184   5.183   0.790   6.017  0.6519 -0.3784  0.2102
  170SAPE  H12A19185   5.231   0.697   5.978  0.3885 -0.8374  0.9643
  170SAPE  H12B19186   5.089   0.810   5.963  0.9887 -0.2515 -0.3431
  170SAPE   C1119187   5.165   0.783   6.162 -0.2155  0.0375 -0.0009
  170SAPE  H11A19188   5.140   0.881   6.208  1.9250 -0.0902  1.6057
  170SAPE  H11B19189   5.254   0.747   6.217  1.8594  1.2102 -2.4096
  170SAPE     P19190   5.087   0.543   6.218 -0.3787  0.0930  0.0231
  170SAPE   O1319191   4.962   0.491   6.276  0.0372 -0.0277 -0.6684
  170SAPE   O1419192   5.121   0.470   6.092  0.0627  0.3299  0.6391
  170SAPE   O1219193   5.062   0.690   6.189 -0.7883 -0.4753 -0.3682
  170SAPE   O1119194   5.200   0.541   6.326  0.5022 -0.3390 -0.1670
  170SAPE    C119195   5.162   0.598   6.457  0.0256 -0.4370 -0.6839
  170SAPE    HA19196   5.115   0.697   6.438 -1.8290 -0.9471  0.9074
  170SAPE    HB19197   5.087   0.536   6.510  0.1449  0.1632  0.2137
  170SAPE    C219198   5.286   0.641   6.545 -0.1583  0.0009  0.2363
  170SAPE    HS19199   5.364   0.688   6.482 -0.3745  1.5613  1.0767
  170SAPE   O2119200   5.352   0.517   6.588  0.1391 -0.2522 -0.5133
  170SAPE   C2119201   5.477   0.538   6.629  0.2804 -0.2594  0.1080
  170SAPE   O2219202   5.543   0.634   6.595  0.1677 -0.0880  0.7338
  170SAPE   C2219203   5.528   0.434   6.729  0.0837 -0.3487 -0.3555
  170SAPE   H2R19204   5.454   0.352   6.735  2.2448 -2.4783 -1.2971
  170SAPE   H2S19205   5.625   0.401   6.688  1.6540  2.5391  0.7270
  170SAPE    C319206   5.255   0.729   6.672  0.3111 -0.4964 -0.4527
  170SAPE    HX19207   5.214   0.827   6.639  1.0514 -0.9120 -2.8439
  170SAPE    HY19208   5.346   0.742   6.735 -0.2500  0.7901  0.1240
  170SAPE   O3119209   5.146   0.669   6.747  0.3708 -0.5628  0.4156
  170SAPE   C3119210   5.160   0.658   6.886  0.4388  0.0311  0.2321
  170SAPE   O3219211   5.254   0.705   6.950 -0.3509 -0.3709  0.7183
  170SAPE   C3219212   5.058   0.560   6.944 -0.3819  0.2500  0.3211
  170SAPE   H2X19213   5.085   0.461   6.903 -1.7726  0.8133 -2.1052
  170SAPE   H2Y19214   4.962   0.593   6.899 -0.5894 -2.5776 -1.5147
  170SAPE   C2319215   5.533   0.486   6.877 -0.8287 -0.4206  0.8734
  170SAPE   H3R19216   5.438   0.539   6.902  0.6812  2.5901  0.7358
  170SAPE   H3S19217   5.594   0.579   6.880  1.2876 -1.7796  1.2156
  170SAPE   C2419218   5.588   0.401   6.997  0.2480 -0.0614  1.0450
  170SAPE   H4R19219   5.698   0.407   6.984 -0.1758  3.5926 -3.3583
  170SAPE   H4S19220   5.543   0.299   7.000 -1.6620  0.7337  0.7521
  170SAPE   C2519221   5.549   0.456   7.133  0.1032 -0.3147 -0.0107
  170SAPE   H5R19222   5.496   0.553   7.134 -1.3848 -1.0971  1.6768
  170SAPE   C2619223   5.575   0.383   7.238  0.3767  0.3247 -0.2494
  170SAPE   H6R19224   5.559   0.422   7.340  0.6030  0.3587 -0.2280
  170SAPE   C2719225   5.639   0.247   7.238  0.0206  0.5021 -0.3002
  170SAPE   H7R19226   5.709   0.227   7.155 -1.1971 -0.3514 -1.1643
  170SAPE   H7S19227   5.562   0.170   7.214  1.2457 -1.0584  0.6067
  170SAPE   C2819228   5.724   0.217   7.357  0.8699  0.2580  0.9473
  170SAPE   H8R19229   5.825   0.183   7.328  0.1616 -3.0366  1.8640
  170SAPE   C2919230   5.706   0.217   7.490 -0.7870 -0.0312  0.0509
  170SAPE   H9R19231   5.775   0.157   7.552  0.1956  2.1835  1.2083
  170SAPE  C21019232   5.581   0.256   7.566  0.2440 -0.2252 -0.2694
  170SAPE  H10R19233   5.553   0.179   7.640  0.3709  0.9626  1.0625
  170SAPE  H10S19234   5.492   0.268   7.501 -0.1563  0.0710  0.3245
  170SAPE  C21119235   5.613   0.387   7.640 -0.1393 -0.2671  0.0178
  170SAPE  H11R19236   5.582   0.470   7.575  0.7511  0.4516  0.5018
  170SAPE  C21219237   5.669   0.404   7.763 -0.2752  0.3110 -0.5499
  170SAPE  H12R19238   5.687   0.507   7.796 -2.9323  0.2611  1.4222
  170SAPE  C21319239   5.720   0.305   7.861 -0.2100  0.5331 -0.2800
  170SAPE  H13R19240   5.673   0.210   7.828  0.0248  0.5530 -0.6821
  170SAPE  H13S19241   5.680   0.320   7.963 -3.2341  1.4225 -1.4737
  170SAPE  C21419242   5.869   0.310   7.871  0.5827 -0.5534  0.1465
  170SAPE  H14R19243   5.915   0.236   7.804 -0.7652  1.0007 -2.6897
  170SAPE  C21519244   5.947   0.396   7.930 -0.0822 -0.6961 -0.3498
  170SAPE  H15R19245   6.055   0.381   7.941 -0.2319 -1.1889  0.5611
  170SAPE  C21619246   5.906   0.510   8.020  0.3154  0.2451 -0.8028
  170SAPE  H16R19247   5.801   0.546   8.020  0.5043  0.8199 -0.9319
  170SAPE  H16S19248   5.954   0.602   7.981 -0.5881  1.2484  0.3541
  170SAPE  C21719249   5.934   0.491   8.172 -0.3201 -0.5229 -0.4358
  170SAPE  H17R19250   5.858   0.418   8.208 -0.5200  0.6208  1.5581
  170SAPE  H17S19251   5.910   0.589   8.217  0.8974  0.7995 -2.4951
  170SAPE  C21819252   6.079   0.438   8.193  0.4645  0.4498  0.5443
  170SAPE  H18R19253   6.142   0.486   8.115 -0.2227  0.3256 -0.0942
  170SAPE  H18S19254   6.064   0.334   8.159 -0.4218  1.2718 -1.7502
  170SAPE  C21919255   6.131   0.461   8.333 -0.2577 -0.7102 -0.3528
  170SAPE  H19R19256   6.213   0.388   8.351 -0.4302 -0.4690  1.7294
  170SAPE  H19S19257   6.050   0.439   8.406  0.1307 -3.8427 -0.7359
  170SAPE  C22019258   6.180   0.603   8.341 -0.3690 -0.2019  0.1581
  170SAPE  H20R19259   6.233   0.634   8.248  0.1543  1.8026  1.0608
  170SAPE  H20S19260   6.265   0.620   8.411  0.4300  1.4029 -1.1376
  170SAPE  H20T19261   6.101   0.666   8.385 -0.1377 -0.2734  0.6826
  170SAPE   C3319262   5.049   0.560   7.102  0.3193 -0.3895 -0.9002
  170SAPE   H3X19263   4.984   0.472   7.123 -1.2907  1.3450  2.0698
  170SAPE   H3Y19264   5.006   0.657   7.133 -0.9014 -0.5961 -1.8884
  170SAPE   C3419265   5.176   0.537   7.182  0.0826  0.7848 -0.0443
  170SAPE   H4X19266   5.235   0.631   7.171 -2.6032  3.1070  3.3123
  170SAPE   H4Y19267   5.226   0.446   7.143 -1.4329  0.4353 -1.3116
  170SAPE   C3519268   5.153   0.526   7.333  0.6730 -0.1657  0.5147
  170SAPE   H5X19269   5.091   0.439   7.364 -0.2690 -0.1966 -1.3158
  170SAPE   H5Y19270   5.085   0.611   7.357  0.1795 -0.3968 -0.0479
  170SAPE   C3619271   5.278   0.536   7.408 -0.8076  0.3257 -0.2234
  170SAPE   H6X19272   5.338   0.609   7.349  0.2431 -1.6151 -1.6955
  170SAPE   H6Y19273   5.338   0.443   7.399 -1.2264  0.0667 -0.3517
  170SAPE   C3719274   5.271   0.578   7.553  0.2779  0.3956  0.6368
  170SAPE   H7X19275   5.219   0.677   7.554 -1.3839 -0.4312  1.9605
  170SAPE   H7Y19276   5.370   0.579   7.602  0.3932 -2.0064  0.5734
  170SAPE   C3819277   5.183   0.488   7.638  0.0053 -0.5347  0.0051
  170SAPE   H8X19278   5.238   0.393   7.655  0.9700  0.1170  0.5619
  170SAPE   H8Y19279   5.095   0.465   7.573  0.9761  0.0736 -1.6054
  170SAPE   C3919280   5.146   0.553   7.776 -0.1004 -0.2132 -0.0744
  170SAPE   H9X19281   5.055   0.501   7.814 -0.2801  0.3192  0.2312
  170SAPE   H9Y19282   5.116   0.660   7.769  2.3136  0.6183  1.2302
  170SAPE  C31019283   5.260   0.544   7.882 -0.1691  0.1719 -0.0254
  170SAPE  H10X19284   5.243   0.622   7.959  1.6060 -0.0247  0.6140
  170SAPE  H10Y19285   5.357   0.571   7.836  1.0291  0.1344  2.3235
  170SAPE  C31119286   5.257   0.412   7.956 -0.1864  0.0191 -0.0650
  170SAPE  H11X19287   5.250   0.331   7.880  1.4591 -0.3179  0.0941
  170SAPE  H11Y19288   5.172   0.412   8.027  0.3995 -1.1039  0.6670
  170SAPE  C31219289   5.385   0.390   8.039  0.7842  0.4095  0.0834
  170SAPE  H12X19290   5.476   0.418   7.981  0.6640 -0.1735 -0.3967
  170SAPE  H12Y19291   5.390   0.281   8.059 -0.6237  0.0418 -1.3386
  170SAPE  C31319292   5.383   0.447   8.180 -0.4288 -0.3035 -0.1004
  170SAPE  H13X19293   5.314   0.393   8.248  0.9184  0.9880  2.4347
  170SAPE  H13Y19294   5.346   0.552   8.182 -2.2083 -0.8904  2.0551
  170SAPE  C31419295   5.523   0.456   8.243 -0.7828 -0.0999  0.8831
  170SAPE  H14X19296   5.589   0.516   8.176  1.5660 -2.2699  1.1117
  170SAPE  H14Y19297   5.558   0.351   8.241  0.4161  0.2811  1.1827
  170SAPE  C31519298   5.518   0.499   8.386  0.2042  0.6669  1.3307
  170SAPE  H15X19299   5.439   0.443   8.441  1.0046  0.6637  2.5056
  170SAPE  H15Y19300   5.496   0.608   8.388 -2.5011  0.2914 -1.0547
  170SAPE  C31619301   5.656   0.473   8.454  0.1139 -0.3156 -0.4572
  170SAPE  H16X19302   5.736   0.533   8.405 -0.3028  0.2448 -0.4582
  170SAPE  H16Y19303   5.680   0.365   8.440  0.0349 -0.2818 -0.8887
  170SAPE  C31719304   5.657   0.507   8.601 -0.2197 -0.0299  0.6645
  170SAPE  H17X19305   5.568   0.466   8.654 -0.8409  2.3326  1.5958
  170SAPE  H17Y19306   5.642   0.617   8.607  2.2926  0.3535  1.1280
  170SAPE  C31819307   5.783   0.464   8.678  0.7538  0.2495 -0.6828
  170SAPE  H18X19308   5.874   0.508   8.632 -0.5210 -0.6078 -4.4584
  170SAPE  H18Y19309   5.794   0.354   8.682  0.4593  0.1979 -1.1645
  170SAPE  H18Z19310   5.780   0.498   8.784  0.0495  0.5383 -0.7894
  171SAPE     N19311   6.541   1.134   6.330 -0.2419  0.1767  0.1904
  171SAPE   HN119312   6.476   1.209   6.298  0.5928  1.3058  1.0349
  171SAPE   HN219313   6.632   1.179   6.353 -0.2594  0.9169 -1.1077
  171SAPE   HN319314   6.558   1.065   6.254  0.2365  2.8251 -2.2700
  171SAPE   C1219315   6.477   1.075   6.456  0.7495 -0.1439 -0.4073
  171SAPE  H12A19316   6.372   1.063   6.422  1.0991 -0.1246 -1.5293
  171SAPE  H12B19317   6.493   1.146   6.539  1.8572 -0.2680 -0.5037
  171SAPE   C1119318   6.517   0.935   6.499 -0.4296  0.1261 -0.1181
  171SAPE  H11A19319   6.456   0.899   6.585  1.0857 -1.0462  0.5073
  171SAPE  H11B19320   6.622   0.941   6.532 -0.5812 -3.4150  1.3929
  171SAPE     P19321   6.436   0.706   6.417 -0.0854  0.2357 -0.0344
  171SAPE   O1319322   6.291   0.734   6.419  0.2853  0.2507  0.1044
  171SAPE   O1419323   6.488   0.603   6.318 -0.1833  0.2018 -0.0205
  171SAPE   O1219324   6.510   0.840   6.389 -0.3679 -0.1354  0.6800
  171SAPE   O1119325   6.497   0.670   6.557 -0.7636  0.7545  0.2894
  171SAPE    C119326   6.601   0.574   6.568 -0.5822  0.1497 -0.9963
  171SAPE    HA19327   6.559   0.472   6.551  1.1257 -1.2936  2.4540
  171SAPE    HB19328   6.681   0.593   6.493  0.6258 -4.2051 -1.1037
  171SAPE    C219329   6.684   0.588   6.696  0.6008  0.2374  0.2991
  171SAPE    HS19330   6.785   0.546   6.674  1.2123  1.6909  0.1950
  171SAPE   O2119331   6.621   0.529   6.810 -0.0993 -0.6960 -0.2211
  171SAPE   C2119332   6.617   0.395   6.815 -0.1740  0.0118 -0.0286
  171SAPE   O2219333   6.650   0.321   6.726 -0.1752 -0.2702 -0.0298
  171SAPE   C2219334   6.565   0.353   6.948 -0.2256 -0.0922 -0.3568
  171SAPE   H2R19335   6.598   0.429   7.022 -0.0741 -0.9794  0.5243
  171SAPE   H2S19336   6.455   0.344   6.940 -0.1613 -2.2570  0.5111
  171SAPE    C319337   6.710   0.735   6.742 -0.9754 -0.0529 -0.4673
  171SAPE    HX19338   6.613   0.770   6.782 -1.6558  0.4218 -2.4242
  171SAPE    HY19339   6.732   0.798   6.653  0.0329  0.7441  0.3249
  171SAPE   O3119340   6.814   0.730   6.845  0.5190 -0.1545  0.1203
  171SAPE   C3119341   6.772   0.715   6.968  0.3895  0.3765  0.4327
  171SAPE   O3219342   6.662   0.725   7.012 -0.7651  0.1707 -0.1731
  171SAPE   C3219343   6.890   0.688   7.059 -0.4442 -0.8878  0.6913
  171SAPE   H2X19344   6.950   0.779   7.080  2.0044 -1.6374 -2.2541
  171SAPE   H2Y19345   6.950   0.624   6.991 -1.4190 -1.1217  0.0346
  171SAPE   C2319346   6.618   0.214   6.986  0.1952 -0.3177  0.3497
  171SAPE   H3R19347   6.729   0.214   6.977  0.2098  2.4558 -0.4221
  171SAPE   H3S19348   6.593   0.132   6.915 -1.7459  0.3412  0.2109
  171SAPE   C2419349   6.570   0.172   7.131  0.0622  0.0432  0.2685
  171SAPE   H4R19350   6.584   0.062   7.133 -0.9042 -0.1270 -0.8732
  171SAPE   H4S19351   6.460   0.191   7.133 -0.1144 -1.0295  1.1643
  171SAPE   C2519352   6.636   0.257   7.242  0.3292  0.2503 -0.5076
  171SAPE   H5R19353   6.568   0.335   7.279 -0.7913 -0.7944 -0.2886
  171SAPE   C2619354   6.755   0.254   7.301  0.0103 -0.0283 -0.4265
  171SAPE   H6R19355   6.788   0.326   7.378 -0.4789  0.7507 -0.9236
  171SAPE   C2719356   6.862   0.157   7.268 -0.7532  0.4417  0.8848
  171SAPE   H7R19357   6.961   0.203   7.288 -1.1914  1.6656  0.3861
  171SAPE   H7S19358   6.868   0.131   7.160 -0.2802  0.8604  0.8042
  171SAPE   C2819359   6.844   0.030   7.345 -0.1852 -0.1909 -0.4199
  171SAPE   H8R19360   6.745  -0.016   7.336 -0.9141  1.0185  1.0041
  171SAPE   C2919361   6.925  -0.036   7.437 -0.4588 -0.3753  0.1566
  171SAPE   H9R19362   6.882  -0.128   7.479  0.2980 -1.9219 -2.2363
  171SAPE  C21019363   7.064  -0.009   7.482  0.2406  0.2229  0.6523
  171SAPE  H10R19364   7.104   0.071   7.416 -1.3900 -0.1333 -0.8396
  171SAPE  H10S19365   7.119  -0.099   7.448  0.7772  0.8276 -0.1327
  171SAPE  C21119366   7.086   0.010   7.631 -0.7415 -0.4874 -0.0395
  171SAPE  H11R19367   7.137  -0.072   7.684 -2.3471 -1.8396 -0.5144
  171SAPE  C21219368   7.047   0.117   7.697 -0.5410  0.6181 -0.1872
  171SAPE  H12R19369   7.052   0.109   7.807  2.8546 -0.8301 -0.3176
  171SAPE  C21319370   6.976   0.238   7.653  0.1284  0.3253  0.6600
  171SAPE  H13R19371   6.973   0.231   7.542  0.7847 -1.9077  0.7347
  171SAPE  H13S19372   7.038   0.327   7.677  0.2161 -0.3963  3.4964
  171SAPE  C21419373   6.837   0.247   7.712 -0.2001 -0.3159 -0.2837
  171SAPE  H14R19374   6.755   0.207   7.650 -2.4806  0.4445  2.0677
  171SAPE  C21519375   6.811   0.314   7.824  0.3580 -0.1836  0.2146
  171SAPE  H15R19376   6.707   0.335   7.854  0.1195 -1.1005  0.0577
  171SAPE  C21619377   6.909   0.387   7.910 -0.5330 -1.0418  0.4341
  171SAPE  H16R19378   6.876   0.492   7.926  0.0975 -1.2014  3.1563
  171SAPE  H16S19379   7.003   0.407   7.855  0.4678 -0.7835  2.1837
  171SAPE  C21719380   6.961   0.320   8.040 -0.5310  0.0345  0.3362
  171SAPE  H17R19381   7.042   0.381   8.086  0.8700 -1.9548  0.6226
  171SAPE  H17S19382   6.998   0.222   8.003 -2.2513  0.2222 -2.1538
  171SAPE  C21819383   6.849   0.294   8.136  0.0538  0.4151 -0.4458
  171SAPE  H18R19384   6.778   0.228   8.082  0.2126 -0.4086  0.3257
  171SAPE  H18S19385   6.795   0.387   8.165  0.6239  0.5776  0.1083
  171SAPE  C21919386   6.880   0.220   8.265  0.4597  0.0162  0.1165
  171SAPE  H19R19387   6.969   0.270   8.310  1.6163 -0.9125 -1.0620
  171SAPE  H19S19388   6.903   0.116   8.235 -1.5816 -0.1580 -0.9837
  171SAPE  C22019389   6.775   0.220   8.372  0.3185  0.0715 -0.7499
  171SAPE  H20R19390   6.757   0.318   8.422 -1.9832  0.1650 -1.6467
  171SAPE  H20S19391   6.807   0.142   8.444 -0.1307 -0.3283 -0.9727
  171SAPE  H20T19392   6.682   0.174   8.333  0.6595  0.0601 -1.5675
  171SAPE   C3319393   6.863   0.591   7.177  0.4823 -0.2223  0.3232
  171SAPE   H3X19394   6.957   0.532   7.187  1.4986  0.6730 -2.9162
  171SAPE   H3Y19395   6.776   0.523   7.167  0.9369 -0.6348 -0.9609
  171SAPE   C3419396   6.852   0.677   7.303  0.1503 -0.1664  0.6630
  171SAPE   H4X19397   6.771   0.751   7.284  1.7521  2.0908  2.2032
  171SAPE   H4Y19398   6.943   0.739   7.313 -0.9911  1.3907  1.8067
  171SAPE   C3519399   6.820   0.599   7.432 -0.1087 -0.2008 -0.2859
  171SAPE   H5X19400   6.901   0.526   7.453  0.1099  0.2389  0.4174
  171SAPE   H5Y19401   6.730   0.536   7.415  1.0739 -2.2029  0.5929
  171SAPE   C3619402   6.815   0.690   7.557 -0.5847 -0.4556  0.2342
  171SAPE   H6X19403   6.784   0.633   7.648  0.8603 -3.4422 -1.0022
  171SAPE   H6Y19404   6.738   0.768   7.538 -0.5455 -0.2338  0.9573
  171SAPE   C3719405   6.948   0.758   7.594  0.1385 -0.0076 -0.8044
  171SAPE   H7X19406   7.001   0.794   7.504  0.9461 -0.5054 -0.5307
  171SAPE   H7Y19407   7.006   0.672   7.633  0.2334  1.0148  1.4877
  171SAPE   C3819408   6.931   0.865   7.707  0.0960  0.0391  0.2234
  171SAPE   H8X19409   6.838   0.924   7.697  0.2829  0.2911 -0.0456
  171SAPE   H8Y19410   7.022   0.928   7.707  0.2695 -0.2071 -0.0903
  171SAPE   C3919411   6.908   0.804   7.842  0.1010  0.2762  0.2921
  171SAPE   H9X19412   7.001   0.744   7.856 -0.0166 -0.1148 -0.5482
  171SAPE   H9Y19413   6.812   0.751   7.853 -0.8973  1.8272 -0.5640
  171SAPE  C31019414   6.901   0.917   7.955 -0.2356  0.3261  0.4364
  171SAPE  H10X19415   6.840   0.997   7.908  0.4062 -0.1662 -1.3275
  171SAPE  H10Y19416   7.005   0.956   7.961 -0.2307  0.2448  0.9563
  171SAPE  C31119417   6.851   0.869   8.091 -0.5851  0.5525  0.5249
  171SAPE  H11X19418   6.746   0.840   8.068 -0.4275  0.6832 -0.3882
  171SAPE  H11Y19419   6.847   0.948   8.169  1.1272  0.8955  0.2927
  171SAPE  C31219420   6.927   0.746   8.146  0.1188 -0.4466  1.1033
  171SAPE  H12X19421   7.036   0.765   8.139  0.1735 -0.7539  1.1318
  171SAPE  H12Y19422   6.900   0.656   8.087  0.5988  0.1246 -0.0236
  171SAPE  C31319423   6.886   0.719   8.294 -0.1426  0.2418  0.5692
  171SAPE  H13X19424   6.905   0.803   8.365  2.0031 -0.3161  0.7205
  171SAPE  H13Y19425   6.943   0.635   8.338  1.6559  1.5202  0.7753
  171SAPE  C31419426   6.729   0.702   8.312  0.1257 -0.8064 -0.2053
  171SAPE  H14X19427   6.684   0.640   8.231  1.4959  0.5483 -2.1103
  171SAPE  H14Y19428   6.687   0.804   8.307 -2.8530 -1.9859 -3.1238
  171SAPE  C31519429   6.708   0.637   8.448  0.1251  0.1928 -0.1479
  171SAPE  H15X19430   6.766   0.543   8.448  0.7340  0.5420  1.2470
  171SAPE  H15Y19431   6.599   0.615   8.450  0.4893 -2.2042 -2.1012
  171SAPE  C31619432   6.745   0.723   8.566 -0.0958 -0.0042 -0.3382
  171SAPE  H16X19433   6.856   0.726   8.569 -0.1334  1.4867  1.6936
  171SAPE  H16Y19434   6.712   0.682   8.664 -0.4871  0.9923 -0.0378
  171SAPE  C31719435   6.703   0.870   8.582 -0.1503  0.0357 -0.3718
  171SAPE  H17X19436   6.596   0.893   8.564 -0.4063 -1.1731 -0.4633
  171SAPE  H17Y19437   6.745   0.934   8.501  0.6526 -0.1160 -0.0800
  171SAPE  C31819438   6.759   0.933   8.718 -0.0330 -0.4255  0.9830
  171SAPE  H18X19439   6.704   0.886   8.803 -1.5885  1.6048  1.1750
  171SAPE  H18Y19440   6.738   1.042   8.718  0.3294 -0.3558  0.8002
  171SAPE  H18Z19441   6.867   0.915   8.734  0.1264 -2.2377 -1.5930
  172SAPE     N19442   6.616   0.137   6.510 -0.5629  0.2492 -0.0003
  172SAPE   HN119443   6.676   0.184   6.581  2.1381 -2.1613 -0.5126
  172SAPE   HN219444   6.621   0.035   6.532  3.1233  0.4764  0.9572
  172SAPE   HN319445   6.652   0.145   6.413  1.2648 -1.5467  0.4688
  172SAPE   C1219446   6.471   0.172   6.522 -0.8481 -0.3384 -0.4691
  172SAPE  H12A19447   6.463   0.282   6.507 -1.6662 -0.5935 -2.1630
  172SAPE  H12B19448   6.433   0.147   6.623 -1.3944  1.1434 -0.2724
  172SAPE   C1119449   6.385   0.118   6.409  0.0136 -0.3733  0.6136
  172SAPE  H11A19450   6.417   0.180   6.322 -0.5624  0.0188  0.6736
  172SAPE  H11B19451   6.280   0.146   6.432 -0.0775  0.6840 -0.9467
  172SAPE     P19452   6.297  -0.123   6.349 -0.0321  0.1087 -0.1584
  172SAPE   O1319453   6.184  -0.061   6.283 -0.1800  0.5626 -0.5937
  172SAPE   O1419454   6.363  -0.228   6.268  0.2810  0.1803 -0.5200
  172SAPE   O1219455   6.411  -0.023   6.401 -0.0640  0.3016 -0.1428
  172SAPE   O1119456   6.251  -0.187   6.489  0.3267  0.2526 -0.5067
  172SAPE    C119457   6.357  -0.251   6.571 -0.6482  0.4747  0.4017
  172SAPE    HA19458   6.334  -0.359   6.583  0.6428  0.3331  1.9236
  172SAPE    HB19459   6.452  -0.252   6.514 -0.7749 -1.9313  0.1545
  172SAPE    C219460   6.363  -0.199   6.715  0.0857  0.1232 -0.2734
  172SAPE    HS19461   6.354  -0.089   6.712  0.7422  0.1623 -1.3296
  172SAPE   O2119462   6.484  -0.248   6.778 -0.0950 -0.5378 -0.0624
  172SAPE   C2119463   6.594  -0.185   6.740  0.0443 -0.1195  0.3618
  172SAPE   O2219464   6.600  -0.093   6.661  0.6879 -0.6162  0.0060
  172SAPE   C2219465   6.711  -0.270   6.791  0.5089 -0.5265  0.1505
  172SAPE   H2R19466   6.668  -0.354   6.851 -0.4906 -0.6538 -0.7102
  172SAPE   H2S19467   6.752  -0.310   6.696 -0.8525  1.1104 -1.2030
  172SAPE    C319468   6.245  -0.252   6.805  0.5474  1.2937 -0.1975
  172SAPE    HX19469   6.151  -0.216   6.757  0.4238 -1.6132 -2.3503
  172SAPE    HY19470   6.259  -0.198   6.902  1.5843  1.3914 -0.3912
  172SAPE   O3119471   6.243  -0.397   6.826  0.3738 -0.2367  0.7089
  172SAPE   C3119472   6.129  -0.437   6.875 -0.0700  0.2824 -0.0006
  172SAPE   O3219473   6.034  -0.365   6.903  0.3082 -0.0178  0.1551
  172SAPE   C3219474   6.130  -0.594   6.885  0.4199  0.0762  0.2374
  172SAPE   H2X19475   6.221  -0.631   6.938  0.9187  0.6300 -0.2168
  172SAPE   H2Y19476   6.128  -0.632   6.781 -0.2231 -1.2778  0.7227
  172SAPE   C2319477   6.830  -0.191   6.850 -0.3509  0.2954 -0.0331
  172SAPE   H3R19478   6.844  -0.092   6.801 -1.3183  0.7575  0.5718
  172SAPE   H3S19479   6.925  -0.248   6.843  0.4543  1.6903 -0.9262
  172SAPE   C2419480   6.800  -0.153   6.994 -0.0430  0.0890  0.2057
  172SAPE   H4R19481   6.714  -0.083   7.004 -2.2553 -2.7200  2.3058
  172SAPE   H4S19482   6.889  -0.098   7.032  0.2854 -0.5515  0.3723
  172SAPE   C2519483   6.780  -0.273   7.089 -0.5639  0.2022 -0.0592
  172SAPE   H5R19484   6.857  -0.352   7.079  0.4640  1.4501 -3.4910
  172SAPE   C2619485   6.667  -0.316   7.149  0.1875 -0.0368  0.0126
  172SAPE   H6R19486   6.676  -0.391   7.229  0.8852  0.4466  0.3973
  172SAPE   C2719487   6.536  -0.240   7.136 -0.2162  0.4700 -0.3554
  172SAPE   H7R19488   6.532  -0.168   7.051 -0.2679  1.8442  0.7873
  172SAPE   H7S19489   6.521  -0.187   7.232 -0.4340 -2.5108  1.3481
  172SAPE   C2819490   6.425  -0.342   7.103 -0.2616  0.4078  0.0268
  172SAPE   H8R19491   6.430  -0.381   7.000  0.9201  0.0610  0.2037
  172SAPE   C2919492   6.355  -0.412   7.190  0.9598  0.0512 -0.6615
  172SAPE   H9R19493   6.277  -0.481   7.156  0.6006  1.8810 -4.0589
  172SAPE  C21019494   6.353  -0.400   7.341 -0.5670  0.2700  0.6124
  172SAPE  H10R19495   6.410  -0.308   7.367 -0.2965  0.8308 -1.7347
  172SAPE  H10S19496   6.409  -0.487   7.380 -0.5922  0.2519  0.6081
  172SAPE  C21119497   6.214  -0.395   7.403 -0.4644 -0.0595 -0.0719
  172SAPE  H11R19498   6.144  -0.329   7.350  1.9042  1.7109 -1.1852
  172SAPE  C21219499   6.174  -0.460   7.512 -0.1629 -0.5936  0.0253
  172SAPE  H12R19500   6.072  -0.435   7.545  0.5059  1.1892  0.9025
  172SAPE  C21319501   6.235  -0.566   7.602 -0.3165 -0.1154  0.2279
  172SAPE  H13R19502   6.302  -0.627   7.539 -0.6727 -0.3692  0.0926
  172SAPE  H13S19503   6.156  -0.638   7.633 -1.4375  0.3489 -1.4447
  172SAPE  C21419504   6.317  -0.507   7.710 -0.3976 -0.0228  0.6872
  172SAPE  H14R19505   6.407  -0.463   7.666  0.9450 -1.7682  1.5935
  172SAPE  C21519506   6.298  -0.507   7.844  0.1121  0.3968  0.2127
  172SAPE  H15R19507   6.364  -0.448   7.908  0.6251 -1.5501  1.5731
  172SAPE  C21619508   6.186  -0.578   7.915  0.3011 -0.2117  0.3972
  172SAPE  H16R19509   6.230  -0.660   7.975 -1.2165 -1.2428  0.1464
  172SAPE  H16S19510   6.109  -0.630   7.854  2.6763 -2.6354 -0.7673
  172SAPE  C21719511   6.118  -0.474   8.006  0.3903 -0.5135 -0.8278
  172SAPE  H17R19512   6.016  -0.507   8.034  0.6685 -0.0507  0.8081
  172SAPE  H17S19513   6.111  -0.381   7.945  2.1080 -0.4805 -1.0285
  172SAPE  C21819514   6.182  -0.466   8.148 -0.6777  0.1481  0.1955
  172SAPE  H18R19515   6.290  -0.448   8.130 -0.0274 -0.5576  2.9424
  172SAPE  H18S19516   6.190  -0.565   8.197  1.5540 -0.0272 -0.4160
  172SAPE  C21919517   6.125  -0.365   8.248  1.4166  0.4159 -0.3018
  172SAPE  H19R19518   6.111  -0.270   8.193  0.4607 -0.2256 -1.2109
  172SAPE  H19S19519   6.187  -0.337   8.336 -0.8595  0.1265  1.4876
  172SAPE  C22019520   5.989  -0.413   8.305 -0.4065 -0.2067 -0.0520
  172SAPE  H20R19521   5.938  -0.484   8.236 -0.6718  0.1758 -0.2507
  172SAPE  H20S19522   5.924  -0.328   8.333 -0.6502 -1.0478  2.1178
  172SAPE  H20T19523   6.005  -0.462   8.404  0.3266  2.4614  1.2371
  172SAPE   C3319524   6.016  -0.659   6.967  0.6782 -0.2871 -0.6367
  172SAPE   H3X19525   6.016  -0.769   6.952  0.2427 -0.3575 -0.1561
  172SAPE   H3Y19526   5.922  -0.609   6.933  0.3107 -0.4169  0.1514
  172SAPE   C3419527   6.032  -0.641   7.122  0.4129 -0.6639  0.2536
  172SAPE   H4X19528   6.046  -0.541   7.167  1.9442 -1.0269  0.6389
  172SAPE   H4Y19529   6.112  -0.706   7.163 -1.1366 -2.7927  0.1296
  172SAPE   C3519530   5.910  -0.691   7.202  1.3598 -0.0052 -1.0499
  172SAPE   H5X19531   5.903  -0.800   7.184  1.9516  0.0782 -1.8214
  172SAPE   H5Y19532   5.812  -0.645   7.173  0.7690 -1.1275 -0.8561
  172SAPE   C3619533   5.925  -0.667   7.357  0.6561 -0.7176  0.6863
  172SAPE   H6X19534   5.893  -0.562   7.378  1.0055 -0.7083  1.1688
  172SAPE   H6Y19535   6.031  -0.690   7.380  0.7367 -1.1536 -0.0892
  172SAPE   C3719536   5.830  -0.757   7.429 -0.2959  0.0100 -0.7371
  172SAPE   H7X19537   5.846  -0.855   7.380  0.5835 -0.3008  0.1352
  172SAPE   H7Y19538   5.724  -0.750   7.395  0.3739 -0.8313 -3.2441
  172SAPE   C3819539   5.854  -0.750   7.573  0.1589  0.0511 -0.9562
  172SAPE   H8X19540   5.845  -0.645   7.609 -0.5231 -1.1689  3.0177
  172SAPE   H8Y19541   5.959  -0.782   7.590  0.0128 -0.0748 -0.2416
  172SAPE   C3919542   5.753  -0.826   7.658  0.2204 -0.2060 -0.8682
  172SAPE   H9X19543   5.750  -0.932   7.624 -0.7738 -0.2792 -0.5671
  172SAPE   H9Y19544   5.659  -0.768   7.652  1.1919  1.6704  0.7063
  172SAPE  C31019545   5.797  -0.834   7.805 -0.7999  0.5954 -0.5746
  172SAPE  H10X19546   5.792  -0.730   7.845 -0.9983  1.6834 -3.1743
  172SAPE  H10Y19547   5.902  -0.869   7.808 -0.0627  2.7139  2.5705
  172SAPE  C31119548   5.714  -0.938   7.880  0.0789 -0.4735  0.0016
  172SAPE  H11X19549   5.720  -1.031   7.820  2.3264 -1.4386  1.5932
  172SAPE  H11Y19550   5.608  -0.905   7.884 -0.1567 -1.2538  0.3654
  172SAPE  C31219551   5.761  -0.973   8.028  0.5243 -0.1659 -0.1287
  172SAPE  H12X19552   5.687  -1.043   8.073  1.0304  1.5187  3.7186
  172SAPE  H12Y19553   5.758  -0.885   8.096 -2.5655 -1.5853  1.7954
  172SAPE  C31319554   5.897  -1.029   8.029 -0.5860 -0.4460 -0.2614
  172SAPE  H13X19555   5.982  -0.957   8.034  0.9505 -2.1246 -0.9329
  172SAPE  H13Y19556   5.906  -1.078   7.929  0.0633  1.0997 -0.9953
  172SAPE  C31419557   5.912  -1.135   8.140  0.1930 -0.8113 -0.0326
  172SAPE  H14X19558   5.850  -1.106   8.228  0.1422  1.1873 -0.6703
  172SAPE  H14Y19559   6.018  -1.125   8.173  1.3785  0.5031 -3.7475
  172SAPE  C31519560   5.880  -1.271   8.090  0.6293  0.6822 -0.4290
  172SAPE  H15X19561   5.958  -1.296   8.015 -0.2890 -0.1306 -1.1334
  172SAPE  H15Y19562   5.784  -1.270   8.034  0.4042  1.6651 -0.0438
  172SAPE  C31619563   5.866  -1.388   8.183 -0.3190  0.4114  0.0641
  172SAPE  H16X19564   5.936  -1.394   8.270 -1.6231  0.1746  1.1241
  172SAPE  H16Y19565   5.897  -1.471   8.116  1.1261 -0.1879  1.3922
  172SAPE  C31719566   5.728  -1.418   8.236  1.2357 -0.0151 -0.2932
  172SAPE  H17X19567   5.648  -1.412   8.158  1.7736 -2.1378 -1.0921
  172SAPE  H17Y19568   5.708  -1.332   8.303  0.3569 -0.0422 -0.5031
  172SAPE  C31819569   5.705  -1.562   8.283 -0.5011 -0.2891  0.2466
  172SAPE  H18X19570   5.779  -1.598   8.357  0.9633  0.4238 -0.8194
  172SAPE  H18Y19571   5.727  -1.630   8.198  1.2363  1.0382 -0.4350
  172SAPE  H18Z19572   5.609  -1.580   8.336 -0.0427 -0.8944  0.8894
  173SOPE     N19573   1.568   4.963  11.077 -0.4325  0.2438  0.0155
  173SOPE   HN119574   1.660   5.007  11.056 -0.1757  0.3509  1.2944
  173SOPE   HN219575   1.517   5.033  11.136 -1.8497  1.5173 -2.5240
  173SOPE   HN319576   1.587   4.877  11.131 -1.0095  0.0952 -0.0100
  173SOPE   C1219577   1.493   4.929  10.956 -0.1375  0.6755 -0.0743
  173SOPE  H12A19578   1.409   4.862  10.983  0.0513  0.8224  0.9232
  173SOPE  H12B19579   1.561   4.879  10.883 -1.2665 -0.2888 -0.5120
  173SOPE   C1119580   1.442   5.057  10.886 -0.2659  0.3600 -0.4229
  173SOPE  H11A19581   1.366   5.107  10.950  0.4449  1.8359 -0.6938
  173SOPE  H11B19582   1.395   5.015  10.794  0.8548 -1.1641 -0.3339
  173SOPE     P19583   1.526   5.302  10.860 -0.1446 -0.4699  0.4199
  173SOPE   O1319584   1.641   5.380  10.802 -0.8173  0.1830  0.1275
  173SOPE   O1419585   1.492   5.332  10.998  0.2567 -0.0573  0.0718
  173SOPE   O1219586   1.549   5.145  10.848 -0.2298 -0.1538  0.1102
  173SOPE   O1119587   1.397   5.318  10.770  0.6681 -0.0582 -0.0907
  173SOPE    C119588   1.375   5.455  10.711 -0.3205  0.4491 -0.3237
  173SOPE    HA19589   1.467   5.490  10.659  0.7313  1.5410  2.1137
  173SOPE    HB19590   1.357   5.523  10.797  0.1948 -1.3233  1.2310
  173SOPE    C219591   1.247   5.463  10.622 -0.3803 -0.2858  0.8956
  173SOPE    HS19592   1.160   5.454  10.691 -2.4409 -0.5605 -1.5711
  173SOPE   O2119593   1.243   5.355  10.530  0.3108 -0.9702 -0.7673
  173SOPE   C2119594   1.120   5.307  10.502 -0.3396  1.1952 -0.5985
  173SOPE   O2219595   1.012   5.335  10.553 -0.0477 -0.7503  0.2442
  173SOPE   C2219596   1.131   5.210  10.384 -0.2883  0.2111 -0.0787
  173SOPE   H2R19597   1.028   5.196  10.346 -0.1388  0.4303 -0.5655
  173SOPE   H2S19598   1.173   5.115  10.425  2.9773  1.8657  0.7343
  173SOPE    C319599   1.228   5.607  10.548 -0.3262  0.1820  0.1307
  173SOPE    HX19600   1.227   5.675  10.636 -0.7925  0.7366 -0.2928
  173SOPE    HY19601   1.127   5.613  10.501  0.5287  2.9417 -1.6111
  173SOPE   O3119602   1.332   5.641  10.449  0.1995  0.3974 -0.3010
  173SOPE   C3119603   1.302   5.631  10.323 -0.4263  0.0497  0.1733
  173SOPE   O3219604   1.184   5.615  10.285  0.7015 -0.3501  0.5054
  173SOPE   C3219605   1.433   5.641  10.242  0.1433 -0.5747  0.0538
  173SOPE   H2X19606   1.504   5.560  10.269  1.6627  0.5988 -0.2693
  173SOPE   H2Y19607   1.476   5.740  10.268 -0.0040 -1.0542  2.3503
  173SOPE   C2319608   1.224   5.267  10.272  0.6596  0.3130  0.0982
  173SOPE   H3R19609   1.318   5.298  10.322  0.2447  0.9732  0.4860
  173SOPE   H3S19610   1.196   5.367  10.232  0.5033 -0.8373 -2.9245
  173SOPE   C2419611   1.278   5.165  10.170 -0.3452  0.3023 -0.1353
  173SOPE   H4R19612   1.374   5.212  10.138 -0.0346  0.1885  0.6119
  173SOPE   H4S19613   1.285   5.066  10.219 -3.0342  0.2289  0.2285
  173SOPE   C2519614   1.193   5.159  10.040  0.3216 -1.1060  0.1599
  173SOPE   H5R19615   1.099   5.112  10.075 -0.5806  0.4750 -0.0542
  173SOPE   H5S19616   1.173   5.264  10.010 -0.5485 -1.0095  1.0109
  173SOPE   C2619617   1.243   5.080   9.921  0.7043  0.8399 -0.2584
  173SOPE   H6R19618   1.290   4.987   9.962 -0.5424  0.5020  0.4636
  173SOPE   H6S19619   1.165   5.057   9.846  0.4942 -0.1382  0.2337
  173SOPE   C2719620   1.349   5.154   9.838  0.5669  0.2625  0.4544
  173SOPE   H7R19621   1.298   5.211   9.757 -0.3420  0.7405  1.3407
  173SOPE   H7S19622   1.429   5.214   9.887  0.5611  1.2279 -0.6763
  173SOPE   C2819623   1.420   5.051   9.749  0.2314  0.2147  0.1564
  173SOPE   H8R19624   1.462   4.965   9.805 -3.2714 -2.2678 -0.6423
  173SOPE   H8S19625   1.339   5.002   9.690  1.0852 -0.2751 -0.6282
  173SOPE   C2919626   1.518   5.105   9.652  0.3658 -0.4173  0.0896
  173SOPE   H9119627   1.619   5.110   9.695  0.2173  1.8430  0.2960
  173SOPE  C21019628   1.502   5.125   9.523 -0.9704 -0.0330 -0.6906
  173SOPE  H10119629   1.589   5.152   9.462 -0.2055 -2.4238 -0.7593
  173SOPE  C21119630   1.376   5.133   9.438 -0.4270  0.4781 -0.4119
  173SOPE  H11R19631   1.357   5.238   9.408 -2.2998 -0.0355 -1.2020
  173SOPE  H11S19632   1.292   5.109   9.508  0.9788  0.2113  1.2466
  173SOPE  C21219633   1.367   5.045   9.318 -0.6377 -0.3050 -0.3324
  173SOPE  H12R19634   1.278   5.072   9.258 -1.0933  0.3436  0.5977
  173SOPE  H12S19635   1.370   4.942   9.360  1.6415  0.6938  2.2692
  173SOPE  C21319636   1.487   5.046   9.223 -0.2648 -0.1317 -0.2241
  173SOPE  H13R19637   1.488   4.955   9.159 -1.1320 -1.3134  1.3761
  173SOPE  H13S19638   1.576   5.024   9.287 -1.8683 -1.5499  1.6767
  173SOPE  C21419639   1.518   5.176   9.145  0.0589 -0.4417 -0.2758
  173SOPE  H14R19640   1.613   5.150   9.092 -0.6598  3.1711 -3.8596
  173SOPE  H14S19641   1.527   5.258   9.220 -0.2006  0.7389 -1.4990
  173SOPE  C21519642   1.402   5.210   9.047 -0.8140 -0.7321 -0.0804
  173SOPE  H15R19643   1.428   5.310   9.004 -1.8070 -0.1291  0.6914
  173SOPE  H15S19644   1.302   5.211   9.096 -0.6556 -1.3160  0.2551
  173SOPE  C21619645   1.384   5.106   8.928 -0.5276  0.1022 -0.1628
  173SOPE  H16R19646   1.373   5.007   8.977  1.0691 -0.8054 -1.5455
  173SOPE  H16S19647   1.478   5.101   8.870 -0.6560 -0.1474 -0.3520
  173SOPE  C21719648   1.276   5.142   8.829  0.7638 -0.4427  0.5792
  173SOPE  H17R19649   1.285   5.253   8.829  0.5741 -0.3969  2.2001
  173SOPE  H17S19650   1.175   5.108   8.859 -0.0433 -1.0964 -2.5293
  173SOPE  C21819651   1.296   5.094   8.685  0.9796 -0.6927 -0.1504
  173SOPE  H18R19652   1.222   5.134   8.613 -0.2521 -0.8574  0.9698
  173SOPE  H18S19653   1.288   4.984   8.677  1.9770 -0.7451 -0.4978
  173SOPE  H18T19654   1.398   5.113   8.647  1.2129 -1.2767  0.1685
  173SOPE   C3319655   1.392   5.636  10.088 -0.5712 -0.2129  0.1360
  173SOPE   H3X19656   1.315   5.714  10.076  0.7675  1.0612 -0.5549
  173SOPE   H3Y19657   1.352   5.541  10.047  2.1211 -0.3686 -2.4356
  173SOPE   C3419658   1.506   5.692  10.000  0.0592  0.7580 -0.6489
  173SOPE   H4X19659   1.592   5.628  10.028  0.4227  0.2682 -2.6699
  173SOPE   H4Y19660   1.515   5.800  10.023 -0.2724  0.7627 -0.5345
  173SOPE   C3519661   1.482   5.654   9.856  0.0275  0.4780  0.7383
  173SOPE   H5X19662   1.445   5.750   9.815  0.3496 -0.1560 -1.1341
  173SOPE   H5Y19663   1.414   5.569   9.834  2.3301 -1.3021  0.0102
  173SOPE   C3619664   1.617   5.604   9.786 -0.0049 -0.1243 -0.3651
  173SOPE   H6X19665   1.638   5.501   9.822  1.0547 -0.2030 -1.1706
  173SOPE   H6Y19666   1.702   5.665   9.822  0.2673 -0.6932 -0.0345
  173SOPE   C3719667   1.615   5.614   9.633 -0.8184  0.2085 -0.9477
  173SOPE   H7X19668   1.718   5.594   9.596 -1.2035 -2.1807 -0.8745
  173SOPE   H7Y19669   1.597   5.721   9.612 -0.8677  0.2053 -0.9180
  173SOPE   C3819670   1.511   5.519   9.573 -0.4592  0.2614  0.2255
  173SOPE   H8X19671   1.413   5.567   9.595  0.9252  3.1461  0.4431
  173SOPE   H8Y19672   1.507   5.427   9.637 -3.6746 -0.1268 -0.3227
  173SOPE   C3919673   1.525   5.499   9.424  0.5837  0.2248  0.0020
  173SOPE   H9X19674   1.435   5.446   9.384  1.3196  0.2206 -1.7574
  173SOPE   H9Y19675   1.617   5.439   9.407 -0.6587 -0.9816 -3.2671
  173SOPE  C31019676   1.526   5.622   9.333 -0.3572 -0.2248 -0.1738
  173SOPE  H10X19677   1.611   5.683   9.371 -0.4996 -1.6476  2.7226
  173SOPE  H10Y19678   1.432   5.672   9.366 -1.8830 -3.3186  0.5213
  173SOPE  C31119679   1.528   5.595   9.185  0.5315  0.0857 -0.2369
  173SOPE  H11X19680   1.458   5.517   9.148 -1.3279 -0.4779  3.8933
  173SOPE  H11Y19681   1.631   5.560   9.166  2.3095  2.7624  3.2607
  173SOPE  C31219682   1.513   5.724   9.095 -0.4864 -0.3111 -0.1394
  173SOPE  H12X19683   1.576   5.809   9.129 -1.8919  0.0567  1.7714
  173SOPE  H12Y19684   1.405   5.749   9.089 -0.2248  0.6660 -0.9292
  173SOPE  C31319685   1.566   5.707   8.952  0.2575  0.4447 -0.3730
  173SOPE  H13X19686   1.677   5.715   8.943  0.2202  0.5736 -0.7316
  173SOPE  H13Y19687   1.526   5.794   8.897 -0.0647  2.0339  2.2009
  173SOPE  C31419688   1.508   5.579   8.877 -0.1453 -0.5842  0.8379
  173SOPE  H14X19689   1.403   5.577   8.912 -0.6046 -2.6902 -0.4553
  173SOPE  H14Y19690   1.550   5.488   8.926 -1.8407 -1.0910  1.4197
  173SOPE  C31519691   1.517   5.570   8.721 -0.3937 -0.3081  0.4666
  173SOPE  H15X19692   1.545   5.669   8.678 -0.3541 -0.4365  0.1943
  173SOPE  H15Y19693   1.412   5.547   8.695 -1.4332  2.2264  1.9783
  173SOPE  C31619694   1.619   5.468   8.676 -0.8122 -0.2987 -0.4383
  173SOPE  H16X19695   1.593   5.384   8.743 -2.2215 -0.4371 -1.1097
  173SOPE  H16Y19696   1.721   5.503   8.703 -1.1611  0.9968 -0.7216
  173SOPE  C31719697   1.612   5.432   8.532  0.4330 -0.2812 -0.1749
  173SOPE  H17X19698   1.689   5.359   8.499  0.1611 -1.2053  1.1627
  173SOPE  H17Y19699   1.636   5.531   8.486 -0.7095  1.2028  2.2064
  173SOPE  C31819700   1.479   5.386   8.471  0.0506 -0.0536 -0.7655
  173SOPE  H18X19701   1.481   5.369   8.361  1.8389  2.4490 -1.1891
  173SOPE  H18Y19702   1.405   5.469   8.473 -0.0733 -0.1732  0.4423
  173SOPE  H18Z19703   1.432   5.304   8.530  3.2747 -0.7572  1.0734
  174SOPE     N19704   6.085   4.004  10.792  0.3848 -0.2869 -0.4212
  174SOPE   HN119705   6.142   3.937  10.737  2.0251  2.8893 -2.9507
  174SOPE   HN219706   6.140   4.015  10.880 -0.2552  0.0173 -0.0536
  174SOPE   HN319707   5.996   3.956  10.815  0.1665 -0.5262 -1.6983
  174SOPE   C1219708   6.065   4.140  10.720  0.7643  0.2717 -0.2693
  174SOPE  H12A19709   6.032   4.212  10.798 -0.5864  0.4629 -0.9953
  174SOPE  H12B19710   5.982   4.135  10.647 -0.0092  1.3042  0.5056
  174SOPE   C1119711   6.178   4.188  10.635 -0.3681 -0.6924  0.0648
  174SOPE  H11A19712   6.139   4.229  10.539 -0.3565 -4.0082 -1.4962
  174SOPE  H11B19713   6.244   4.108  10.595  0.2817 -1.4194  2.4592
  174SOPE     P19714   6.220   4.439  10.683 -0.1921  0.1737 -0.7563
  174SOPE   O1319715   6.316   4.518  10.762  0.3745 -0.7370 -0.4511
  174SOPE   O1419716   6.072   4.444  10.709 -0.0626 -0.1294  0.0995
  174SOPE   O1219717   6.255   4.285  10.707 -0.5728 -0.7126 -0.1970
  174SOPE   O1119718   6.242   4.462  10.533 -0.1147 -0.4310 -0.1150
  174SOPE    C119719   6.350   4.400  10.459  0.2799  0.1275 -0.2707
  174SOPE    HA19720   6.344   4.289  10.449  1.6863 -0.0959  1.0331
  174SOPE    HB19721   6.449   4.429  10.500  0.8301  2.1849 -2.7633
  174SOPE    C219722   6.367   4.450  10.314 -0.3464 -0.3748  0.2990
  174SOPE    HS19723   6.335   4.556  10.312 -0.5982 -0.3575  2.5297
  174SOPE   O2119724   6.269   4.379  10.234  0.5218  0.6093 -0.4654
  174SOPE   C2119725   6.216   4.448  10.136 -0.4976 -0.0942 -0.6244
  174SOPE   O2219726   6.246   4.566  10.106  0.1512 -0.1729  0.4085
  174SOPE   C2219727   6.118   4.360  10.068 -0.3627 -0.1548 -0.0958
  174SOPE   H2R19728   6.014   4.381  10.102 -0.2523  1.1765 -0.5499
  174SOPE   H2S19729   6.140   4.251  10.076  0.2502 -0.0558 -0.4011
  174SOPE    C319730   6.517   4.428  10.267  0.4451 -0.3519 -0.0551
  174SOPE    HX19731   6.541   4.320  10.282 -0.6971 -0.6062  0.0280
  174SOPE    HY19732   6.585   4.478  10.339  1.2659 -0.5331 -0.6824
  174SOPE   O3119733   6.539   4.459  10.129 -0.1236 -0.1963  0.0808
  174SOPE   C3119734   6.553   4.593  10.110  0.2558  0.3023  0.3949
  174SOPE   O3219735   6.578   4.672  10.196  0.4700  0.1888  0.2889
  174SOPE   C3219736   6.548   4.626   9.964  0.1743  0.4304  0.3053
  174SOPE   H2X19737   6.457   4.586   9.914  1.3536  1.9855 -3.4439
  174SOPE   H2Y19738   6.637   4.566   9.933 -0.4893 -1.3077  1.6248
  174SOPE   C2319739   6.116   4.396   9.919  0.3339  0.3870 -0.2527
  174SOPE   H3R19740   6.104   4.506   9.906  1.7177  0.7890  1.5382
  174SOPE   H3S19741   6.034   4.345   9.864 -2.6429  2.3898  2.0533
  174SOPE   C2419742   6.244   4.347   9.854  0.6651 -0.3173 -0.8231
  174SOPE   H4R19743   6.331   4.380   9.914 -1.2301  1.5487  1.0760
  174SOPE   H4S19744   6.259   4.238   9.847  0.5709 -0.6178  2.3380
  174SOPE   C2519745   6.262   4.420   9.719 -0.1375 -0.7142 -0.0477
  174SOPE   H5R19746   6.194   4.369   9.648 -0.2868 -0.5163 -0.0490
  174SOPE   H5S19747   6.226   4.525   9.727  2.4073  0.2215 -0.0000
  174SOPE   C2619748   6.402   4.425   9.662  0.1252 -0.6894  0.3858
  174SOPE   H6R19749   6.474   4.475   9.730  0.4979  0.7869 -1.0369
  174SOPE   H6S19750   6.437   4.319   9.660 -0.0138 -0.7337  0.3058
  174SOPE   C2719751   6.408   4.490   9.524  0.3770  0.1197 -0.0218
  174SOPE   H7R19752   6.352   4.438   9.444  2.8230 -0.7883 -1.2477
  174SOPE   H7S19753   6.380   4.595   9.547 -0.4867  0.1460 -1.1132
  174SOPE   C2819754   6.562   4.488   9.475  0.0177  0.7977  0.7042
  174SOPE   H8R19755   6.608   4.560   9.545 -0.4880  1.0216  0.8098
  174SOPE   H8S19756   6.600   4.385   9.496  0.7503  1.1000  0.8951
  174SOPE   C2919757   6.585   4.527   9.329 -0.2233 -1.0070  0.0497
  174SOPE   H9119758   6.529   4.618   9.303 -0.7283 -1.2669  0.2187
  174SOPE  C21019759   6.632   4.452   9.228  0.7636  0.8849  0.2924
  174SOPE  H10119760   6.628   4.494   9.127  0.8593 -1.3445 -0.7034
  174SOPE  C21119761   6.681   4.307   9.232  0.2547  0.3130 -0.1375
  174SOPE  H11R19762   6.626   4.250   9.154 -0.3942  0.4056  0.2471
  174SOPE  H11S19763   6.663   4.273   9.336 -2.2980  0.6190 -0.4278
  174SOPE  C21219764   6.834   4.302   9.212 -0.4959 -0.8635  0.1520
  174SOPE  H12R19765   6.864   4.211   9.270 -1.7135 -0.6926  1.1009
  174SOPE  H12S19766   6.880   4.389   9.263  1.3359  0.0439 -2.8260
  174SOPE  C21319767   6.899   4.295   9.069 -0.0847 -0.2925  0.4382
  174SOPE  H13R19768   6.900   4.395   9.022  0.0918 -1.1702 -1.5437
  174SOPE  H13S19769   6.841   4.235   8.995  0.8806  2.0445 -2.4227
  174SOPE  C21419770   7.039   4.236   9.084 -0.0085 -0.3112 -0.1578
  174SOPE  H14R19771   7.033   4.134   9.125  2.0508  0.0696  1.1999
  174SOPE  H14S19772   7.096   4.296   9.158  0.5217 -0.1635 -0.6796
  174SOPE  C21519773   7.133   4.246   8.961  0.3025  0.2038  0.0969
  174SOPE  H15R19774   7.229   4.203   8.999  0.4139  0.8209  0.5319
  174SOPE  H15S19775   7.153   4.349   8.925 -1.6481  0.4361 -0.4419
  174SOPE  C21619776   7.084   4.166   8.834 -0.6927 -0.0733 -0.0962
  174SOPE  H16R19777   6.980   4.202   8.826 -1.1405 -0.5746  2.5782
  174SOPE  H16S19778   7.065   4.058   8.855 -1.0063  0.0051  0.0277
  174SOPE  C21719779   7.170   4.178   8.707 -0.0746  0.2537  0.6129
  174SOPE  H17R19780   7.262   4.126   8.741  0.1335 -2.2916 -3.2460
  174SOPE  H17S19781   7.187   4.287   8.691 -2.3073  0.7451  1.2169
  174SOPE  C21819782   7.137   4.095   8.576 -0.5845 -0.2645  0.5142
  174SOPE  H18R19783   7.132   3.985   8.591 -0.1698 -0.6002 -1.5819
  174SOPE  H18S19784   7.221   4.109   8.505  0.2426 -2.4706  0.9630
  174SOPE  H18T19785   7.044   4.131   8.527 -0.8252 -1.0354  0.3960
  174SOPE   C3319786   6.560   4.772   9.934  0.0062  0.0679 -0.0239
  174SOPE   H3X19787   6.579   4.769   9.825  0.7075 -1.0076  0.1152
  174SOPE   H3Y19788   6.647   4.825   9.978 -0.9200  1.1018  0.6140
  174SOPE   C3419789   6.424   4.851   9.947 -0.4489 -0.0496 -0.1764
  174SOPE   H4X19790   6.395   4.851  10.054 -1.1604 -0.9196 -0.3572
  174SOPE   H4Y19791   6.351   4.789   9.890 -0.0572  0.1179 -0.8589
  174SOPE   C3519792   6.431   4.995   9.891 -0.5207 -0.1082  0.0860
  174SOPE   H5X19793   6.524   5.045   9.926  0.1794 -1.9342  0.9952
  174SOPE   H5Y19794   6.346   5.051   9.936  0.1360  0.2389  0.9188
  174SOPE   C3619795   6.409   4.995   9.742  0.5429  0.0112  0.7384
  174SOPE   H6X19796   6.317   4.938   9.717 -0.6708  2.3709 -0.5156
  174SOPE   H6Y19797   6.498   4.951   9.694  0.3281  1.2749 -0.9176
  174SOPE   C3719798   6.396   5.138   9.693  0.0198  0.3203 -0.1352
  174SOPE   H7X19799   6.473   5.206   9.737 -1.8224  3.5536 -1.5278
  174SOPE   H7Y19800   6.298   5.170   9.735 -0.1360  2.0599 -1.7036
  174SOPE   C3819801   6.394   5.158   9.547  0.2875  0.0906 -0.3110
  174SOPE   H8X19802   6.364   5.265   9.541  2.3103  0.8656  1.8727
  174SOPE   H8Y19803   6.313   5.094   9.506 -1.6632  1.7452  0.7595
  174SOPE   C3919804   6.533   5.137   9.480 -0.3356 -0.1128  0.9088
  174SOPE   H9X19805   6.572   5.035   9.499 -0.2112 -0.4502 -0.9441
  174SOPE   H9Y19806   6.600   5.213   9.525 -2.7980  1.1066  2.7549
  174SOPE  C31019807   6.526   5.146   9.331  0.2669  0.2671 -0.0718
  174SOPE  H10X19808   6.626   5.132   9.286  0.2638  0.0728 -0.0180
  174SOPE  H10Y19809   6.491   5.248   9.305  0.1054 -0.0327 -1.0423
  174SOPE  C31119810   6.440   5.043   9.267 -0.4122 -0.1893  0.0396
  174SOPE  H11X19811   6.342   5.037   9.319 -1.3840 -0.6461 -1.7489
  174SOPE  H11Y19812   6.484   4.942   9.261  0.9803  0.1484  2.9701
  174SOPE  C31219813   6.402   5.065   9.118  0.2892  0.9303 -0.5061
  174SOPE  H12X19814   6.366   5.170   9.105 -0.8089  0.5145 -0.8962
  174SOPE  H12Y19815   6.315   5.002   9.090  0.2441  1.0631 -0.6704
  174SOPE  C31319816   6.515   5.037   9.020  0.1504  0.2231  0.1126
  174SOPE  H13X19817   6.536   4.928   9.012  0.2076  0.3244 -1.4269
  174SOPE  H13Y19818   6.605   5.098   9.040  0.6424 -0.0635 -1.1145
  174SOPE  C31419819   6.487   5.092   8.878  0.0888 -0.0610 -0.4931
  174SOPE  H14X19820   6.475   5.202   8.886  1.3866  0.1508 -1.0948
  174SOPE  H14Y19821   6.393   5.042   8.846  0.0866 -1.8178  1.9478
  174SOPE  C31519822   6.599   5.063   8.775  0.4475 -0.5412 -0.0026
  174SOPE  H15X19823   6.607   4.952   8.774  0.0674 -0.5611 -1.1622
  174SOPE  H15Y19824   6.700   5.101   8.802 -0.6343  2.2077  0.5324
  174SOPE  C31619825   6.560   5.116   8.634  0.0851 -0.2110 -0.7315
  174SOPE  H16X19826   6.518   5.219   8.639  0.6047 -0.0535  1.2478
  174SOPE  H16Y19827   6.479   5.048   8.601 -1.4162  0.4109  1.4160
  174SOPE  C31719828   6.680   5.118   8.533  0.3033  0.2006 -0.2186
  174SOPE  H17X19829   6.700   5.011   8.511 -3.8075 -0.7728 -0.0411
  174SOPE  H17Y19830   6.768   5.175   8.570 -1.2576  3.2635 -0.8512
  174SOPE  C31819831   6.629   5.186   8.402  0.6115  0.3400  0.0562
  174SOPE  H18X19832   6.602   5.292   8.425  0.7739  0.1600  1.1343
  174SOPE  H18Y19833   6.545   5.128   8.359 -0.4756  2.1666 -0.4113
  174SOPE  H18Z19834   6.716   5.197   8.334  1.1134 -0.3833  0.5699
  175SOPE     N19835   1.229   0.836  10.575  0.9919 -0.5674  0.0899
  175SOPE   HN119836   1.184   0.855  10.666 -1.9342  1.1042 -1.5268
  175SOPE   HN219837   1.150   0.824  10.508  0.4227 -0.7482  0.7858
  175SOPE   HN319838   1.284   0.749  10.587  2.5037  0.3096 -0.1677
  175SOPE   C1219839   1.315   0.952  10.538  0.4250  0.2188 -0.0929
  175SOPE  H12A19840   1.242   1.036  10.529  1.3900  1.4284  2.3951
  175SOPE  H12B19841   1.347   0.935  10.433  0.6031 -1.6737  0.2365
  175SOPE   C1119842   1.435   0.977  10.624 -0.8299  0.0662  0.5728
  175SOPE  H11A19843   1.395   1.002  10.725 -0.6594 -0.1760  0.7013
  175SOPE  H11B19844   1.488   1.072  10.606 -1.5458  0.1501 -1.2732
  175SOPE     P19845   1.669   0.855  10.588  0.0609  0.2760 -0.1816
  175SOPE   O1319846   1.737   0.734  10.639 -0.2563 -0.5097  0.6685
  175SOPE   O1419847   1.733   0.984  10.628  0.2591  0.1098  0.3299
  175SOPE   O1219848   1.516   0.858  10.625  0.4898  0.8141 -0.3484
  175SOPE   O1119849   1.662   0.837  10.426 -0.0386  0.1764  0.0112
  175SOPE    C119850   1.618   0.718  10.361 -0.2085 -0.2272  0.9167
  175SOPE    HA19851   1.521   0.690  10.407  0.3247 -2.9185  0.5914
  175SOPE    HB19852   1.694   0.637  10.374  0.4077  0.4096  1.3486
  175SOPE    C219853   1.585   0.737  10.213  0.0012  0.5226 -0.1104
  175SOPE    HS19854   1.516   0.656  10.183  0.9184  0.2806 -1.6943
  175SOPE   O2119855   1.706   0.723  10.132 -0.2472 -0.1142 -0.0263
  175SOPE   C2119856   1.693   0.653  10.019  0.4446 -0.4806 -0.8637
  175SOPE   O2219857   1.588   0.607   9.977  0.1365  0.1047 -0.1961
  175SOPE   C2219858   1.831   0.639   9.961 -0.3373  0.1213 -0.1475
  175SOPE   H2R19859   1.880   0.578  10.040 -0.6113 -1.9377 -1.5120
  175SOPE   H2S19860   1.879   0.738   9.946 -0.5305 -0.0879 -2.4816
  175SOPE    C319861   1.512   0.872  10.188 -0.4083 -0.1861 -0.5182
  175SOPE    HX19862   1.585   0.952  10.208  1.1566 -1.8327  0.6721
  175SOPE    HY19863   1.417   0.888  10.244 -2.1767 -1.6664 -2.8505
  175SOPE   O3119864   1.494   0.877  10.043 -0.0856  0.1613 -0.5126
  175SOPE   C3119865   1.376   0.840  10.003  0.6551  0.0118  0.1072
  175SOPE   O3219866   1.287   0.800  10.078  0.0240  0.1375 -1.0057
  175SOPE   C3219867   1.365   0.841   9.851 -0.5055 -0.3507  0.5682
  175SOPE   H2X19868   1.263   0.820   9.814 -0.7028  0.3461  0.6950
  175SOPE   H2Y19869   1.444   0.773   9.812 -0.3946 -0.8412  1.6235
  175SOPE   C2319870   1.815   0.568   9.834  0.1831  0.0794  0.2442
  175SOPE   H3R19871   1.759   0.632   9.762 -0.4604 -0.3053  0.3918
  175SOPE   H3S19872   1.756   0.474   9.847  1.0856 -0.4730  0.4408
  175SOPE   C2419873   1.948   0.528   9.779  0.4561 -0.2214 -0.2383
  175SOPE   H4R19874   2.001   0.465   9.852  0.7793  1.3675  0.9461
  175SOPE   H4S19875   1.937   0.465   9.688 -2.7304  1.3065 -1.0665
  175SOPE   C2519876   2.031   0.648   9.723  0.2880 -0.5548 -0.4520
  175SOPE   H5R19877   1.981   0.687   9.631 -2.8000 -1.8856  0.5274
  175SOPE   H5S19878   2.026   0.728   9.799 -2.0998 -0.2536 -0.8390
  175SOPE   C2619879   2.181   0.607   9.712  1.1898 -0.5169  0.1695
  175SOPE   H6R19880   2.203   0.533   9.792  0.4595 -0.8485  0.0685
  175SOPE   H6S19881   2.206   0.563   9.613 -0.0680 -1.1184  0.0992
  175SOPE   C2719882   2.274   0.725   9.735 -0.2665  0.3204 -0.4359
  175SOPE   H7R19883   2.271   0.797   9.651  1.1329  0.9502  0.0283
  175SOPE   H7S19884   2.238   0.783   9.822  0.4835 -0.9798  0.7904
  175SOPE   C2819885   2.421   0.675   9.764 -0.2118 -0.1760  0.1547
  175SOPE   H8R19886   2.496   0.754   9.784 -0.1250  0.0412 -0.9670
  175SOPE   H8S19887   2.434   0.618   9.858  0.2821  1.7174  1.2819
  175SOPE   C2919888   2.467   0.580   9.654  0.0501 -0.4277 -1.1375
  175SOPE   H9119889   2.407   0.487   9.659 -2.9289  1.3875  1.2344
  175SOPE  C21019890   2.571   0.595   9.568  0.0613  0.1845 -0.4224
  175SOPE  H10119891   2.585   0.513   9.496  2.0588 -0.1803  0.3204
  175SOPE  C21119892   2.667   0.707   9.551  0.3455 -0.5935 -0.0738
  175SOPE  H11R19893   2.765   0.663   9.522 -0.0988  0.4118 -3.5436
  175SOPE  H11S19894   2.690   0.762   9.645  1.2137 -0.8083 -0.1493
  175SOPE  C21219895   2.627   0.816   9.440  0.2755  0.0147 -0.2708
  175SOPE  H12R19896   2.703   0.896   9.438  1.2615 -0.9021 -0.5448
  175SOPE  H12S19897   2.533   0.873   9.460  1.0485  1.1262  0.2529
  175SOPE  C21319898   2.621   0.759   9.296  0.0992 -0.6163  0.7187
  175SOPE  H13R19899   2.582   0.835   9.225 -1.5940 -1.9222  0.1788
  175SOPE  H13S19900   2.538   0.686   9.288  0.2775 -0.5758 -2.4421
  175SOPE  C21419901   2.737   0.675   9.245 -0.2731  0.2822 -0.7399
  175SOPE  H14R19902   2.725   0.567   9.266 -2.3555  0.2242 -1.9807
  175SOPE  H14S19903   2.817   0.721   9.307  0.3989 -0.8509 -0.7544
  175SOPE  C21519904   2.763   0.705   9.095 -0.2040 -0.4135  0.1323
  175SOPE  H15R19905   2.874   0.707   9.089 -0.2455  0.7667 -0.5224
  175SOPE  H15S19906   2.732   0.810   9.078  1.1596  0.0708  0.5538
  175SOPE  C21619907   2.706   0.598   8.999  0.0569 -0.0493 -0.1921
  175SOPE  H16R19908   2.595   0.607   9.005  0.1862  1.6979 -0.1183
  175SOPE  H16S19909   2.735   0.496   9.033  1.5145  0.1040 -0.9102
  175SOPE  C21719910   2.730   0.614   8.853  0.5232  0.1900  0.1465
  175SOPE  H17R19911   2.827   0.567   8.827 -1.3717 -3.4582 -0.8815
  175SOPE  H17S19912   2.727   0.723   8.833  1.0613  0.0843 -0.5506
  175SOPE  C21819913   2.620   0.546   8.765  0.1279  0.7112  0.3109
  175SOPE  H18R19914   2.523   0.600   8.767 -1.9923 -2.8378  1.8346
  175SOPE  H18S19915   2.596   0.443   8.798  0.0558  0.5433 -0.2579
  175SOPE  H18T19916   2.648   0.547   8.658  1.5926  1.3469  0.6703
  175SOPE   C3319917   1.394   0.976   9.788  0.4413 -0.7186  0.0476
  175SOPE   H3X19918   1.498   1.011   9.806 -0.7253  2.4240  1.3109
  175SOPE   H3Y19919   1.321   1.053   9.821  0.6218  0.3120 -1.8245
  175SOPE   C3419920   1.362   0.969   9.632 -0.7697 -0.1616  0.0620
  175SOPE   H4X19921   1.370   1.079   9.613 -2.5746  0.1536  0.8486
  175SOPE   H4Y19922   1.255   0.939   9.622 -0.6920 -1.0181  1.5478
  175SOPE   C3519923   1.452   0.878   9.546  0.5450 -0.0934 -0.0135
  175SOPE   H5X19924   1.405   0.777   9.553 -0.6781  0.5322  1.1794
  175SOPE   H5Y19925   1.555   0.863   9.586 -0.1600 -1.1448  1.5138
  175SOPE   C3619926   1.458   0.927   9.399 -0.0820  0.3375  0.5393
  175SOPE   H6X19927   1.520   1.019   9.405  1.2195 -0.4207 -0.5717
  175SOPE   H6Y19928   1.353   0.945   9.366 -0.3956 -0.3541  1.1281
  175SOPE   C3719929   1.537   0.832   9.305 -0.5425  0.6109  0.3728
  175SOPE   H7X19930   1.487   0.732   9.300  1.3468 -0.3244 -0.8887
  175SOPE   H7Y19931   1.639   0.804   9.339 -0.5386 -0.2919 -0.3292
  175SOPE   C3819932   1.558   0.886   9.161 -0.1773 -0.2260  0.1919
  175SOPE   H8X19933   1.605   0.987   9.161 -2.8057  1.0809 -0.1797
  175SOPE   H8Y19934   1.466   0.898   9.100  1.1695 -1.9614 -2.3301
  175SOPE   C3919935   1.658   0.807   9.074  0.3283  0.6808 -0.3906
  175SOPE   H9X19936   1.746   0.794   9.141  0.3614  1.7858 -0.2024
  175SOPE   H9Y19937   1.674   0.877   8.989 -2.8290  0.5383 -1.2462
  175SOPE  C31019938   1.601   0.671   9.040 -0.0967  0.4615  0.9300
  175SOPE  H10X19939   1.514   0.695   8.975  0.8766 -0.8903 -0.9670
  175SOPE  H10Y19940   1.558   0.628   9.133 -3.5511  1.2291 -0.1607
  175SOPE  C31119941   1.692   0.576   8.968  0.3332  1.5889 -0.0350
  175SOPE  H11X19942   1.640   0.492   8.915  2.3313 -0.0509  0.4793
  175SOPE  H11Y19943   1.749   0.519   9.044  0.2724  1.0031 -0.4141
  175SOPE  C31219944   1.787   0.642   8.864  0.0851 -0.3557 -0.0770
  175SOPE  H12X19945   1.854   0.712   8.918 -2.5967  2.9516 -0.6774
  175SOPE  H12Y19946   1.730   0.711   8.797 -0.1446  0.1214  0.5932
  175SOPE  C31319947   1.874   0.554   8.777  0.8192 -0.6573 -0.2595
  175SOPE  H13X19948   1.921   0.603   8.689  0.1738  0.3333 -0.0642
  175SOPE  H13Y19949   1.813   0.489   8.711 -0.1755  2.1004 -2.2617
  175SOPE  C31419950   1.989   0.492   8.854 -0.0441 -0.1715  0.0241
  175SOPE  H14X19951   1.948   0.434   8.939 -2.0763  0.3274 -0.5685
  175SOPE  H14Y19952   2.054   0.572   8.898  2.0511 -1.9403  0.3553
  175SOPE  C31519953   2.079   0.415   8.762  0.7834  0.3716  0.5902
  175SOPE  H15X19954   2.106   0.470   8.669  1.7314  0.3933  0.8623
  175SOPE  H15Y19955   2.025   0.328   8.721  0.7411  1.5275 -1.9838
  175SOPE  C31619956   2.201   0.364   8.835  0.0344 -0.7636  0.3106
  175SOPE  H16X19957   2.186   0.280   8.907  0.6675 -2.9318 -1.9616
  175SOPE  H16Y19958   2.255   0.451   8.879  2.8937 -1.7000 -1.0936
  175SOPE  C31719959   2.294   0.308   8.732 -0.6675  0.3920  0.0752
  175SOPE  H17X19960   2.397   0.322   8.772 -0.8530  0.1265  0.6523
  175SOPE  H17Y19961   2.281   0.374   8.644 -0.9067  0.7528  0.3808
  175SOPE  C31819962   2.273   0.158   8.702  0.5037 -0.2007 -0.0179
  175SOPE  H18X19963   2.279   0.093   8.792 -1.2368 -0.5348 -0.1241
  175SOPE  H18Y19964   2.357   0.120   8.639  1.9786 -1.6754  2.6680
  175SOPE  H18Z19965   2.180   0.141   8.644  0.3722  1.2376 -0.2775
  176SOPE     N19966   6.736   6.632  10.948  0.1338 -0.2127 -0.2630
  176SOPE   HN119967   6.657   6.591  11.002  0.6558 -1.1763 -0.2062
  176SOPE   HN219968   6.822   6.627  11.006  2.1205  0.7615 -2.9471
  176SOPE   HN319969   6.708   6.730  10.930 -2.0984 -0.6849  0.2435
  176SOPE   C1219970   6.753   6.561  10.820 -0.0516  0.3770 -0.2910
  176SOPE  H12A19971   6.653   6.565  10.773 -0.8968  1.2213  1.4740
  176SOPE  H12B19972   6.784   6.457  10.840 -2.9732 -0.3767  0.6906
  176SOPE   C1119973   6.857   6.640  10.735  0.2237  0.1234  0.1401
  176SOPE  H11A19974   6.813   6.737  10.703 -1.9627 -1.0597 -0.6524
  176SOPE  H11B19975   6.877   6.594  10.635  0.1628  0.7088 -0.1460
  176SOPE     P19976   7.092   6.562  10.817 -0.2645 -0.1452  0.3342
  176SOPE   O1319977   7.034   6.425  10.840 -0.5721  0.1437 -0.1567
  176SOPE   O1419978   7.190   6.614  10.917  0.3903  0.7581 -0.0296
  176SOPE   O1219979   6.976   6.669  10.806  0.3944  0.1075  0.0741
  176SOPE   O1119980   7.155   6.569  10.673  0.3238 -0.1207 -0.2317
  176SOPE    C119981   7.206   6.689  10.610  0.0705  0.3092 -0.0890
  176SOPE    HA19982   7.223   6.776  10.678 -1.1916  2.5819 -2.4989
  176SOPE    HB19983   7.129   6.730  10.542  0.2608  1.0773  0.1395
  176SOPE    C219984   7.337   6.660  10.525 -0.6980  0.0904  0.3648
  176SOPE    HS19985   7.372   6.760  10.491 -1.2344 -0.0934 -0.7678
  176SOPE   O2119986   7.311   6.574  10.411  1.2345 -0.3855 -0.5290
  176SOPE   C2119987   7.254   6.638  10.313 -0.4968  0.4009 -0.6040
  176SOPE   O2219988   7.218   6.751  10.318  0.0352 -0.3574  1.0494
  176SOPE   C2219989   7.269   6.552  10.189  0.1472 -0.1355  0.0247
  176SOPE   H2R19990   7.354   6.579  10.122 -0.8360 -1.4960 -1.8800
  176SOPE   H2S19991   7.168   6.561  10.144  0.1154  0.8871  0.2839
  176SOPE    C319992   7.445   6.596  10.613 -0.1705 -0.4141 -0.0809
  176SOPE    HX19993   7.427   6.489  10.638  1.3000 -0.7452 -0.3313
  176SOPE    HY19994   7.441   6.647  10.712  1.4666 -0.1659 -0.1122
  176SOPE   O3119995   7.580   6.615  10.557  0.1230 -0.6647 -0.2697
  176SOPE   C3119996   7.672   6.540  10.605  0.4974  0.0522 -0.1414
  176SOPE   O3219997   7.667   6.460  10.697  0.2756  0.0170 -0.0415
  176SOPE   C3219998   7.805   6.563  10.532  0.5916  0.3306  0.1858
  176SOPE   H2X19999   7.894   6.512  10.573  2.1925  0.3186 -3.0238
  176SOPE   H2Y20000   7.823   6.671  10.551 -1.9021  0.8464  0.0315
  176SOPE   C2320001   7.288   6.401  10.224 -0.2836  0.7012 -0.1119
  176SOPE   H3R20002   7.259   6.347  10.131 -1.3423 -2.0879  1.6978
  176SOPE   H3S20003   7.224   6.375  10.312  2.3840  0.6771  1.9293
  176SOPE   C2420004   7.432   6.345  10.256  0.5854 -0.1298 -0.0061
  176SOPE   H4R20005   7.453   6.389  10.356  0.3639  2.0549 -0.8456
  176SOPE   H4S20006   7.423   6.235  10.265  2.6193 -0.3090  0.2818
  176SOPE   C2520007   7.553   6.378  10.171  0.4514 -0.6472 -0.5433
  176SOPE   H5R20008   7.576   6.486  10.159  1.3142 -0.7346  0.2016
  176SOPE   H5S20009   7.638   6.326  10.220  0.9581 -0.7455 -1.4933
  176SOPE   C2620010   7.543   6.319  10.032 -0.0171 -0.1266  0.0459
  176SOPE   H6R20011   7.538   6.208  10.042 -2.0115 -0.0847 -0.0602
  176SOPE   H6S20012   7.450   6.350   9.980  0.7517  1.4761 -0.4447
  176SOPE   C2720013   7.659   6.365   9.944 -0.0692  0.5903  0.3672
  176SOPE   H7R20014   7.699   6.459   9.988  2.4196  0.2488 -1.0035
  176SOPE   H7S20015   7.731   6.284   9.922 -1.7909 -0.2537 -2.7177
  176SOPE   C2820016   7.610   6.404   9.799 -0.3817  0.7531  0.8626
  176SOPE   H8R20017   7.570   6.314   9.748  0.3305  0.2394  1.1876
  176SOPE   H8S20018   7.529   6.480   9.804  0.5385  1.9725 -1.3053
  176SOPE   C2920019   7.722   6.471   9.725 -0.6633 -0.1558 -0.1701
  176SOPE   H9120020   7.773   6.543   9.790  0.2312 -1.7125  0.9185
  176SOPE  C21020021   7.765   6.440   9.600  0.0597 -0.1217 -0.1240
  176SOPE  H10120022   7.855   6.494   9.566 -0.1830  0.3885  0.0283
  176SOPE  C21120023   7.708   6.337   9.503 -0.2633 -0.5022  0.0830
  176SOPE  H11R20024   7.626   6.280   9.551  0.3613  0.7999  2.9279
  176SOPE  H11S20025   7.782   6.260   9.472 -1.1785 -0.9590 -1.0280
  176SOPE  C21220026   7.661   6.398   9.364 -0.6359 -0.4544 -0.6827
  176SOPE  H12R20027   7.744   6.441   9.305 -0.3490  1.1024  0.7663
  176SOPE  H12S20028   7.583   6.476   9.375 -0.1211  0.0674 -0.6655
  176SOPE  C21320029   7.604   6.279   9.285 -0.5322 -0.0695  0.2247
  176SOPE  H13R20030   7.510   6.238   9.327 -0.1527 -2.5898 -1.2053
  176SOPE  H13S20031   7.674   6.194   9.274 -0.9575 -0.2573 -1.1880
  176SOPE  C21420032   7.555   6.324   9.137  0.6298 -1.0668  0.2354
  176SOPE  H14R20033   7.637   6.357   9.070  0.0111 -1.1886 -0.5913
  176SOPE  H14S20034   7.494   6.412   9.166  1.5603 -0.1852 -0.4261
  176SOPE  C21520035   7.476   6.217   9.057 -0.4353 -0.2819  0.2246
  176SOPE  H15R20036   7.399   6.167   9.119 -1.1698  1.3773  0.7098
  176SOPE  H15S20037   7.543   6.136   9.020 -0.8192 -0.0274 -1.0990
  176SOPE  C21620038   7.407   6.267   8.929 -0.5064 -0.5562  0.1988
  176SOPE  H16R20039   7.485   6.308   8.862  0.2380  0.6109  1.7118
  176SOPE  H16S20040   7.361   6.366   8.949 -0.1301 -0.6629  1.7208
  176SOPE  C21720041   7.333   6.164   8.852 -0.1521  0.5727 -0.5064
  176SOPE  H17R20042   7.255   6.144   8.928  1.1400  0.5598  0.8670
  176SOPE  H17S20043   7.398   6.075   8.837 -0.0471  0.8830 -2.0942
  176SOPE  C21820044   7.280   6.214   8.721 -0.0888  0.7140 -0.5883
  176SOPE  H18R20045   7.271   6.132   8.646  2.3830  0.7229 -1.0042
  176SOPE  H18S20046   7.336   6.299   8.676 -0.4627  0.2494 -1.9864
  176SOPE  H18T20047   7.174   6.245   8.728  0.0081  0.9008  0.1801
  176SOPE   C3320048   7.789   6.550  10.377  0.0212 -0.5333 -0.2905
  176SOPE   H3X20049   7.687   6.585  10.349 -0.0892 -1.1878 -0.7299
  176SOPE   H3Y20050   7.796   6.444  10.345  1.9168 -0.8680  1.0404
  176SOPE   C3420051   7.898   6.624  10.295  0.2532  0.4305 -0.5335
  176SOPE   H4X20052   7.994   6.583  10.332  0.8429  2.6830  0.6079
  176SOPE   H4Y20053   7.905   6.731  10.324 -1.8671  0.0982  1.4836
  176SOPE   C3520054   7.909   6.605  10.141  0.4735 -0.1295 -0.6365
  176SOPE   H5X20055   7.809   6.638  10.106  0.3359  0.4932  0.3043
  176SOPE   H5Y20056   7.920   6.503  10.097  3.9878  0.4702 -1.4388
  176SOPE   C3620057   8.009   6.703  10.088  0.3324 -0.4884  0.2099
  176SOPE   H6X20058   8.110   6.675  10.125  0.2052 -1.4652 -0.1454
  176SOPE   H6Y20059   7.987   6.803  10.132  0.3647 -1.2038  1.9396
  176SOPE   C3720060   7.996   6.709   9.936 -0.1466  0.1732  0.6896
  176SOPE   H7X20061   7.890   6.711   9.903  0.4720  1.1475 -1.3471
  176SOPE   H7Y20062   8.042   6.622   9.885 -1.2638  0.9931 -1.8472
  176SOPE   C3820063   8.054   6.838   9.872 -0.4390 -0.2036 -0.0231
  176SOPE   H8X20064   8.163   6.845   9.891 -0.6979  0.1841  1.4953
  176SOPE   H8Y20065   8.008   6.917   9.935 -0.2738 -1.3824  1.6504
  176SOPE   C3920066   8.034   6.850   9.719 -0.0946  0.0067  0.1134
  176SOPE   H9X20067   8.071   6.759   9.667  0.3688 -0.4966  1.2720
  176SOPE   H9Y20068   8.095   6.940   9.695 -1.1089  0.7282  0.1932
  176SOPE  C31020069   7.886   6.886   9.672  0.7982 -0.0883  0.9716
  176SOPE  H10X20070   7.871   6.982   9.726  1.6107  1.5294 -1.4834
  176SOPE  H10Y20071   7.811   6.814   9.710  0.9436 -0.9521 -0.3090
  176SOPE  C31120072   7.869   6.919   9.520  0.3470 -0.6578 -0.0163
  176SOPE  H11X20073   7.950   6.982   9.476 -0.7722  0.4529 -0.5555
  176SOPE  H11Y20074   7.779   6.980   9.496 -0.9138 -2.2448  0.5202
  176SOPE  C31220075   7.844   6.797   9.430 -0.9011 -0.0428 -0.0180
  176SOPE  H12X20076   7.752   6.742   9.458 -0.3025 -0.7783  0.5381
  176SOPE  H12Y20077   7.925   6.724   9.451 -1.7328 -1.7772 -2.3646
  176SOPE  C31320078   7.840   6.822   9.281 -0.8974  0.2844 -0.0338
  176SOPE  H13X20079   7.937   6.873   9.266  0.3631 -1.1819  2.3253
  176SOPE  H13Y20080   7.756   6.892   9.265 -1.3408 -0.4787 -1.0935
  176SOPE  C31420081   7.809   6.700   9.192 -0.3010 -0.1777  0.3128
  176SOPE  H14X20082   7.709   6.669   9.229 -0.5044  1.5218  1.3003
  176SOPE  H14Y20083   7.883   6.620   9.214  0.7657  0.3061 -1.2842
  176SOPE  C31520084   7.802   6.729   9.040  0.9781 -0.6157 -0.1957
  176SOPE  H15X20085   7.891   6.682   8.993  0.7211 -3.0051  1.5605
  176SOPE  H15Y20086   7.797   6.838   9.017 -1.1929 -0.9830 -1.8411
  176SOPE  C31620087   7.685   6.658   8.966 -0.2616  0.0897  0.5385
  176SOPE  H16X20088   7.590   6.696   9.009 -0.8628 -0.8159  0.0443
  176SOPE  H16Y20089   7.694   6.555   9.007  0.0774 -0.8452 -1.7631
  176SOPE  C31720090   7.675   6.682   8.813  0.8521 -0.2159  0.5549
  176SOPE  H17X20091   7.626   6.781   8.803  1.8866  0.2713  0.1172
  176SOPE  H17Y20092   7.610   6.600   8.776  0.6479 -0.4288  1.3546
  176SOPE  C31820093   7.801   6.680   8.734  0.0317  0.3035  0.3020
  176SOPE  H18X20094   7.846   6.580   8.751  0.6533  0.7698  1.5306
  176SOPE  H18Y20095   7.877   6.754   8.768 -0.0414  0.0747  0.9903
  176SOPE  H18Z20096   7.781   6.699   8.627  1.3222  2.2090  0.3487
  177SOPE     N20097   0.875   4.477  11.151  0.0600 -0.2231 -0.4107
  177SOPE   HN120098   0.801   4.511  11.216 -0.5151  0.9708 -1.6348
  177SOPE   HN220099   0.959   4.454  11.208  0.0651 -2.8328 -1.3315
  177SOPE   HN320100   0.883   4.561  11.090 -1.6799  1.8982  1.9988
  177SOPE   C1220101   0.820   4.367  11.078 -0.7166  0.7266  0.1425
  177SOPE  H12A20102   0.715   4.395  11.055 -0.4459  0.9291 -0.8798
  177SOPE  H12B20103   0.827   4.277  11.142  0.9138 -0.0034 -1.0082
  177SOPE   C1120104   0.904   4.348  10.951  0.3002 -0.0295  0.6733
  177SOPE  H11A20105   0.889   4.429  10.877 -1.6122 -2.1182 -1.4183
  177SOPE  H11B20106   0.859   4.258  10.903  0.9791 -0.7456  1.3488
  177SOPE     P20107   1.122   4.202  10.977  0.0053  0.0690  0.2157
  177SOPE   O1320108   1.072   4.119  11.092 -0.4957 -0.3872  0.1716
  177SOPE   O1420109   1.262   4.245  10.973  0.0484 -0.8018 -0.4496
  177SOPE   O1220110   1.043   4.337  10.979 -0.0376  0.3227 -0.8805
  177SOPE   O1120111   1.069   4.140  10.842 -0.2525 -0.0210  0.4781
  177SOPE    C120112   1.094   4.005  10.802  0.7369  0.3145 -0.4835
  177SOPE    HA20113   1.007   3.964  10.747  0.4607 -1.6588  1.2990
  177SOPE    HB20114   1.107   3.943  10.893 -0.2244  2.4620  1.1795
  177SOPE    C220115   1.216   4.002  10.705 -1.0764 -0.3210  0.6180
  177SOPE    HS20116   1.308   4.044  10.750 -1.7725  0.5053  1.3055
  177SOPE   O2120117   1.174   4.078  10.596  0.1984 -0.2622 -0.2790
  177SOPE   C2120118   1.270   4.125  10.523 -1.2640  0.9007 -0.3806
  177SOPE   O2220119   1.393   4.135  10.556  0.6576  0.4376 -0.5409
  177SOPE   C2220120   1.221   4.153  10.381  0.2631 -0.0940  0.5311
  177SOPE   H2R20121   1.120   4.198  10.388 -0.0919 -0.8432  0.2576
  177SOPE   H2S20122   1.197   4.053  10.341 -0.6766  1.0318 -1.9011
  177SOPE    C320123   1.257   3.856  10.660  0.0036 -0.1266  0.1556
  177SOPE    HX20124   1.157   3.808  10.661 -0.4220  0.7465  0.5394
  177SOPE    HY20125   1.298   3.799  10.746 -1.0642 -0.5692  0.3848
  177SOPE   O3120126   1.311   3.841  10.526 -0.2315 -0.0568 -0.6466
  177SOPE   C3120127   1.423   3.783  10.523 -0.7263  1.4570  0.1984
  177SOPE   O3220128   1.483   3.737  10.617 -0.7562  0.1661 -0.2155
  177SOPE   C3220129   1.473   3.774  10.383  0.2790  0.5748  0.8494
  177SOPE   H2X20130   1.508   3.874  10.350  2.5574 -0.1710  0.8452
  177SOPE   H2Y20131   1.390   3.734  10.320  1.0650 -0.9228  0.7164
  177SOPE   C2320132   1.325   4.230  10.300  0.0551 -0.1927  0.1266
  177SOPE   H3R20133   1.422   4.175  10.299 -0.2073 -0.7017 -1.5236
  177SOPE   H3S20134   1.348   4.326  10.350  2.1139 -0.4852 -0.1610
  177SOPE   C2420135   1.291   4.265  10.154  0.2064 -0.8559 -0.6803
  177SOPE   H4R20136   1.222   4.186  10.117 -0.6732  0.4137 -1.8410
  177SOPE   H4S20137   1.228   4.357  10.156  0.7557 -0.4729 -0.9856
  177SOPE   C2520138   1.411   4.278  10.057 -0.0311  0.5731 -0.5178
  177SOPE   H5R20139   1.470   4.363  10.097 -0.8262  0.5764  0.7057
  177SOPE   H5S20140   1.476   4.189  10.070  0.4158  0.7703 -1.3422
  177SOPE   C2620141   1.372   4.297   9.913 -0.4781  0.6440  0.3622
  177SOPE   H6R20142   1.305   4.219   9.871  0.1896  0.2899 -0.0718
  177SOPE   H6S20143   1.315   4.393   9.906  2.2104  2.3295  0.0777
  177SOPE   C2720144   1.497   4.306   9.816 -0.3604  0.5562 -0.4797
  177SOPE   H7R20145   1.462   4.360   9.726 -2.5758  0.8004  0.4662
  177SOPE   H7S20146   1.577   4.371   9.859  1.7189 -0.4684 -2.5434
  177SOPE   C2820147   1.560   4.170   9.778 -0.2809 -0.1647 -0.4496
  177SOPE   H8R20148   1.598   4.133   9.875  1.1869 -0.4047 -1.0906
  177SOPE   H8S20149   1.486   4.103   9.728  0.7854 -1.2379 -0.6392
  177SOPE   C2920150   1.680   4.189   9.687 -0.0319 -0.4465  0.3343
  177SOPE   H9120151   1.771   4.210   9.745  0.2355  0.7711 -0.4930
  177SOPE  C21020152   1.683   4.176   9.555  0.6049 -0.5515  0.2210
  177SOPE  H10120153   1.779   4.188   9.503 -0.1654  0.8541 -0.9840
  177SOPE  C21120154   1.569   4.139   9.474  0.3391  0.6420  1.2337
  177SOPE  H11R20155   1.472   4.142   9.529  0.3148 -1.0852  1.3394
  177SOPE  H11S20156   1.566   4.030   9.450 -3.8182  0.7357  0.5685
  177SOPE  C21220157   1.568   4.220   9.347 -0.3673 -0.4030 -0.4119
  177SOPE  H12R20158   1.565   4.328   9.373  3.9849 -0.0301 -0.7985
  177SOPE  H12S20159   1.482   4.191   9.283 -0.0311  1.4525 -1.7802
  177SOPE  C21320160   1.696   4.189   9.253 -0.5018 -0.1551 -0.8686
  177SOPE  H13R20161   1.708   4.079   9.255  2.1764  0.0373 -2.3454
  177SOPE  H13S20162   1.776   4.247   9.303 -0.2261 -1.0591 -0.2489
  177SOPE  C21420163   1.684   4.248   9.116  1.1605 -0.1289 -0.0916
  177SOPE  H14R20164   1.659   4.356   9.120 -1.2459 -0.6169 -0.6852
  177SOPE  H14S20165   1.605   4.192   9.062  2.2153 -1.3655 -0.4191
  177SOPE  C21520166   1.817   4.224   9.050 -0.0522 -0.3107 -0.2325
  177SOPE  H15R20167   1.848   4.118   9.061  1.4533  0.1558  0.3879
  177SOPE  H15S20168   1.894   4.281   9.107 -0.6337  0.1407  0.1200
  177SOPE  C21620169   1.826   4.261   8.894  0.2618  0.3104 -0.1976
  177SOPE  H16R20170   1.934   4.271   8.869  0.2894 -1.1043 -0.7061
  177SOPE  H16S20171   1.787   4.364   8.879 -3.2370 -0.7267  0.9734
  177SOPE  C21720172   1.773   4.144   8.799 -0.4105  0.6256 -1.1424
  177SOPE  H17R20173   1.668   4.112   8.817 -0.1545  1.3109  2.1152
  177SOPE  H17S20174   1.826   4.048   8.817 -0.7371  0.6840  0.2106
  177SOPE  C21820175   1.775   4.178   8.650 -0.3972  0.1389  0.0835
  177SOPE  H18R20176   1.748   4.092   8.586 -0.1477 -0.0833  0.2774
  177SOPE  H18S20177   1.880   4.209   8.633 -0.8612  2.1623  0.6255
  177SOPE  H18T20178   1.701   4.260   8.634  1.5355  1.9337 -0.2166
  177SOPE   C3320179   1.597   3.681  10.361 -0.0693  0.3438  0.0065
  177SOPE   H3X20180   1.549   3.587  10.329 -3.5369  1.5106  1.3396
  177SOPE   H3Y20181   1.667   3.666  10.446  0.2666  2.0563  0.0719
  177SOPE   C3420182   1.684   3.747  10.246 -0.1029 -0.5690  0.2473
  177SOPE   H4X20183   1.751   3.666  10.208  3.3882  1.3359  1.8824
  177SOPE   H4Y20184   1.735   3.831  10.298 -0.2449  0.4696 -1.2142
  177SOPE   C3520185   1.610   3.795  10.119  0.2398 -0.6873  0.5660
  177SOPE   H5X20186   1.679   3.834  10.041 -0.1420  0.6628  0.8875
  177SOPE   H5Y20187   1.527   3.867  10.134  1.2179  0.6065 -0.1475
  177SOPE   C3620188   1.540   3.674  10.036 -0.5929 -0.2919 -0.1655
  177SOPE   H6X20189   1.454   3.647  10.101 -0.2701  1.3960  1.0425
  177SOPE   H6Y20190   1.604   3.583  10.032 -0.3019 -0.1484  0.9380
  177SOPE   C3720191   1.489   3.728   9.905 -0.8188  0.5120 -0.2008
  177SOPE   H7X20192   1.436   3.823   9.923  1.0093  1.3060  1.3567
  177SOPE   H7Y20193   1.425   3.654   9.851 -1.4146  0.2519  0.8313
  177SOPE   C3820194   1.602   3.771   9.804  0.4572 -0.1116  0.4440
  177SOPE   H8X20195   1.663   3.679   9.792 -0.6830 -1.0994  1.9171
  177SOPE   H8Y20196   1.665   3.852   9.846  1.9826 -0.1050 -1.6912
  177SOPE   C3920197   1.547   3.823   9.667 -0.0007 -0.4861  0.3115
  177SOPE   H9X20198   1.640   3.867   9.624  0.2945 -1.3680  0.0210
  177SOPE   H9Y20199   1.479   3.905   9.696  0.9736  0.4653 -0.0404
  177SOPE  C31020200   1.506   3.714   9.569  0.3355  0.1764 -0.8051
  177SOPE  H10X20201   1.401   3.691   9.599 -0.3429  2.1017 -1.5530
  177SOPE  H10Y20202   1.570   3.626   9.591  0.7383  0.6795  0.0907
  177SOPE  C31120203   1.505   3.755   9.421 -0.6676 -0.0810  0.3535
  177SOPE  H11X20204   1.446   3.845   9.393 -0.6972 -0.4949 -1.0104
  177SOPE  H11Y20205   1.446   3.673   9.374 -1.9227  2.4384 -2.8667
  177SOPE  C31220206   1.647   3.766   9.361  0.0624 -0.0672  0.3724
  177SOPE  H12X20207   1.711   3.699   9.422  1.4016  1.9944  1.3467
  177SOPE  H12Y20208   1.687   3.868   9.379  0.6921 -0.5895  2.1087
  177SOPE  C31320209   1.653   3.725   9.213 -0.4232  0.0804  0.3781
  177SOPE  H13X20210   1.628   3.616   9.207 -0.7971  0.1704  0.2498
  177SOPE  H13Y20211   1.755   3.750   9.178 -0.7061 -0.8646 -1.2625
  177SOPE  C31420212   1.551   3.794   9.116 -0.1773 -0.0857 -0.2885
  177SOPE  H14X20213   1.548   3.904   9.130  0.7943  0.0251 -0.8542
  177SOPE  H14Y20214   1.450   3.756   9.145 -0.2665  0.5177  0.2175
  177SOPE  C31520215   1.596   3.769   8.970  0.0962 -0.8431  0.0364
  177SOPE  H15X20216   1.597   3.662   8.939 -0.4319 -1.3403  1.6506
  177SOPE  H15Y20217   1.699   3.809   8.964 -0.0692 -0.4950 -0.6167
  177SOPE  C31620218   1.512   3.836   8.859 -0.1371 -0.6515 -0.2682
  177SOPE  H16X20219   1.502   3.939   8.901 -2.3461 -2.3381  3.9193
  177SOPE  H16Y20220   1.407   3.800   8.859  0.3177 -2.0174 -0.6235
  177SOPE  C31720221   1.567   3.806   8.721 -0.8778 -0.6108  0.1122
  177SOPE  H17X20222   1.678   3.808   8.733 -0.6675 -0.5236 -1.6220
  177SOPE  H17Y20223   1.518   3.875   8.649 -0.9499  0.0001  0.7358
  177SOPE  C31820224   1.522   3.666   8.669  0.0184 -0.0837 -0.6017
  177SOPE  H18X20225   1.571   3.590   8.733  0.4237 -0.9646 -1.9270
  177SOPE  H18Y20226   1.545   3.657   8.561  0.7279  1.0858 -0.5623
  177SOPE  H18Z20227   1.412   3.662   8.685 -0.0331 -2.3964 -1.2087
  178SOPE     N20228   3.324   3.328  10.691 -0.0463 -0.2176  0.0152
  178SOPE   HN120229   3.324   3.339  10.794  3.4738 -3.1762  0.5624
  178SOPE   HN220230   3.225   3.325  10.661  0.4148 -1.4242 -1.5502
  178SOPE   HN320231   3.367   3.241  10.652 -0.9856 -0.7572  0.1629
  178SOPE   C1220232   3.405   3.442  10.640 -0.4752 -0.0168  0.6717
  178SOPE  H12A20233   3.406   3.435  10.529  2.8399 -0.6568  0.6378
  178SOPE  H12B20234   3.508   3.434  10.681 -0.5704  1.9322  1.3694
  178SOPE   C1120235   3.330   3.566  10.674 -0.1429 -0.9943  0.3460
  178SOPE  H11A20236   3.227   3.574  10.633 -0.0232  2.3709  0.4712
  178SOPE  H11B20237   3.396   3.648  10.639 -1.5764 -1.5664 -4.6170
  178SOPE     P20238   3.206   3.645  10.899 -0.0050  0.0809  0.2112
  178SOPE   O1320239   3.271   3.721  11.009 -0.2314 -0.2366 -0.1897
  178SOPE   O1420240   3.103   3.554  10.948 -0.1171  0.4268 -0.3450
  178SOPE   O1220241   3.318   3.567  10.814 -0.0763 -0.6179  0.0545
  178SOPE   O1120242   3.145   3.749  10.796 -0.3444  0.5084 -0.4945
  178SOPE    C120243   3.215   3.869  10.779  0.5823 -0.3922  0.0986
  178SOPE    HA20244   3.323   3.849  10.763  0.3635 -1.3469 -0.2810
  178SOPE    HB20245   3.198   3.932  10.869 -2.2967 -1.0446  0.0906
  178SOPE    C220246   3.166   3.950  10.658 -0.9268  0.0977  0.2938
  178SOPE    HS20247   3.055   3.957  10.665 -1.1373  0.0477 -2.1395
  178SOPE   O2120248   3.194   3.880  10.536  0.2567  0.4303  0.2766
  178SOPE   C2120249   3.115   3.883  10.432  1.1625 -0.5842  0.0098
  178SOPE   O2220250   3.001   3.928  10.435  0.4606  0.5154  0.2957
  178SOPE   C2220251   3.188   3.830  10.307 -0.3989 -0.2024 -0.1288
  178SOPE   H2R20252   3.202   3.721  10.320 -2.4917 -0.4180  0.7332
  178SOPE   H2S20253   3.287   3.881  10.312  0.3596 -1.6272 -0.1125
  178SOPE    C320254   3.221   4.100  10.636 -0.1872 -0.5909  0.4985
  178SOPE    HX20255   3.330   4.091  10.659  0.4093  1.5509 -1.2180
  178SOPE    HY20256   3.190   4.159  10.725 -1.0184 -1.4249  0.7805
  178SOPE   O3120257   3.196   4.150  10.508 -0.5121  0.0815 -0.0648
  178SOPE   C3120258   3.251   4.273  10.481  0.3292 -0.2723  0.1388
  178SOPE   O3220259   3.324   4.329  10.559  0.5999 -0.1937 -0.3365
  178SOPE   C3220260   3.203   4.339  10.349 -0.2685 -0.0258 -0.3683
  178SOPE   H2X20261   3.273   4.301  10.272 -1.4466 -0.6455 -1.1671
  178SOPE   H2Y20262   3.205   4.450  10.351 -0.4002  0.0269  3.2312
  178SOPE   C2320263   3.107   3.854  10.190  0.4223  0.2132 -0.2406
  178SOPE   H3R20264   3.070   3.958  10.179  1.0115  0.2215 -2.6556
  178SOPE   H3S20265   3.008   3.804  10.181  1.1935 -1.1801 -1.1866
  178SOPE   C2420266   3.189   3.815  10.062  0.2967 -0.3966  0.7410
  178SOPE   H4R20267   3.273   3.885  10.043  0.7140 -1.4791 -1.7714
  178SOPE   H4S20268   3.235   3.714  10.075  1.2733  0.0426  0.8274
  178SOPE   C2520269   3.103   3.801   9.932  0.8699  0.2068  0.4114
  178SOPE   H5R20270   2.996   3.775   9.945  0.8996 -1.1700 -1.5720
  178SOPE   H5S20271   3.095   3.903   9.890  0.9028  0.8611  1.9412
  178SOPE   C2620272   3.168   3.722   9.817  0.1192  0.1210  0.8564
  178SOPE   H6R20273   3.268   3.769   9.827  1.2792 -1.9382 -0.3003
  178SOPE   H6S20274   3.190   3.616   9.842 -0.0007  0.3339  1.9302
  178SOPE   C2720275   3.102   3.749   9.680 -0.0894  0.0861  0.5804
  178SOPE   H7R20276   3.046   3.657   9.650 -0.9482  0.5276  0.7952
  178SOPE   H7S20277   3.037   3.838   9.693 -1.8392 -1.3807  2.6875
  178SOPE   C2820278   3.206   3.773   9.568  0.5560 -0.1875 -0.4159
  178SOPE   H8R20279   3.147   3.820   9.487 -0.7238  0.0453  0.6168
  178SOPE   H8S20280   3.272   3.859   9.593 -0.9960  0.5232  1.5483
  178SOPE   C2920281   3.283   3.645   9.542  0.5331 -0.0906 -0.2829
  178SOPE   H9120282   3.328   3.585   9.622 -1.3188 -0.9239  0.1914
  178SOPE  C21020283   3.309   3.608   9.409 -0.5723 -0.2194 -0.5370
  178SOPE  H10120284   3.354   3.510   9.385 -0.7913 -0.1886 -1.0978
  178SOPE  C21120285   3.257   3.690   9.294  0.8088  0.0287  0.0493
  178SOPE  H11R20286   3.302   3.790   9.315  1.1803  0.1569 -1.2762
  178SOPE  H11S20287   3.147   3.699   9.307  1.0139  0.8700  1.4297
  178SOPE  C21220288   3.301   3.653   9.148 -0.1313  0.5992 -0.6930
  178SOPE  H12R20289   3.408   3.624   9.138 -0.3663  0.3023 -2.8395
  178SOPE  H12S20290   3.276   3.747   9.094 -0.3751  1.5136  0.9294
  178SOPE  C21320291   3.208   3.546   9.093 -0.3203  0.7286 -0.0071
  178SOPE  H13R20292   3.101   3.577   9.097 -0.8605 -1.1005  0.8081
  178SOPE  H13S20293   3.218   3.455   9.156 -1.3313 -0.3282 -1.3379
  178SOPE  C21420294   3.234   3.501   8.951  0.2447  0.2981 -0.0833
  178SOPE  H14R20295   3.194   3.398   8.938  1.5900 -0.3586  0.7386
  178SOPE  H14S20296   3.344   3.492   8.935  0.4789  1.3222  0.8249
  178SOPE  C21520297   3.161   3.588   8.851 -0.2345  0.6127 -0.5321
  178SOPE  H15R20298   3.195   3.693   8.863 -1.1726  0.9270 -0.5383
  178SOPE  H15S20299   3.051   3.578   8.866  0.0606 -1.7235  0.4478
  178SOPE  C21620300   3.186   3.559   8.706 -0.6772  0.5548 -0.2668
  178SOPE  H16R20301   3.120   3.625   8.646 -2.8484  0.8397  2.2342
  178SOPE  H16S20302   3.169   3.452   8.683 -2.2658  0.3910  1.3876
  178SOPE  C21720303   3.328   3.598   8.654 -0.1404  0.5663  0.2725
  178SOPE  H17R20304   3.400   3.539   8.715 -2.5379 -1.8378  0.9945
  178SOPE  H17S20305   3.333   3.707   8.673 -1.2174  0.5016  1.0120
  178SOPE  C21820306   3.361   3.554   8.515  0.6671 -0.0698  0.0077
  178SOPE  H18R20307   3.294   3.608   8.445 -0.9077  1.4437  2.5307
  178SOPE  H18S20308   3.346   3.445   8.497 -0.2712 -0.2824  1.8852
  178SOPE  H18T20309   3.466   3.585   8.494  0.6125  0.5678  0.6562
  178SOPE   C3320310   3.059   4.302  10.311 -0.1282  0.1227  0.2727
  178SOPE   H3X20311   2.991   4.350  10.385 -1.0498  0.0930 -0.5392
  178SOPE   H3Y20312   3.052   4.191  10.310  1.1658  0.0206  0.6321
  178SOPE   C3420313   3.030   4.339  10.164  0.4043 -0.6010  0.1648
  178SOPE   H4X20314   3.068   4.443  10.150 -0.7354 -0.1294  0.5325
  178SOPE   H4Y20315   2.921   4.341  10.145  0.7957 -0.9443 -2.5280
  178SOPE   C3520316   3.101   4.256  10.067 -0.5414  0.1875  0.5494
  178SOPE   H5X20317   3.059   4.154  10.055  0.7027 -0.2514 -0.2697
  178SOPE   H5Y20318   3.206   4.244  10.101  0.6782 -2.1513 -3.2975
  178SOPE   C3620319   3.105   4.323   9.924 -0.2143  0.3227  0.0383
  178SOPE   H6X20320   3.151   4.424   9.933 -2.0155  1.0552  1.6465
  178SOPE   H6Y20321   2.996   4.337   9.906 -0.9046 -3.2710  0.7422
  178SOPE   C3720322   3.175   4.233   9.824 -0.0154  0.7503 -0.3873
  178SOPE   H7X20323   3.148   4.126   9.839  2.2508  0.1314 -0.2115
  178SOPE   H7Y20324   3.286   4.237   9.836 -0.0867  0.0847  0.5876
  178SOPE   C3820325   3.155   4.279   9.682 -0.2451 -0.2642 -0.6624
  178SOPE   H8X20326   3.200   4.380   9.673  0.5720 -0.5651 -0.1330
  178SOPE   H8Y20327   3.045   4.290   9.671 -0.5605 -0.6759  1.5219
  178SOPE   C3920328   3.223   4.190   9.581 -0.2511  0.0083  0.8015
  178SOPE   H9X20329   3.182   4.091   9.609 -0.8644 -0.4245 -1.3965
  178SOPE   H9Y20330   3.333   4.194   9.590 -0.2380  0.6543  0.4202
  178SOPE  C31020331   3.179   4.236   9.446 -0.8549  0.3263 -0.8546
  178SOPE  H10X20332   3.241   4.324   9.419 -0.1213  0.2306  0.4278
  178SOPE  H10Y20333   3.069   4.254   9.440 -0.7875  0.7293 -0.8912
  178SOPE  C31120334   3.195   4.122   9.339  0.2367 -0.2273 -0.3318
  178SOPE  H11X20335   3.180   4.021   9.384  2.5736  0.0261  1.1538
  178SOPE  H11Y20336   3.298   4.133   9.301  0.4326 -0.0102  0.2533
  178SOPE  C31220337   3.093   4.140   9.224 -0.0875  0.8300 -0.2323
  178SOPE  H12X20338   3.128   4.222   9.157  2.1105 -0.7698 -1.1565
  178SOPE  H12Y20339   2.991   4.165   9.259 -0.8378 -1.5184 -0.5947
  178SOPE  C31320340   3.082   4.015   9.138  0.6915 -0.1457 -0.0587
  178SOPE  H13X20341   3.040   3.944   9.212  0.2012  1.1429  0.9244
  178SOPE  H13Y20342   3.181   3.969   9.118 -0.5848 -3.3087  0.3128
  178SOPE  C31420343   2.994   4.033   9.017  0.6229  0.4211  1.0358
  178SOPE  H14X20344   3.045   4.101   8.945 -1.7138  1.3203  0.1401
  178SOPE  H14Y20345   2.898   4.083   9.039  0.5126  2.1628 -2.6522
  178SOPE  C31520346   2.968   3.900   8.943  0.0427 -0.4902  0.4644
  178SOPE  H15X20347   2.890   3.845   8.999  1.6166 -0.2983  3.0250
  178SOPE  H15Y20348   3.060   3.838   8.931  1.5728  1.4312  1.6365
  178SOPE  C31620349   2.903   3.932   8.800 -0.0256 -0.0717 -0.1746
  178SOPE  H16X20350   2.818   4.003   8.809  1.1473  1.5830 -1.3874
  178SOPE  H16Y20351   2.865   3.837   8.758 -1.4974  0.2698  0.3539
  178SOPE  C31720352   3.010   3.983   8.694 -0.9083  0.1164 -0.3523
  178SOPE  H17X20353   3.101   3.918   8.690 -0.4504  0.7603 -4.0764
  178SOPE  H17Y20354   3.032   4.085   8.730 -1.1482 -0.5749  1.8824
  178SOPE  C31820355   2.961   3.991   8.551  0.3906  0.8105 -0.0600
  178SOPE  H18X20356   2.946   3.888   8.511  0.9188  0.0113  1.7271
  178SOPE  H18Y20357   3.031   4.043   8.482 -0.5563  0.8505 -1.0205
  178SOPE  H18Z20358   2.869   4.051   8.540  0.0747  0.4560  0.6503
  179SOPE     N20359   2.745   4.587   6.506  0.6432  0.5314  0.2881
  179SOPE   HN120360   2.672   4.534   6.455  0.9010 -0.9017  1.3285
  179SOPE   HN220361   2.830   4.527   6.511 -0.3130 -0.9466 -0.5203
  179SOPE   HN320362   2.710   4.617   6.600  0.0754 -2.3825  1.1104
  179SOPE   C1220363   2.773   4.700   6.408  0.3195 -0.1511  0.3758
  179SOPE  H12A20364   2.673   4.747   6.394 -0.0920 -0.9565  0.5349
  179SOPE  H12B20365   2.804   4.651   6.314 -0.9376 -1.8072  0.7765
  179SOPE   C1120366   2.871   4.799   6.468 -0.9380  0.0975  0.5543
  179SOPE  H11A20367   2.833   4.828   6.568  0.3890 -0.9857  1.4190
  179SOPE  H11B20368   2.878   4.894   6.411  1.4984 -1.5919 -2.2330
  179SOPE     P20369   3.135   4.811   6.459 -0.2592 -0.5986  0.0827
  179SOPE   O1320370   3.119   4.937   6.526  0.1199 -0.1500  0.0035
  179SOPE   O1420371   3.155   4.823   6.315 -0.1528 -0.0084 -0.2356
  179SOPE   O1220372   3.001   4.730   6.489  0.1875 -0.3920 -0.4911
  179SOPE   O1120373   3.252   4.736   6.533  0.2984 -0.6458  0.2687
  179SOPE    C120374   3.264   4.756   6.674 -0.5513  0.1884  0.1362
  179SOPE    HA20375   3.279   4.863   6.702 -2.8583  0.7007 -0.3666
  179SOPE    HB20376   3.360   4.715   6.711  1.4417  4.3672  0.2425
  179SOPE    C220377   3.151   4.692   6.774 -0.8057  0.0651 -0.5055
  179SOPE    HS20378   3.057   4.742   6.743 -0.7307  1.3000  1.1806
  179SOPE   O2120379   3.195   4.703   6.911  0.4314  0.2825  0.2598
  179SOPE   C2120380   3.092   4.678   6.985  0.6872 -1.0429 -0.8442
  179SOPE   O2220381   2.978   4.668   6.955  0.6817 -0.3527  0.1461
  179SOPE   C2220382   3.141   4.678   7.138  0.0587 -0.8955 -0.1342
  179SOPE   H2R20383   3.142   4.786   7.166  0.0275 -1.1736  0.9662
  179SOPE   H2S20384   3.247   4.647   7.143  0.4693  0.3612 -0.6590
  179SOPE    C320385   3.126   4.536   6.742 -0.0023  0.2848  0.5156
  179SOPE    HX20386   3.066   4.535   6.649  1.2701 -0.3495 -0.3234
  179SOPE    HY20387   3.059   4.491   6.818  1.3595  0.4329  1.8601
  179SOPE   O3120388   3.253   4.466   6.708  0.6749  0.1454  0.4978
  179SOPE   C3120389   3.279   4.381   6.802 -0.3869  0.2931 -0.5648
  179SOPE   O3220390   3.198   4.343   6.885 -0.9371  0.0341 -0.4242
  179SOPE   C3220391   3.417   4.325   6.775 -0.0904  0.1511 -0.3106
  179SOPE   H2X20392   3.446   4.361   6.674 -0.4101 -1.0694 -0.8579
  179SOPE   H2Y20393   3.413   4.214   6.776  0.5073  0.0548  2.9439
  179SOPE   C2320394   3.053   4.609   7.239 -0.3770 -0.2937  1.0941
  179SOPE   H3R20395   3.059   4.503   7.206 -0.3648  0.7443 -2.6856
  179SOPE   H3S20396   2.945   4.633   7.225 -0.2135  0.4104  1.0275
  179SOPE   C2420397   3.084   4.642   7.385 -1.3283  0.2028 -0.2858
  179SOPE   H4R20398   3.056   4.748   7.399 -0.4120  0.4686 -0.3743
  179SOPE   H4S20399   3.024   4.585   7.459  0.8488  1.5041  2.6776
  179SOPE   C2520400   3.235   4.621   7.424 -0.4133  0.3880 -0.1296
  179SOPE   H5R20401   3.264   4.516   7.405 -0.3384  0.5760 -1.1021
  179SOPE   H5S20402   3.291   4.677   7.346  1.9595  0.3227  1.4208
  179SOPE   C2620403   3.272   4.665   7.573 -0.0614  0.3837  0.2676
  179SOPE   H6R20404   3.382   4.661   7.586  0.0423  1.5228 -0.1777
  179SOPE   H6S20405   3.242   4.771   7.583 -1.3002 -0.1267  2.7387
  179SOPE   C2720406   3.211   4.569   7.679 -0.0043  0.1993 -0.2236
  179SOPE   H7R20407   3.103   4.556   7.660  0.4603 -2.3750 -1.4215
  179SOPE   H7S20408   3.254   4.468   7.667  0.9610  0.4875  0.5758
  179SOPE   C2820409   3.245   4.593   7.824  0.4515 -0.6103  0.1393
  179SOPE   H8R20410   3.208   4.513   7.891  1.0745 -0.5852  0.5229
  179SOPE   H8S20411   3.354   4.604   7.842  0.0486  1.8566  1.4035
  179SOPE   C2920412   3.188   4.731   7.863 -0.5314  0.7143  0.1198
  179SOPE   H9120413   3.168   4.788   7.771 -0.8595 -0.6203 -0.6761
  179SOPE  C21020414   3.158   4.762   7.990  0.3667 -0.1120 -0.8705
  179SOPE  H10120415   3.114   4.859   8.016 -1.0321 -0.6354 -1.1367
  179SOPE  C21120416   3.180   4.669   8.107  0.4593 -0.0114 -0.0974
  179SOPE  H11R20417   3.252   4.587   8.091  1.4188  0.6695  0.6405
  179SOPE  H11S20418   3.082   4.629   8.140 -0.2724  2.8058  1.5183
  179SOPE  C21220419   3.221   4.760   8.222  0.7442  0.4434 -0.8936
  179SOPE  H12R20420   3.152   4.846   8.237 -0.7808 -0.0961 -3.9778
  179SOPE  H12S20421   3.324   4.800   8.207  0.7265  1.3551  1.1258
  179SOPE  C21320422   3.231   4.674   8.349  0.4640 -0.3987 -0.5849
  179SOPE  H13R20423   3.324   4.613   8.342 -0.7280 -2.3040 -0.5974
  179SOPE  H13S20424   3.153   4.598   8.367 -0.9808  1.4248  1.2239
  179SOPE  C21420425   3.233   4.754   8.485  0.5245 -0.8179 -0.2406
  179SOPE  H14R20426   3.263   4.687   8.569  2.0490 -0.4088 -0.4243
  179SOPE  H14S20427   3.140   4.812   8.503 -0.0075 -1.9591  0.8295
  179SOPE  C21520428   3.331   4.870   8.472 -0.3443  0.4409  0.0388
  179SOPE  H15R20429   3.305   4.933   8.384  0.3094 -1.4522 -1.6020
  179SOPE  H15S20430   3.427   4.818   8.450 -1.2251 -1.4187  0.4068
  179SOPE  C21620431   3.339   4.949   8.603 -0.5739  0.0192 -0.2941
  179SOPE  H16R20432   3.334   4.875   8.685  2.8454  0.5395  0.5446
  179SOPE  H16S20433   3.253   5.016   8.624 -0.0002  0.5345  0.4831
  179SOPE  C21720434   3.474   5.031   8.611 -0.0598  1.3079 -0.2273
  179SOPE  H17R20435   3.479   5.108   8.531  0.7387  1.7833  0.2648
  179SOPE  H17S20436   3.553   4.963   8.572 -0.7138  1.6820 -2.3409
  179SOPE  C21820437   3.507   5.081   8.753  0.2795 -0.6892 -0.3736
  179SOPE  H18R20438   3.606   5.132   8.746  0.6766 -1.3188  0.5331
  179SOPE  H18S20439   3.511   4.995   8.822 -0.6516 -0.5094 -0.0779
  179SOPE  H18T20440   3.428   5.147   8.796 -0.2672 -1.3923 -0.2966
  179SOPE   C3320441   3.520   4.358   6.880  0.3047 -0.3630  0.1755
  179SOPE   H3X20442   3.611   4.305   6.846 -0.8275 -1.0999 -1.9000
  179SOPE   H3Y20443   3.471   4.313   6.970 -1.2107 -0.3599 -0.6108
  179SOPE   C3420444   3.537   4.508   6.896  1.0285  0.3159 -0.5956
  179SOPE   H4X20445   3.442   4.562   6.918  0.9554  0.2759 -0.8050
  179SOPE   H4Y20446   3.589   4.538   6.802  1.0747 -2.6411 -1.6292
  179SOPE   C3520447   3.640   4.554   6.999  0.8904  0.1221 -0.6865
  179SOPE   H5X20448   3.648   4.664   7.008 -2.2683  0.3006  3.1165
  179SOPE   H5Y20449   3.741   4.516   6.974  0.5810 -0.8129 -0.5618
  179SOPE   C3620450   3.596   4.511   7.135  0.8812 -0.2275  0.7897
  179SOPE   H6X20451   3.605   4.401   7.147 -1.5268 -0.7521 -1.3175
  179SOPE   H6Y20452   3.487   4.522   7.154  0.5906  0.3988 -1.0539
  179SOPE   C3720453   3.679   4.563   7.260  0.5568  0.5029 -0.0231
  179SOPE   H7X20454   3.680   4.674   7.249 -3.5548  0.5539 -1.3859
  179SOPE   H7Y20455   3.782   4.527   7.238 -0.1146 -1.3977 -0.2027
  179SOPE   C3820456   3.646   4.513   7.394  0.6497 -0.1060  0.0413
  179SOPE   H8X20457   3.663   4.404   7.387  1.0050 -0.1382  1.2853
  179SOPE   H8Y20458   3.538   4.536   7.407  0.8079  0.8776 -0.2854
  179SOPE   C3920459   3.739   4.555   7.509  0.4751 -0.5678  0.0121
  179SOPE   H9X20460   3.752   4.665   7.498 -0.2093 -0.4510  0.3263
  179SOPE   H9Y20461   3.832   4.497   7.492  0.1603 -1.4850  1.2908
  179SOPE  C31020462   3.683   4.525   7.647 -0.7194 -0.2771  0.8907
  179SOPE  H10X20463   3.583   4.572   7.660 -1.5181 -2.2871  2.5468
  179SOPE  H10Y20464   3.763   4.555   7.717 -0.0609  1.3189 -0.4925
  179SOPE  C31120465   3.658   4.372   7.652  0.0669 -0.0168 -0.8490
  179SOPE  H11X20466   3.756   4.320   7.637 -0.3599 -1.5551  1.1578
  179SOPE  H11Y20467   3.598   4.321   7.574  0.1424 -0.0965 -0.8553
  179SOPE  C31220468   3.620   4.313   7.790 -0.2869 -0.7908 -0.1877
  179SOPE  H12X20469   3.599   4.206   7.770 -0.8838 -0.7968  0.4368
  179SOPE  H12Y20470   3.528   4.366   7.823 -0.9925 -0.9127 -1.8854
  179SOPE  C31320471   3.723   4.328   7.897  0.4805  0.3961  0.4027
  179SOPE  H13X20472   3.740   4.437   7.912  0.9230  0.3572  0.1815
  179SOPE  H13Y20473   3.820   4.282   7.868  1.0362  3.0186 -2.3024
  179SOPE  C31420474   3.680   4.278   8.035  0.1922  0.0755  0.5483
  179SOPE  H14X20475   3.632   4.179   8.023  1.3168 -0.3810 -0.3524
  179SOPE  H14Y20476   3.603   4.351   8.069  1.3422  2.6994 -2.0444
  179SOPE  C31520477   3.790   4.279   8.126 -0.0055  0.2389  0.0963
  179SOPE  H15X20478   3.839   4.378   8.127 -0.4256  0.5464 -2.6992
  179SOPE  H15Y20479   3.866   4.201   8.104 -0.3329 -0.4096  1.1670
  179SOPE  C31620480   3.733   4.248   8.267 -0.1515 -0.3070  0.8657
  179SOPE  H16X20481   3.708   4.140   8.279  4.0421 -1.3854  1.7699
  179SOPE  H16Y20482   3.640   4.305   8.290 -0.1902 -0.0964  0.2147
  179SOPE  C31720483   3.837   4.273   8.369  0.0393  0.0325  0.0821
  179SOPE  H17X20484   3.865   4.381   8.367 -0.0878  0.0751  0.5223
  179SOPE  H17Y20485   3.923   4.205   8.353 -1.6910 -1.8192 -2.1187
  179SOPE  C31820486   3.782   4.248   8.514 -0.2638 -0.8821  0.3455
  179SOPE  H18X20487   3.861   4.267   8.590  0.8845 -0.1166 -0.9698
  179SOPE  H18Y20488   3.731   4.150   8.518 -3.1264  0.3777 -1.6926
  179SOPE  H18Z20489   3.700   4.321   8.531 -1.5486 -1.2478 -3.4355
  180SOPE     N20490   3.800   3.909   6.375  0.3963  0.0439 -0.0266
  180SOPE   HN120491   3.879   3.842   6.368  2.6674  2.5756 -0.0169
  180SOPE   HN220492   3.747   3.883   6.290  0.8168  0.7178 -0.5065
  180SOPE   HN320493   3.844   4.003   6.364  0.7542  0.0378  1.2394
  180SOPE   C1220494   3.728   3.918   6.500  0.9298 -0.0822  0.1195
  180SOPE  H12A20495   3.791   3.900   6.589  1.0097 -0.8090 -0.0787
  180SOPE  H12B20496   3.640   3.850   6.500 -0.0952  1.1954 -0.3272
  180SOPE   C1120497   3.672   4.062   6.512  0.4760 -0.1241  0.1662
  180SOPE  H11A20498   3.752   4.138   6.496  0.3845 -0.2976 -1.1675
  180SOPE  H11B20499   3.630   4.065   6.615  0.0746 -2.0791  0.1068
  180SOPE     P20500   3.423   4.131   6.443  0.3103  0.2071  0.0531
  180SOPE   O1320501   3.329   4.066   6.349  0.1832 -0.1534  0.2487
  180SOPE   O1420502   3.417   4.279   6.454 -0.0726 -0.0869 -0.0755
  180SOPE   O1220503   3.571   4.083   6.412 -0.1010 -0.2133  0.1218
  180SOPE   O1120504   3.394   4.079   6.589  0.4505  0.2261 -0.2921
  180SOPE    C120505   3.397   3.935   6.612 -0.2098 -1.2765  0.2243
  180SOPE    HA20506   3.491   3.902   6.661  1.1305 -0.4224 -1.6749
  180SOPE    HB20507   3.390   3.875   6.519 -1.0979 -1.1832  0.2194
  180SOPE    C220508   3.284   3.907   6.712  0.5088  0.0708 -0.2152
  180SOPE    HS20509   3.200   3.960   6.663  0.6945 -1.7454 -2.6698
  180SOPE   O2120510   3.323   3.953   6.841 -0.1724 -0.3595 -0.5869
  180SOPE   C2120511   3.225   3.984   6.928  0.1785  0.0144  0.3302
  180SOPE   O2220512   3.106   3.985   6.899  0.0151  0.3549  0.7300
  180SOPE   C2220513   3.286   4.021   7.061  0.2486 -0.0325  0.1967
  180SOPE   H2R20514   3.380   4.075   7.036 -0.9866  1.6738 -1.0124
  180SOPE   H2S20515   3.314   3.936   7.126  1.7196 -0.4980 -0.9727
  180SOPE    C320516   3.248   3.750   6.721  0.5816 -0.3509  0.0169
  180SOPE    HX20517   3.228   3.726   6.614 -1.0480  2.2771 -0.3481
  180SOPE    HY20518   3.163   3.731   6.790  0.4248  1.3874  0.3438
  180SOPE   O3120519   3.362   3.665   6.766 -0.0895 -0.4478 -0.1886
  180SOPE   C3120520   3.396   3.654   6.897  0.5206  0.2593 -0.2385
  180SOPE   O3220521   3.331   3.696   6.992  0.1462 -0.0710 -0.6548
  180SOPE   C3220522   3.530   3.585   6.903 -0.0413 -0.1560  0.8495
  180SOPE   H2X20523   3.595   3.650   6.841  0.0869 -2.0535 -1.1081
  180SOPE   H2Y20524   3.527   3.479   6.871  1.1946  0.0011  0.1456
  180SOPE   C2320525   3.188   4.117   7.142 -0.5260  0.2354  0.8787
  180SOPE   H3R20526   3.082   4.089   7.126 -0.5918  1.4948 -1.2554
  180SOPE   H3S20527   3.201   4.222   7.107 -0.8305 -0.1758 -0.5396
  180SOPE   C2420528   3.244   4.111   7.282  0.1270  0.3727  0.1649
  180SOPE   H4R20529   3.239   4.003   7.308 -0.0649 -0.2595 -2.3082
  180SOPE   H4S20530   3.353   4.134   7.278  0.3062 -0.0609  1.6731
  180SOPE   C2520531   3.182   4.205   7.387  0.8435  0.4122 -0.0369
  180SOPE   H5R20532   3.247   4.295   7.399  2.0271 -0.3623 -0.4767
  180SOPE   H5S20533   3.095   4.244   7.330  0.9153  2.1496  0.9896
  180SOPE   C2620534   3.140   4.150   7.520  0.7996 -0.2570  0.6112
  180SOPE   H6R20535   3.072   4.230   7.557  0.4858 -0.6208  0.8296
  180SOPE   H6S20536   3.076   4.059   7.515  1.0306 -0.3772 -0.2465
  180SOPE   C2720537   3.260   4.139   7.610  0.4880 -0.4180  0.4789
  180SOPE   H7R20538   3.332   4.060   7.581  1.1364 -0.5976  2.4365
  180SOPE   H7S20539   3.300   4.242   7.619  1.6737 -0.6659 -1.3687
  180SOPE   C2820540   3.235   4.095   7.758 -0.3074  0.2001 -0.2277
  180SOPE   H8R20541   3.198   3.990   7.750 -0.3372  0.2011 -0.1005
  180SOPE   H8S20542   3.337   4.087   7.801 -0.4866 -1.7913 -0.0693
  180SOPE   C2920543   3.141   4.186   7.831  0.4703  0.8782 -0.1984
  180SOPE   H9120544   3.040   4.207   7.791  0.2061  2.0273  0.9666
  180SOPE  C21020545   3.170   4.263   7.931  0.2619  0.2974 -0.5315
  180SOPE  H10120546   3.097   4.338   7.963  0.2058 -0.5986  1.5651
  180SOPE  C21120547   3.303   4.254   8.009  0.4482 -0.0062  0.3083
  180SOPE  H11R20548   3.358   4.348   7.986  0.9772 -0.2370  0.6205
  180SOPE  H11S20549   3.375   4.172   7.988  1.3125  0.7095  0.4546
  180SOPE  C21220550   3.266   4.244   8.152  0.7675 -0.4651 -0.4364
  180SOPE  H12R20551   3.217   4.146   8.169 -1.2233  0.1960 -1.9902
  180SOPE  H12S20552   3.177   4.306   8.179 -0.4563 -0.6812 -3.5946
  180SOPE  C21320553   3.367   4.281   8.256 -0.5009  0.9843 -0.9018
  180SOPE  H13R20554   3.393   4.389   8.263  0.8206  0.6099  0.9092
  180SOPE  H13S20555   3.463   4.234   8.228  0.0484  2.5780 -1.8217
  180SOPE  C21420556   3.317   4.225   8.390  0.5953  0.3163 -0.7891
  180SOPE  H14R20557   3.328   4.115   8.400  2.4516  0.5452  0.2184
  180SOPE  H14S20558   3.208   4.244   8.404  0.8013  0.8679  0.1500
  180SOPE  C21520559   3.384   4.296   8.511  0.1284  0.4951 -0.0980
  180SOPE  H15R20560   3.379   4.406   8.496 -1.4274  0.5672  0.7702
  180SOPE  H15S20561   3.485   4.251   8.522  0.2173  0.4855 -0.9209
  180SOPE  C21620562   3.307   4.270   8.638  0.8161 -0.0046 -0.5799
  180SOPE  H16R20563   3.301   4.162   8.667  0.5656  0.0540 -0.4046
  180SOPE  H16S20564   3.201   4.300   8.627  0.5554 -1.4851 -2.7892
  180SOPE  C21720565   3.367   4.346   8.758  0.4052 -0.2485 -0.4352
  180SOPE  H17R20566   3.353   4.451   8.726 -1.8141  0.4169  2.2666
  180SOPE  H17S20567   3.474   4.326   8.778  0.1380  0.1313  1.6476
  180SOPE  C21820568   3.286   4.316   8.887  0.3217  0.2176  0.1531
  180SOPE  H18R20569   3.300   4.407   8.950 -3.2728  0.4198  0.8821
  180SOPE  H18S20570   3.317   4.232   8.953 -0.1197  1.5490  2.1713
  180SOPE  H18T20571   3.178   4.304   8.865  0.5244  0.6189 -1.1092
  180SOPE   C3320572   3.598   3.584   7.048  0.5876 -0.1294 -0.3463
  180SOPE   H3X20573   3.606   3.689   7.084  1.0686  0.3108 -1.6659
  180SOPE   H3Y20574   3.695   3.531   7.037  0.9443  0.3139  0.5646
  180SOPE   C3420575   3.512   3.502   7.148 -0.4392 -0.3457  0.7527
  180SOPE   H4X20576   3.470   3.425   7.081 -2.8476  1.5043  0.0027
  180SOPE   H4Y20577   3.431   3.568   7.187 -1.4825  0.0633 -1.9203
  180SOPE   C3520578   3.585   3.443   7.265 -0.3420  0.3385 -0.1386
  180SOPE   H5X20579   3.612   3.517   7.343  2.5005  0.8114 -1.4615
  180SOPE   H5Y20580   3.684   3.401   7.236  0.1345  1.4071 -0.0886
  180SOPE   C3620581   3.498   3.340   7.343 -0.0926 -0.1328 -0.5628
  180SOPE   H6X20582   3.561   3.294   7.422  0.1010  0.0606 -0.6028
  180SOPE   H6Y20583   3.470   3.261   7.270 -0.3200 -0.5053 -0.0791
  180SOPE   C3720584   3.375   3.398   7.423 -0.9749 -0.3397 -0.2083
  180SOPE   H7X20585   3.307   3.312   7.439 -0.0678 -1.3211 -1.4895
  180SOPE   H7Y20586   3.334   3.486   7.368  0.5585 -0.3589 -1.4339
  180SOPE   C3820587   3.411   3.429   7.570 -0.9067 -0.3731 -0.1734
  180SOPE   H8X20588   3.325   3.482   7.616 -0.0391 -0.8639  2.1286
  180SOPE   H8Y20589   3.499   3.497   7.574 -0.2380 -1.2545  0.3343
  180SOPE   C3920590   3.418   3.309   7.662  0.4790 -0.5270 -0.5576
  180SOPE   H9X20591   3.503   3.248   7.627 -0.4000 -1.0980 -1.7759
  180SOPE   H9Y20592   3.321   3.256   7.654 -1.0844  2.1928 -0.9433
  180SOPE  C31020593   3.433   3.337   7.813  0.1330  0.3819  0.3413
  180SOPE  H10X20594   3.374   3.421   7.855  0.2047 -0.3447  1.9639
  180SOPE  H10Y20595   3.537   3.371   7.834 -0.2085  0.3180  2.3799
  180SOPE  C31120596   3.415   3.211   7.895  0.1866  0.3298 -0.2813
  180SOPE  H11X20597   3.435   3.227   8.003  0.8623  0.1370 -0.3703
  180SOPE  H11Y20598   3.495   3.145   7.855 -0.1539 -0.1524 -0.1771
  180SOPE  C31220599   3.284   3.134   7.892 -0.3312 -0.2337  0.1284
  180SOPE  H12X20600   3.295   3.062   7.975  1.9103  0.3076  0.3662
  180SOPE  H12Y20601   3.281   3.062   7.808  0.4814  0.6625 -0.7004
  180SOPE  C31320602   3.156   3.211   7.898 -0.3337 -0.8742  0.1504
  180SOPE  H13X20603   3.158   3.288   7.818  2.7733  0.6479  1.4686
  180SOPE  H13Y20604   3.154   3.280   7.986 -0.6038 -1.7076  0.8084
  180SOPE  C31420605   3.036   3.115   7.896 -0.1465  0.5688  0.2518
  180SOPE  H14X20606   3.025   3.054   7.988 -1.5656  3.0845  1.8980
  180SOPE  H14Y20607   3.065   3.048   7.813 -0.6510  1.4142 -0.6342
  180SOPE  C31520608   2.899   3.181   7.867 -0.2517  0.1568  0.1785
  180SOPE  H15X20609   2.900   3.245   7.777 -2.1315  2.3785  1.6426
  180SOPE  H15Y20610   2.881   3.252   7.950  1.9473 -0.3036  1.1120
  180SOPE  C31620611   2.796   3.069   7.844 -0.3393  0.0940  0.1202
  180SOPE  H16X20612   2.836   3.029   7.748  1.3773  3.2120 -0.6186
  180SOPE  H16Y20613   2.703   3.124   7.820  1.6480  3.3658 -0.7046
  180SOPE  C31720614   2.760   2.959   7.952 -0.2573 -1.2219  0.0044
  180SOPE  H17X20615   2.726   3.018   8.040 -0.8027 -1.2623 -0.1750
  180SOPE  H17Y20616   2.855   2.914   7.988 -0.0199 -0.8671 -0.1716
  180SOPE  C31820617   2.661   2.851   7.904  0.2579  0.1686  0.2196
  180SOPE  H18X20618   2.566   2.897   7.870 -0.6242 -2.0235 -0.4342
  180SOPE  H18Y20619   2.647   2.779   7.987 -1.3462  0.9763  0.6908
  180SOPE  H18Z20620   2.712   2.797   7.822 -1.1540 -0.0610 -0.5446
  181SOPE     N20621   1.481   0.523   5.918  0.3514 -0.4955 -0.0508
  181SOPE   HN120622   1.564   0.563   5.872 -0.1717  0.2017 -0.4023
  181SOPE   HN220623   1.502   0.426   5.949  0.4683 -1.0956 -1.9203
  181SOPE   HN320624   1.409   0.524   5.843 -1.9258  1.1081  1.9665
  181SOPE   C1220625   1.431   0.603   6.034 -0.7143  0.4243 -0.1489
  181SOPE  H12A20626   1.509   0.590   6.112 -1.5086  0.2300  0.6125
  181SOPE  H12B20627   1.338   0.554   6.068  0.1953 -0.7351  0.7580
  181SOPE   C1120628   1.403   0.749   5.991  0.4696 -0.4785 -0.3358
  181SOPE  H11A20629   1.353   0.786   6.082  2.0674 -0.4241  0.5613
  181SOPE  H11B20630   1.327   0.753   5.910  0.2256 -0.0198 -0.0826
  181SOPE     P20631   1.616   0.868   6.080 -0.1975  0.2314 -0.3309
  181SOPE   O1320632   1.693   0.986   6.034 -0.2988 -0.0398  0.4007
  181SOPE   O1420633   1.703   0.752   6.119 -0.6622  0.0862  0.1310
  181SOPE   O1220634   1.521   0.816   5.962 -0.0713 -0.1744 -0.1427
  181SOPE   O1120635   1.531   0.912   6.200 -0.0622  0.2589  0.4480
  181SOPE    C120636   1.487   0.839   6.315  0.1999  0.0438 -0.0349
  181SOPE    HA20637   1.557   0.755   6.330 -1.3118 -1.3268 -0.4347
  181SOPE    HB20638   1.385   0.797   6.304  0.9225 -1.5948 -0.7760
  181SOPE    C220639   1.493   0.919   6.452  0.1445  0.5104  0.5874
  181SOPE    HS20640   1.523   0.847   6.531  0.4593 -1.0215 -0.8643
  181SOPE   O2120641   1.363   0.984   6.480  0.0571  0.3480 -0.3197
  181SOPE   C2120642   1.308   0.959   6.591 -0.4954  0.3501  0.0227
  181SOPE   O2220643   1.362   0.918   6.695 -0.2841  1.1915  0.3375
  181SOPE   C2220644   1.162   0.989   6.573  0.3454 -0.0976  0.2693
  181SOPE   H2R20645   1.139   0.922   6.487 -0.6493  2.7326 -1.8215
  181SOPE   H2S20646   1.162   1.095   6.541  0.8884 -0.2327 -0.1933
  181SOPE    C320647   1.598   1.029   6.455  0.1450 -0.2740 -0.1929
  181SOPE    HX20648   1.563   1.117   6.397 -1.7844 -1.2785 -0.6426
  181SOPE    HY20649   1.690   0.994   6.403  2.3626  2.4874  1.5578
  181SOPE   O3120650   1.642   1.055   6.599  0.0234  0.3087  0.6787
  181SOPE   C3120651   1.602   1.177   6.650 -0.5901 -0.3012 -0.5039
  181SOPE   O3220652   1.560   1.269   6.586 -0.5582 -0.0848 -0.2736
  181SOPE   C3220653   1.643   1.182   6.797  0.1004  0.4061  0.2164
  181SOPE   H2X20654   1.750   1.210   6.810  0.5077 -0.4803 -1.0184
  181SOPE   H2Y20655   1.641   1.077   6.832  3.3748  0.4960  1.0037
  181SOPE   C2320656   1.081   0.957   6.702 -0.5757  0.1166 -0.0025
  181SOPE   H3R20657   1.115   0.855   6.728  0.9416  0.2074 -1.4290
  181SOPE   H3S20658   0.976   0.945   6.668 -0.5493 -0.9667  0.2620
  181SOPE   C2420659   1.095   1.067   6.805  0.1774  0.4551 -0.1362
  181SOPE   H4R20660   1.199   1.079   6.843  0.2609  1.8114 -0.7668
  181SOPE   H4S20661   1.074   1.167   6.762  2.1812  0.9991  0.0342
  181SOPE   C2520662   1.007   1.056   6.932 -0.1532 -0.0547  0.4086
  181SOPE   H5R20663   0.897   1.050   6.917  0.1209 -1.0552 -1.5115
  181SOPE   H5S20664   1.033   0.960   6.981  0.1026 -0.2093 -0.0179
  181SOPE   C2620665   1.035   1.183   7.019 -0.6359 -0.9844 -0.0469
  181SOPE   H6R20666   1.140   1.218   7.016 -1.0962  0.3780 -1.9139
  181SOPE   H6S20667   0.977   1.260   6.965  0.6262  0.3937  0.5116
  181SOPE   C2720668   0.988   1.172   7.167 -0.3539 -0.1828  0.2002
  181SOPE   H7R20669   0.887   1.127   7.168 -1.3739  1.9614  1.8776
  181SOPE   H7S20670   1.058   1.109   7.228  0.0980  1.6221  1.6252
  181SOPE   C2820671   0.986   1.312   7.232 -0.2352  0.0272 -0.1482
  181SOPE   H8R20672   1.028   1.292   7.332 -2.1951 -3.0892  0.1897
  181SOPE   H8S20673   1.060   1.373   7.177 -0.0831 -0.5595 -0.6079
  181SOPE   C2920674   0.843   1.366   7.230 -0.0758 -0.7089  0.1246
  181SOPE   H9120675   0.815   1.424   7.141 -1.7838 -1.7426 -0.0451
  181SOPE  C21020676   0.751   1.371   7.329  0.2264 -0.1405  0.1510
  181SOPE  H10120677   0.655   1.423   7.314  0.3852  0.0219 -0.3110
  181SOPE  C21120678   0.770   1.319   7.470  0.3595  0.2210 -0.1330
  181SOPE  H11R20679   0.835   1.230   7.461 -0.9316 -0.6848 -0.9103
  181SOPE  H11S20680   0.679   1.281   7.522  1.3080 -1.6821  0.1925
  181SOPE  C21220681   0.839   1.403   7.581  0.1782 -0.4850 -0.9440
  181SOPE  H12R20682   0.940   1.433   7.548  0.2263  0.4108 -0.0139
  181SOPE  H12S20683   0.841   1.348   7.677 -0.9914  0.4639 -0.3540
  181SOPE  C21320684   0.762   1.530   7.617 -0.3688 -0.8481  0.1179
  181SOPE  H13R20685   0.663   1.495   7.654  0.0433 -0.7535  1.3628
  181SOPE  H13S20686   0.745   1.590   7.525 -2.6040 -0.4522  0.7476
  181SOPE  C21420687   0.842   1.611   7.724  0.3660  0.0897 -0.6646
  181SOPE  H14R20688   0.945   1.639   7.693  0.6299  1.4545  1.3283
  181SOPE  H14S20689   0.856   1.558   7.820 -1.2014  1.2618  0.2470
  181SOPE  C21520690   0.791   1.748   7.757 -0.4103 -0.1859 -0.2865
  181SOPE  H15R20691   0.780   1.816   7.670  0.6998  0.3342 -0.0415
  181SOPE  H15S20692   0.882   1.782   7.812 -2.7901  0.5676  3.5764
  181SOPE  C21620693   0.662   1.740   7.839  0.3655 -0.0219 -0.0566
  181SOPE  H16R20694   0.686   1.678   7.929 -0.3926 -0.7470 -0.3393
  181SOPE  H16S20695   0.591   1.671   7.789  1.8816 -2.3952  0.8730
  181SOPE  C21720696   0.603   1.875   7.877  0.5581  0.3329 -0.2478
  181SOPE  H17R20697   0.493   1.872   7.887  0.6516 -2.3474  0.6578
  181SOPE  H17S20698   0.632   1.953   7.802 -2.1026  1.2388 -0.4454
  181SOPE  C21820699   0.632   1.934   8.014  0.5454  0.2453 -0.1098
  181SOPE  H18R20700   0.578   1.874   8.090  0.3246 -1.9258 -1.8636
  181SOPE  H18S20701   0.590   2.037   8.022 -2.0900 -0.7571  0.1209
  181SOPE  H18T20702   0.740   1.932   8.039  0.7233  2.4909 -0.4966
  181SOPE   C3320703   1.543   1.266   6.873  0.9448  0.3318  0.7170
  181SOPE   H3X20704   1.439   1.231   6.856  0.7521  1.3650 -0.3184
  181SOPE   H3Y20705   1.535   1.373   6.848  2.0998 -0.0514 -1.5769
  181SOPE   C3420706   1.566   1.248   7.023  0.2690 -0.0790  0.0576
  181SOPE   H4X20707   1.647   1.320   7.048  1.3605 -1.2335 -0.0762
  181SOPE   H4Y20708   1.602   1.143   7.029  1.1122  0.2285  0.4650
  181SOPE   C3520709   1.446   1.269   7.108  0.5754  0.1542  0.4618
  181SOPE   H5X20710   1.364   1.204   7.071  0.0233  0.0664  1.7901
  181SOPE   H5Y20711   1.416   1.376   7.098 -1.4574 -0.3685  0.4660
  181SOPE   C3620712   1.455   1.231   7.258 -0.6418 -0.2690  0.3073
  181SOPE   H6X20713   1.541   1.291   7.297 -0.1664 -0.6602 -0.1258
  181SOPE   H6Y20714   1.474   1.126   7.287 -0.6002 -0.2275  0.4328
  181SOPE   C3720715   1.326   1.258   7.328 -0.2542  0.7370 -0.6902
  181SOPE   H7X20716   1.253   1.189   7.281 -0.8694 -0.6726  2.1673
  181SOPE   H7Y20717   1.280   1.359   7.318 -0.6824  0.9678  2.5432
  181SOPE   C3820718   1.320   1.222   7.476 -0.5900  0.5161  0.1118
  181SOPE   H8X20719   1.419   1.193   7.517  1.1505  2.0777 -2.6689
  181SOPE   H8Y20720   1.248   1.139   7.490 -1.3731  1.3133  1.0085
  181SOPE   C3920721   1.277   1.343   7.558 -0.0843  1.0978  1.2142
  181SOPE   H9X20722   1.188   1.376   7.501 -0.7339 -0.3167  1.3628
  181SOPE   H9Y20723   1.355   1.421   7.553  0.6346  0.3103 -1.6299
  181SOPE  C31020724   1.220   1.314   7.693  0.1963  0.6432  0.4205
  181SOPE  H10X20725   1.288   1.263   7.765 -1.0971 -2.1582 -0.1804
  181SOPE  H10Y20726   1.140   1.237   7.681  1.3342 -0.4331 -0.4623
  181SOPE  C31120727   1.180   1.447   7.754  0.8283 -0.1676  0.0138
  181SOPE  H11X20728   1.098   1.482   7.686  2.4309 -0.7187 -2.3355
  181SOPE  H11Y20729   1.263   1.517   7.775  1.0936 -0.5486  0.2424
  181SOPE  C31220730   1.099   1.429   7.894  0.1553 -0.3506  0.1797
  181SOPE  H12X20731   1.008   1.368   7.873 -0.8487  1.0357  0.4146
  181SOPE  H12Y20732   1.061   1.523   7.939 -1.9012 -0.8438 -0.4033
  181SOPE  C31320733   1.178   1.368   7.999 -0.1643  0.0694 -0.0666
  181SOPE  H13X20734   1.263   1.437   8.021 -0.9694  1.4953 -1.2452
  181SOPE  H13Y20735   1.215   1.265   7.981 -1.4869 -1.1751  3.4497
  181SOPE  C31420736   1.092   1.340   8.120  0.1491 -0.6014 -0.1342
  181SOPE  H14X20737   1.012   1.268   8.092 -1.2429  0.5822  0.6138
  181SOPE  H14Y20738   1.039   1.430   8.160  0.3411 -0.8826  0.7879
  181SOPE  C31520739   1.171   1.289   8.241  0.1162 -0.2593 -0.2585
  181SOPE  H15X20740   1.245   1.365   8.274  0.5739 -0.1928 -1.4127
  181SOPE  H15Y20741   1.228   1.196   8.217  1.7835  0.3332  1.2105
  181SOPE  C31620742   1.083   1.257   8.364 -0.8094  0.8701 -0.6535
  181SOPE  H16X20743   0.992   1.203   8.329  0.6453 -2.6779  0.5803
  181SOPE  H16Y20744   1.049   1.352   8.411 -1.7456 -0.5607  1.7056
  181SOPE  C31720745   1.144   1.164   8.475  0.5944 -1.3292  0.2449
  181SOPE  H17X20746   1.062   1.153   8.549 -0.1193  1.1720 -0.0724
  181SOPE  H17Y20747   1.229   1.216   8.526 -0.1064 -2.3666  2.5973
  181SOPE  C31820748   1.177   1.019   8.434 -0.0340  0.2634 -0.1206
  181SOPE  H18X20749   1.104   0.973   8.363  2.3350 -1.1781 -1.8058
  181SOPE  H18Y20750   1.197   0.959   8.525 -2.0719  1.7376  1.3765
  181SOPE  H18Z20751   1.275   1.024   8.381  1.1956 -4.3712  1.2277
  182SOPE     N20752   0.510   2.801   6.138  0.0204  0.1277  0.0500
  182SOPE   HN120753   0.435   2.733   6.162  1.9750 -1.0937  3.3517
  182SOPE   HN220754   0.470   2.853   6.057  1.3497 -0.3857 -0.9703
  182SOPE   HN320755   0.589   2.744   6.101  0.2901  1.1476 -1.0129
  182SOPE   C1220756   0.551   2.892   6.251  0.3231 -0.7883  0.1370
  182SOPE  H12A20757   0.464   2.955   6.277  0.4757 -0.7513  0.5640
  182SOPE  H12B20758   0.635   2.956   6.215  2.4291 -3.0182  0.7838
  182SOPE   C1120759   0.601   2.821   6.375  0.1994  0.1722 -0.2759
  182SOPE  H11A20760   0.517   2.756   6.407 -0.3561 -1.2376 -4.0789
  182SOPE  H11B20761   0.601   2.902   6.450 -0.7931 -1.4964  1.6258
  182SOPE     P20762   0.709   2.595   6.348 -0.1166 -0.0052  0.5502
  182SOPE   O1320763   0.824   2.532   6.281 -0.7220 -0.2458  0.2350
  182SOPE   O1420764   0.582   2.568   6.278 -0.5898 -0.0207  0.6597
  182SOPE   O1220765   0.726   2.753   6.360  0.4143  0.4636  0.8015
  182SOPE   O1120766   0.699   2.546   6.495  0.0836  0.1780 -0.1484
  182SOPE    C120767   0.779   2.607   6.599  0.6169  0.0680  0.9251
  182SOPE    HA20768   0.739   2.589   6.701  0.0492  0.1891  0.7236
  182SOPE    HB20769   0.793   2.715   6.578 -1.3160  0.1416 -0.1579
  182SOPE    C220770   0.929   2.552   6.596 -0.3736  0.5422  0.0960
  182SOPE    HS20771   0.979   2.559   6.497  1.5092 -0.7801  0.8946
  182SOPE   O2120772   0.925   2.413   6.638 -0.5126  0.6965  0.7242
  182SOPE   C2120773   1.036   2.341   6.618 -0.2349  0.5300 -0.0699
  182SOPE   O2220774   1.137   2.378   6.562 -0.1608  0.2141 -0.0412
  182SOPE   C2220775   1.014   2.202   6.659  0.0352  0.3229  0.0658
  182SOPE   H2R20776   1.048   2.141   6.573 -2.4581 -0.5409 -0.4180
  182SOPE   H2S20777   0.903   2.197   6.660  0.0805 -1.0410  0.3374
  182SOPE    C320778   1.017   2.641   6.690  0.1883  0.2778  0.3535
  182SOPE    HX20779   1.015   2.742   6.645  0.2925 -0.6699 -1.8858
  182SOPE    HY20780   1.125   2.614   6.683  0.9208  2.1322  2.8172
  182SOPE   O3120781   0.964   2.641   6.822 -0.6584  0.7867  0.0374
  182SOPE   C3120782   1.047   2.689   6.919 -0.3613 -0.4838  0.3516
  182SOPE   O3220783   1.158   2.730   6.893 -0.1860 -0.2546 -0.0222
  182SOPE   C3220784   0.978   2.670   7.054  0.3602 -0.0061  0.0900
  182SOPE   H2X20785   0.962   2.562   7.074 -1.7756  0.6150  2.2040
  182SOPE   H2Y20786   0.881   2.724   7.053 -0.4006 -1.3378  0.0960
  182SOPE   C2320787   1.079   2.161   6.795  0.5239 -0.0579 -0.6730
  182SOPE   H3R20788   1.187   2.187   6.790  0.5465 -0.2444 -1.2425
  182SOPE   H3S20789   1.088   2.051   6.804  0.9489  0.0450  0.3520
  182SOPE   C2420790   1.007   2.222   6.921 -0.3323 -0.8994  0.4508
  182SOPE   H4R20791   0.981   2.329   6.902 -0.3918 -0.3690  3.2177
  182SOPE   H4S20792   0.915   2.165   6.943 -0.2983 -1.0483  0.2126
  182SOPE   C2520793   1.093   2.198   7.037 -0.3979 -0.3420 -0.5169
  182SOPE   H5R20794   1.110   2.089   7.051 -1.9056 -0.7593 -1.6700
  182SOPE   H5S20795   1.188   2.251   7.015 -0.7022 -0.1909 -1.5046
  182SOPE   C2620796   1.036   2.236   7.172 -0.3639  0.1533 -0.3860
  182SOPE   H6R20797   1.004   2.343   7.172  1.1720  0.6561  1.2573
  182SOPE   H6S20798   0.939   2.184   7.187 -0.9290  1.2277 -0.1883
  182SOPE   C2720799   1.129   2.221   7.291 -0.5434 -0.0348 -0.0135
  182SOPE   H7R20800   1.179   2.125   7.266  0.1914  0.9004 -2.3862
  182SOPE   H7S20801   1.208   2.298   7.288  1.3337 -1.8367  0.7762
  182SOPE   C2820802   1.064   2.235   7.435  0.4174 -0.1628  0.0301
  182SOPE   H8R20803   1.010   2.332   7.443 -0.2101 -0.4575 -0.4842
  182SOPE   H8S20804   0.979   2.162   7.437 -1.2460  1.6466 -1.2717
  182SOPE   C2920805   1.162   2.223   7.550  0.5092  0.4112  0.6193
  182SOPE   H9120806   1.243   2.295   7.532  1.2734 -0.7389 -0.7793
  182SOPE  C21020807   1.134   2.153   7.657  0.9912 -0.3113 -0.2964
  182SOPE  H10120808   1.210   2.159   7.736 -0.8092 -0.4575  1.5331
  182SOPE  C21120809   1.009   2.073   7.688  0.0587 -0.5598 -0.7274
  182SOPE  H11R20810   1.053   1.975   7.716  1.4727 -0.0070 -0.9396
  182SOPE  H11S20811   0.942   2.043   7.605  0.4458 -1.5381 -0.6923
  182SOPE  C21220812   0.937   2.128   7.812  0.3132 -0.1953  0.3799
  182SOPE  H12R20813   0.847   2.064   7.825 -1.1884  0.6786 -4.0108
  182SOPE  H12S20814   0.901   2.232   7.794 -0.2158 -0.0448  2.1669
  182SOPE  C21320815   1.014   2.135   7.939  0.2075 -0.2745 -0.1637
  182SOPE  H13R20816   1.095   2.210   7.924  0.7895 -0.1851  2.8724
  182SOPE  H13S20817   1.062   2.036   7.959 -1.4433 -0.7182  1.9640
  182SOPE  C21420818   0.925   2.172   8.051  0.7361  0.3822 -0.2541
  182SOPE  H14R20819   0.852   2.088   8.059  1.5327 -0.3616 -0.6651
  182SOPE  H14S20820   0.862   2.257   8.017 -0.5665  0.8478  2.9646
  182SOPE  C21520821   0.989   2.215   8.182  0.5300 -0.6991 -0.2565
  182SOPE  H15R20822   0.904   2.224   8.254 -0.2788  1.1526 -1.3524
  182SOPE  H15S20823   1.015   2.323   8.186  0.5525 -0.7158  0.1951
  182SOPE  C21620824   1.097   2.121   8.234 -0.1200 -0.4767 -0.0490
  182SOPE  H16R20825   1.175   2.114   8.155  0.6344 -0.2240  0.6549
  182SOPE  H16S20826   1.042   2.025   8.243 -0.5762 -0.0668  2.2041
  182SOPE  C21720827   1.143   2.165   8.375  0.1361 -0.3471  0.4625
  182SOPE  H17R20828   1.057   2.216   8.424 -1.9936 -3.0313 -0.2058
  182SOPE  H17S20829   1.226   2.238   8.370  0.0972 -0.3681 -1.2924
  182SOPE  C21820830   1.195   2.055   8.463 -0.8656 -0.6793  0.0718
  182SOPE  H18R20831   1.270   1.984   8.422  2.4609  1.4651  2.0005
  182SOPE  H18S20832   1.108   1.989   8.483 -1.2862 -1.2253 -2.9813
  182SOPE  H18T20833   1.240   2.101   8.554  1.6613 -1.3947 -0.7298
  182SOPE   C3320834   1.058   2.721   7.178  0.6618 -0.2065  0.6526
  182SOPE   H3X20835   0.974   2.726   7.251  0.0789  1.5645 -0.0976
  182SOPE   H3Y20836   1.098   2.821   7.152  0.1549 -0.3873 -0.9635
  182SOPE   C3420837   1.167   2.615   7.225  1.2343 -0.0532 -0.3080
  182SOPE   H4X20838   1.255   2.611   7.157  1.6034  0.7995  0.1029
  182SOPE   H4Y20839   1.126   2.512   7.228 -1.5613  0.9671  1.7139
  182SOPE   C3520840   1.235   2.640   7.365 -0.0520 -0.0597  0.7499
  182SOPE   H5X20841   1.237   2.751   7.373  0.3516  0.3297 -3.1083
  182SOPE   H5Y20842   1.337   2.597   7.366 -0.3905 -0.9469  2.5596
  182SOPE   C3620843   1.159   2.570   7.473  0.3824 -0.5445  0.7873
  182SOPE   H6X20844   1.169   2.460   7.461 -0.4203 -0.6203  0.7533
  182SOPE   H6Y20845   1.049   2.587   7.464  0.4822 -0.2229  0.1095
  182SOPE   C3720846   1.194   2.605   7.614 -0.7207 -0.3508  0.1023
  182SOPE   H7X20847   1.170   2.714   7.619  1.3377  0.1802 -0.6567
  182SOPE   H7Y20848   1.303   2.592   7.628 -0.7155 -0.5142 -0.0811
  182SOPE   C3820849   1.112   2.540   7.731  0.4810  0.0101 -0.3276
  182SOPE   H8X20850   1.122   2.429   7.733 -2.5262 -0.3255  0.7862
  182SOPE   H8Y20851   1.006   2.559   7.706  0.9876  0.0268 -2.7355
  182SOPE   C3920852   1.140   2.582   7.878 -0.3534 -0.3646  0.1330
  182SOPE   H9X20853   1.068   2.517   7.933 -2.6992  1.5285 -0.4967
  182SOPE   H9Y20854   1.101   2.684   7.899  0.3187 -0.3317  1.3221
  182SOPE  C31020855   1.285   2.557   7.918  0.0178 -0.1425 -0.5997
  182SOPE  H10X20856   1.360   2.609   7.855  0.3233  0.9375  0.6235
  182SOPE  H10Y20857   1.301   2.447   7.913 -0.5556 -0.3547  1.5149
  182SOPE  C31120858   1.328   2.595   8.061 -0.9186 -0.5456  0.2697
  182SOPE  H11X20859   1.253   2.547   8.128 -2.1291  1.9323  0.8217
  182SOPE  H11Y20860   1.311   2.704   8.078 -1.0330 -0.6181  0.6326
  182SOPE  C31220861   1.477   2.558   8.095 -0.1964 -0.2581  0.5324
  182SOPE  H12X20862   1.496   2.593   8.199  1.4307  2.6742 -0.6185
  182SOPE  H12Y20863   1.542   2.603   8.017 -2.2548 -0.3932 -1.3341
  182SOPE  C31320864   1.504   2.409   8.084 -0.1592 -0.4248 -0.7290
  182SOPE  H13X20865   1.481   2.370   7.983  1.1474 -0.9369 -0.8516
  182SOPE  H13Y20866   1.438   2.368   8.163 -1.9031  0.7037 -1.5464
  182SOPE  C31420867   1.641   2.374   8.125 -1.3986  0.0893 -0.6702
  182SOPE  H14X20868   1.656   2.423   8.223  1.8599  0.8909 -1.4386
  182SOPE  H14Y20869   1.716   2.415   8.054 -2.3046  2.4671 -0.3335
  182SOPE  C31520870   1.659   2.223   8.154  0.2879  0.2175 -0.4436
  182SOPE  H15X20871   1.664   2.166   8.059 -1.8030  0.5087 -0.7878
  182SOPE  H15Y20872   1.573   2.181   8.212  0.8418 -0.8008 -0.3253
  182SOPE  C31620873   1.781   2.205   8.250  0.4526 -0.3394 -0.1868
  182SOPE  H16X20874   1.781   2.094   8.264 -0.6425 -0.4871 -1.2547
  182SOPE  H16Y20875   1.756   2.247   8.350  0.2068 -0.3566 -0.2392
  182SOPE  C31720876   1.916   2.247   8.189 -0.3288 -0.6656 -0.7538
  182SOPE  H17X20877   1.922   2.357   8.173 -0.2941 -0.6415 -0.5709
  182SOPE  H17Y20878   1.925   2.193   8.092 -2.5708 -2.4481 -0.0654
  182SOPE  C31820879   2.042   2.223   8.274 -0.2235 -0.1458  0.0229
  182SOPE  H18X20880   2.083   2.120   8.268  0.8850  0.2915 -0.2421
  182SOPE  H18Y20881   2.019   2.249   8.380 -1.1112 -1.0224  0.0619
  182SOPE  H18Z20882   2.123   2.297   8.253 -0.6428  0.3048 -0.0228
  183SOPE     N20883   3.956   0.099   6.206 -0.6121  0.2822  0.0389
  183SOPE   HN120884   3.852   0.094   6.209 -0.5766 -0.2280  2.8725
  183SOPE   HN220885   3.989   0.192   6.173 -1.3127  0.7128  0.5475
  183SOPE   HN320886   3.997   0.028   6.142  0.2784 -0.5792  1.5291
  183SOPE   C1220887   3.995   0.060   6.346  0.8579  0.1225 -0.0732
  183SOPE  H12A20888   3.953   0.132   6.419  1.6290  0.6048 -0.0905
  183SOPE  H12B20889   4.105   0.070   6.355  0.6429  0.9871  2.0507
  183SOPE   C1120890   3.950  -0.087   6.376  0.2343  0.9610 -0.1153
  183SOPE  H11A20891   3.840  -0.084   6.368  0.0008  0.3134  2.1399
  183SOPE  H11B20892   3.973  -0.099   6.485  0.5539  0.6089 -0.2170
  183SOPE     P20893   4.166  -0.239   6.311 -0.0159  0.0682  0.4915
  183SOPE   O1320894   4.245  -0.149   6.229  0.4477 -0.2518  0.5528
  183SOPE   O1420895   4.173  -0.387   6.285 -0.1570 -0.2540 -0.0961
  183SOPE   O1220896   4.016  -0.184   6.294 -0.2502  0.1381  0.0115
  183SOPE   O1120897   4.204  -0.210   6.461  0.3595 -0.1396 -0.6242
  183SOPE    C120898   4.190  -0.312   6.559  0.3993  0.7939 -1.1436
  183SOPE    HA20899   4.253  -0.401   6.537  1.7719  1.2855  0.5889
  183SOPE    HB20900   4.086  -0.347   6.573  0.7576 -0.7109 -2.0079
  183SOPE    C220901   4.233  -0.275   6.710  0.1241  0.6335 -0.4618
  183SOPE    HS20902   4.185  -0.344   6.783  0.9067  0.3683 -0.1932
  183SOPE   O2120903   4.203  -0.142   6.737 -0.2951 -0.2750 -1.0332
  183SOPE   C2120904   4.078  -0.105   6.755  0.6371 -0.0783  0.5141
  183SOPE   O2220905   3.979  -0.178   6.751  0.1966 -0.0460 -0.6915
  183SOPE   C2220906   4.064   0.042   6.786  0.0592 -0.1605 -0.5600
  183SOPE   H2R20907   3.987   0.085   6.719  1.6036  1.1500 -1.5848
  183SOPE   H2S20908   4.159   0.098   6.766 -1.0060  0.8252 -3.3860
  183SOPE    C320909   4.393  -0.285   6.714 -0.0634 -0.1180 -0.4185
  183SOPE    HX20910   4.424  -0.197   6.654 -1.6822  0.5836 -0.2879
  183SOPE    HY20911   4.414  -0.376   6.653 -1.9044  0.0073 -1.3146
  183SOPE   O3120912   4.445  -0.281   6.842 -0.0813  0.7094  0.0625
  183SOPE   C3120913   4.499  -0.401   6.886  0.1601  0.1772  0.0648
  183SOPE   O3220914   4.477  -0.507   6.835 -0.1101 -0.0174 -0.4231
  183SOPE   C3220915   4.562  -0.393   7.026  0.6796  0.0260 -0.4978
  183SOPE   H2X20916   4.595  -0.289   7.045  4.5139 -0.7929 -1.8733
  183SOPE   H2Y20917   4.647  -0.465   7.032  1.4211  0.9695  1.0512
  183SOPE   C2320918   4.020   0.078   6.927  0.3844  0.0508 -0.1145
  183SOPE   H3R20919   4.020   0.189   6.933  0.2132  0.1302 -1.4012
  183SOPE   H3S20920   4.101   0.041   6.994  1.6076  2.2069 -0.3259
  183SOPE   C2420921   3.885   0.024   6.967  0.4636  0.7151 -0.1035
  183SOPE   H4R20922   3.802   0.081   6.920 -1.1270 -2.0822 -0.9717
  183SOPE   H4S20923   3.874  -0.080   6.927  1.2024 -0.0787  1.6519
  183SOPE   C2520924   3.863   0.006   7.115  0.3952 -0.3824 -0.0071
  183SOPE   H5R20925   3.764  -0.043   7.126  1.4603 -2.2321  2.1105
  183SOPE   H5S20926   3.949  -0.058   7.145  0.0107 -2.4431 -2.8197
  183SOPE   C2620927   3.861   0.134   7.199  0.2029  0.3417 -0.4528
  183SOPE   H6R20928   3.930   0.211   7.158  0.9865 -0.4690 -0.6953
  183SOPE   H6S20929   3.758   0.175   7.202  0.1281  0.1171  0.3596
  183SOPE   C2720930   3.914   0.092   7.339  0.6778  0.0855  0.7023
  183SOPE   H7R20931   3.860   0.003   7.376 -3.1087  1.6629 -0.5609
  183SOPE   H7S20932   4.020   0.071   7.313 -0.3762 -2.2026 -2.3690
  183SOPE   C2820933   3.903   0.207   7.446  0.4818  0.3338 -0.1283
  183SOPE   H8R20934   3.976   0.182   7.526 -0.4132  0.6557  0.8184
  183SOPE   H8S20935   3.928   0.298   7.388 -0.4511  1.6244  1.4210
  183SOPE   C2920936   3.772   0.251   7.505  0.0313  0.1969 -0.2208
  183SOPE   H9120937   3.728   0.343   7.464 -1.9883 -0.1787  0.9778
  183SOPE  C21020938   3.708   0.185   7.602 -0.2395  0.4822  0.3000
  183SOPE  H10120939   3.610   0.217   7.640 -0.2437 -0.9674  1.5899
  183SOPE  C21120940   3.754   0.061   7.676 -0.1790  0.1683 -0.2506
  183SOPE  H11R20941   3.855   0.022   7.654  0.4396  1.7545 -0.3277
  183SOPE  H11S20942   3.683  -0.021   7.652  1.0459 -1.4248  1.3181
  183SOPE  C21220943   3.729   0.073   7.827 -0.6600  0.3599 -1.0846
  183SOPE  H12R20944   3.742  -0.031   7.864 -0.3652  0.3701 -1.1631
  183SOPE  H12S20945   3.624   0.103   7.849 -0.5918 -1.8642  3.3259
  183SOPE  C21320946   3.838   0.149   7.899 -0.1360 -0.1962 -0.2854
  183SOPE  H13R20947   3.869   0.246   7.853  1.4952 -0.3300  0.4482
  183SOPE  H13S20948   3.920   0.076   7.883 -0.5358 -0.2409 -2.3566
  183SOPE  C21420949   3.826   0.168   8.054  0.2185  0.1656  0.2764
  183SOPE  H14R20950   3.750   0.241   8.091  0.4142 -0.5518  2.1800
  183SOPE  H14S20951   3.925   0.209   8.084  1.2847 -1.1201 -1.2743
  183SOPE  C21520952   3.804   0.042   8.135  0.3324 -0.4802  0.6383
  183SOPE  H15R20953   3.875  -0.040   8.110 -0.2927 -1.0614  0.7447
  183SOPE  H15S20954   3.701   0.012   8.105  0.1418  0.3601  0.4241
  183SOPE  C21620955   3.807   0.057   8.283  0.1080 -0.4955  1.2553
  183SOPE  H16R20956   3.734   0.133   8.316  0.4143  0.6817 -0.6053
  183SOPE  H16S20957   3.910   0.094   8.302  0.1602  0.4714 -0.6528
  183SOPE  C21720958   3.778  -0.069   8.351 -0.5523  0.3217 -0.1479
  183SOPE  H17R20959   3.865  -0.138   8.343  0.2368  0.8229  2.9373
  183SOPE  H17S20960   3.698  -0.118   8.292 -0.4360  0.7376 -0.6625
  183SOPE  C21820961   3.748  -0.069   8.499  0.2893  0.1385  0.1393
  183SOPE  H18R20962   3.846  -0.068   8.551 -0.3186 -0.1747  1.3256
  183SOPE  H18S20963   3.693  -0.160   8.530 -1.8718 -0.0644 -3.6612
  183SOPE  H18T20964   3.681   0.016   8.525 -0.7419 -0.7404  0.4422
  183SOPE   C3320965   4.465  -0.433   7.141 -1.0847 -0.8973  0.2112
  183SOPE   H3X20966   4.528  -0.428   7.232 -3.8158  0.7416  2.1550
  183SOPE   H3Y20967   4.418  -0.533   7.127 -0.8855 -1.3096  2.2333
  183SOPE   C3420968   4.349  -0.333   7.167 -0.0003 -0.0112 -0.1973
  183SOPE   H4X20969   4.281  -0.338   7.080 -0.0576 -1.3484 -0.1022
  183SOPE   H4Y20970   4.383  -0.228   7.172 -0.4131  0.0833  2.7249
  183SOPE   C3520971   4.278  -0.361   7.302 -0.6761  0.1963 -0.8865
  183SOPE   H5X20972   4.352  -0.327   7.378 -0.9904  1.7722 -1.2559
  183SOPE   H5Y20973   4.278  -0.471   7.321  1.2229  0.1328 -1.0393
  183SOPE   C3620974   4.143  -0.297   7.316 -0.1196 -0.6771  0.0250
  183SOPE   H6X20975   4.070  -0.341   7.244 -2.5861  2.1932  0.5856
  183SOPE   H6Y20976   4.143  -0.193   7.279 -0.1731 -0.8731 -0.5350
  183SOPE   C3720977   4.090  -0.303   7.460  0.6881  0.4308 -0.5597
  183SOPE   H7X20978   4.109  -0.405   7.498  1.7694  0.7151 -0.3058
  183SOPE   H7Y20979   3.980  -0.297   7.446  0.6047 -0.7651 -0.5151
  183SOPE   C3820980   4.130  -0.193   7.564 -0.6528 -0.1982 -0.4063
  183SOPE   H8X20981   4.082  -0.098   7.533  0.5674  0.7035  0.3620
  183SOPE   H8Y20982   4.238  -0.168   7.575 -1.0462  1.1416  0.7016
  183SOPE   C3920983   4.095  -0.247   7.708  0.1532 -0.0894  0.2143
  183SOPE   H9X20984   4.149  -0.343   7.720 -1.8063 -0.9878  2.8454
  183SOPE   H9Y20985   3.990  -0.282   7.705  0.2301 -0.2961 -0.0518
  183SOPE  C31020986   4.101  -0.153   7.832 -0.1886 -0.1779  0.0357
  183SOPE  H10X20987   4.016  -0.179   7.900 -0.9039  0.9596 -0.3866
  183SOPE  H10Y20988   4.083  -0.047   7.804  0.5337 -0.3287 -1.0366
  183SOPE  C31120989   4.239  -0.160   7.911  1.1083  0.5522  0.2220
  183SOPE  H11X20990   4.270  -0.055   7.927 -1.7708  1.7887 -1.5954
  183SOPE  H11Y20991   4.305  -0.214   7.839 -0.3145 -0.8441 -0.0865
  183SOPE  C31220992   4.236  -0.238   8.046  0.8048  0.1731 -0.0612
  183SOPE  H12X20993   4.206  -0.345   8.039  1.0906  0.0022  1.2095
  183SOPE  H12Y20994   4.164  -0.193   8.117 -1.5894  0.3900 -2.4626
  183SOPE  C31320995   4.380  -0.234   8.103  1.6151 -0.2836 -0.1140
  183SOPE  H13X20996   4.402  -0.126   8.112 -2.6441  0.9627 -2.1196
  183SOPE  H13Y20997   4.458  -0.286   8.044 -0.4295 -0.4605 -2.8509
  183SOPE  C31420998   4.368  -0.292   8.245 -0.4270  0.0416 -0.1122
  183SOPE  H14X20999   4.332  -0.397   8.235  1.8681 -0.6724 -1.3413
  183SOPE  H14Y21000   4.292  -0.228   8.295  1.5285  0.4812  2.5266
  183SOPE  C31521001   4.492  -0.287   8.333 -0.4963 -0.2166 -0.3149
  183SOPE  H15X21002   4.516  -0.185   8.369  0.5149 -0.9059  1.0399
  183SOPE  H15Y21003   4.577  -0.314   8.267  0.6458  1.3533  0.4815
  183SOPE  C31621004   4.483  -0.374   8.461  0.3730  0.1132  0.0171
  183SOPE  H16X21005   4.481  -0.481   8.431 -0.1595  0.6725 -2.1429
  183SOPE  H16Y21006   4.379  -0.358   8.498  0.0815 -1.6831  0.0431
  183SOPE  C31721007   4.583  -0.328   8.579  0.0661 -0.1288 -0.0034
  183SOPE  H17X21008   4.559  -0.376   8.677  1.5970 -0.7516  0.0987
  183SOPE  H17Y21009   4.577  -0.220   8.601 -0.5072 -0.1925  0.1633
  183SOPE  C31821010   4.732  -0.347   8.547  0.2691  0.2775 -0.4022
  183SOPE  H18X21011   4.802  -0.347   8.634 -0.1803 -0.0608 -0.0366
  183SOPE  H18Y21012   4.749  -0.265   8.474 -1.1550 -2.0162 -3.5322
  183SOPE  H18Z21013   4.738  -0.446   8.497 -0.6226  0.1774 -0.3134
  184SOPE     N21014   5.237   6.449   6.212  0.3770  0.5054  0.1469
  184SOPE   HN121015   5.197   6.369   6.266  1.6696  0.8545  1.7307
  184SOPE   HN221016   5.162   6.477   6.146  1.3176 -0.6349 -1.4576
  184SOPE   HN321017   5.321   6.425   6.156 -0.7230  2.0952 -2.3466
  184SOPE   C1221018   5.263   6.566   6.299  0.1421 -0.5688 -0.4327
  184SOPE  H12A21019   5.236   6.659   6.245 -2.3871 -1.1142 -0.2499
  184SOPE  H12B21020   5.371   6.560   6.321  0.0516 -1.8904 -0.2528
  184SOPE   C1121021   5.166   6.552   6.422  0.4582  0.4876  0.5332
  184SOPE  H11A21022   5.186   6.623   6.505  1.6773  1.0232 -0.1910
  184SOPE  H11B21023   5.177   6.450   6.463 -0.8558  0.4869  0.9367
  184SOPE     P21024   4.937   6.675   6.379 -0.0139  0.1994 -0.1230
  184SOPE   O1321025   4.823   6.646   6.285  0.1223 -0.1116 -0.1369
  184SOPE   O1421026   5.004   6.800   6.355  0.8108 -0.6874  0.2235
  184SOPE   O1221027   5.035   6.555   6.372 -0.5442 -0.1226 -0.2062
  184SOPE   O1121028   4.878   6.666   6.527 -1.0328 -0.6094  0.0736
  184SOPE    C121029   4.936   6.750   6.625  0.3107  0.9431  0.0123
  184SOPE    HA21030   4.992   6.841   6.596  1.9151 -0.7506 -2.5956
  184SOPE    HB21031   4.998   6.686   6.691 -0.1696  1.6203  1.1551
  184SOPE    C221032   4.826   6.793   6.730  0.4688  0.5184  0.3892
  184SOPE    HS21033   4.761   6.869   6.682  1.3581  0.2235 -1.3758
  184SOPE   O2121034   4.899   6.843   6.848 -0.0345  0.4887 -0.0491
  184SOPE   C2121035   4.836   6.931   6.922 -0.9114 -0.5338 -0.1324
  184SOPE   O2221036   4.733   6.985   6.888  0.5163 -0.6637 -0.4591
  184SOPE   C2221037   4.906   6.958   7.053  0.0283 -0.3019 -0.1699
  184SOPE   H2R21038   4.983   7.037   7.036  0.3367 -0.8363 -1.4249
  184SOPE   H2S21039   4.953   6.861   7.080 -0.3549 -1.2253 -2.5536
  184SOPE    C321040   4.736   6.680   6.786  0.2476 -0.0026  0.6360
  184SOPE    HX21041   4.787   6.583   6.803  0.3153  0.1501  1.3371
  184SOPE    HY21042   4.668   6.647   6.704 -2.2640  0.1877  2.5222
  184SOPE   O3121043   4.658   6.702   6.907 -0.0627  0.0750  0.3288
  184SOPE   C3121044   4.543   6.769   6.883 -0.2658 -0.3305  0.1353
  184SOPE   O3221045   4.509   6.816   6.773 -0.1343  0.6844  0.3175
  184SOPE   C3221046   4.476   6.792   7.021  0.2668  0.6722  0.5885
  184SOPE   H2X21047   4.543   6.781   7.108  0.1736 -2.2322  0.3973
  184SOPE   H2Y21048   4.401   6.710   7.024 -0.9500  1.6161 -1.5856
  184SOPE   C2321049   4.815   7.005   7.157 -0.3196  0.8189  0.0040
  184SOPE   H3R21050   4.723   6.946   7.180 -0.3727  0.4021 -1.2311
  184SOPE   H3S21051   4.774   7.107   7.140 -1.3862  0.1832 -1.5148
  184SOPE   C2421052   4.888   7.016   7.294 -0.3203 -0.0228  0.5193
  184SOPE   H4R21053   4.902   6.909   7.321 -0.8502 -0.8919 -2.3816
  184SOPE   H4S21054   4.988   7.061   7.275  0.1988 -1.7426 -1.0241
  184SOPE   C2521055   4.796   7.093   7.387 -0.7818  0.1971 -1.1960
  184SOPE   H5R21056   4.803   7.200   7.358  0.7415  0.1208 -1.1812
  184SOPE   H5S21057   4.691   7.060   7.377 -0.0212 -1.9822 -3.0227
  184SOPE   C2621058   4.842   7.100   7.528 -0.3333 -0.0901  0.2395
  184SOPE   H6R21059   4.953   7.110   7.521 -0.4255  0.9619  0.1693
  184SOPE   H6S21060   4.809   7.188   7.586  1.0125  1.3371 -1.0851
  184SOPE   C2721061   4.808   6.973   7.607  0.3675  0.1306  0.7357
  184SOPE   H7R21062   4.700   6.950   7.594  0.7658 -1.1758 -0.5401
  184SOPE   H7S21063   4.863   6.892   7.555 -0.0138  0.6138 -0.4451
  184SOPE   C2821064   4.849   6.990   7.760 -0.4024 -0.2277 -0.0158
  184SOPE   H8R21065   4.857   6.884   7.792  2.6999 -0.6161 -1.7520
  184SOPE   H8S21066   4.952   7.029   7.777 -0.3770  0.1160 -0.9080
  184SOPE   C2921067   4.743   7.067   7.833  0.4077 -0.2259 -0.1634
  184SOPE   H9121068   4.712   7.157   7.778  1.8064  0.2038 -0.3016
  184SOPE  C21021069   4.696   7.046   7.966 -0.5583 -0.0078  0.4889
  184SOPE  H10121070   4.619   7.113   8.007 -0.6986  1.3833 -1.8619
  184SOPE  C21121071   4.761   6.945   8.056  0.5903 -0.2433 -0.5214
  184SOPE  H11R21072   4.867   6.928   8.027  0.3524  2.4700 -3.6108
  184SOPE  H11S21073   4.709   6.848   8.038  0.7089 -0.2380 -0.9062
  184SOPE  C21221074   4.741   6.993   8.203  0.6478  0.2765  0.5913
  184SOPE  H12R21075   4.767   6.917   8.280 -1.8057 -1.8465 -0.5124
  184SOPE  H12S21076   4.631   7.005   8.216  0.6618  0.5221  0.4892
  184SOPE  C21321077   4.812   7.123   8.237  0.1520  0.2202 -0.0500
  184SOPE  H13R21078   4.776   7.214   8.185  1.3824  0.9504  0.3279
  184SOPE  H13S21079   4.914   7.097   8.201 -0.2961 -0.1155 -1.0948
  184SOPE  C21421080   4.826   7.147   8.391  0.2531  0.2258  0.1422
  184SOPE  H14R21081   4.906   7.221   8.410  0.7600 -0.5649  1.2737
  184SOPE  H14S21082   4.866   7.056   8.442 -0.4105  0.3201  0.8434
  184SOPE  C21521083   4.692   7.176   8.457 -0.2031 -0.1350 -0.4286
  184SOPE  H15R21084   4.613   7.178   8.380 -0.4115  0.8579 -0.2068
  184SOPE  H15S21085   4.681   7.275   8.507 -0.7109 -0.8719  0.9677
  184SOPE  C21621086   4.663   7.069   8.563  0.0055 -0.2806 -0.8569
  184SOPE  H16R21087   4.751   7.076   8.630  0.8561  1.3052 -2.0586
  184SOPE  H16S21088   4.642   6.969   8.519  1.4682 -1.4568  0.9547
  184SOPE  C21721089   4.543   7.113   8.652 -0.1799 -0.6267  0.0776
  184SOPE  H17R21090   4.451   7.105   8.591 -0.4495 -0.5091  0.4726
  184SOPE  H17S21091   4.562   7.214   8.693 -0.9838  0.2360 -1.5975
  184SOPE  C21821092   4.533   7.024   8.776 -0.5114 -0.1822 -1.2793
  184SOPE  H18R21093   4.629   7.033   8.830 -0.7666 -5.0621  0.4337
  184SOPE  H18S21094   4.534   6.917   8.746  4.2254 -0.8138  0.3792
  184SOPE  H18T21095   4.455   7.056   8.849 -0.1140 -1.3952 -0.2984
  184SOPE   C3321096   4.408   6.928   7.029 -0.3364  0.6960  0.3370
  184SOPE   H3X21097   4.350   6.952   6.937 -0.3634 -1.6085 -0.3037
  184SOPE   H3Y21098   4.484   7.008   7.043  1.5185 -0.8898 -0.3247
  184SOPE   C3421099   4.319   6.933   7.155  0.2731  0.6606  0.0639
  184SOPE   H4X21100   4.253   6.844   7.158  1.2660 -0.1138 -0.4062
  184SOPE   H4Y21101   4.261   7.028   7.154 -0.2459  0.3802 -2.1089
  184SOPE   C3521102   4.392   6.923   7.281 -0.4044 -0.1800 -0.2476
  184SOPE   H5X21103   4.478   6.994   7.285 -0.4116 -0.0923 -1.3522
  184SOPE   H5Y21104   4.453   6.833   7.297  1.3828  0.7833 -1.3494
  184SOPE   C3621105   4.302   6.935   7.405  0.6713  0.1185 -0.7039
  184SOPE   H6X21106   4.255   6.837   7.424 -1.2145  1.1767  0.3567
  184SOPE   H6Y21107   4.219   7.006   7.387 -0.9342 -1.6738 -0.6408
  184SOPE   C3721108   4.383   6.981   7.527  0.9295 -0.3850 -0.2434
  184SOPE   H7X21109   4.453   7.063   7.500 -0.8169  1.8745  1.5868
  184SOPE   H7Y21110   4.439   6.888   7.548  0.2011 -0.5317  1.1327
  184SOPE   C3821111   4.301   7.016   7.654  0.3797 -0.2525 -0.0960
  184SOPE   H8X21112   4.226   6.934   7.663  0.8381 -0.4730  2.3116
  184SOPE   H8Y21113   4.244   7.110   7.637 -0.3918 -0.3805  1.5593
  184SOPE   C3921114   4.376   7.044   7.785  0.2012  0.3019 -0.0770
  184SOPE   H9X21115   4.435   7.138   7.777  0.7040 -0.0551 -0.6976
  184SOPE   H9Y21116   4.443   6.956   7.801 -1.2593 -1.1101 -1.3634
  184SOPE  C31021117   4.270   7.045   7.898 -0.3239 -0.0677 -0.1624
  184SOPE  H10X21118   4.224   6.944   7.886  1.7292 -1.5320  2.8794
  184SOPE  H10Y21119   4.202   7.130   7.877 -0.3578 -0.7043 -3.1563
  184SOPE  C31121120   4.337   7.045   8.036  0.4059 -1.1275 -0.8748
  184SOPE  H11X21121   4.345   7.148   8.078 -2.1510 -0.8736 -0.8649
  184SOPE  H11Y21122   4.439   7.000   8.030 -0.0479 -2.5538  0.9637
  184SOPE  C31221123   4.270   6.947   8.132 -0.3988 -0.4984  0.5501
  184SOPE  H12X21124   4.309   6.846   8.109  1.9419  0.4334  0.2018
  184SOPE  H12Y21125   4.160   6.945   8.113 -0.8352  1.3436  2.4377
  184SOPE  C31321126   4.284   6.971   8.283 -0.0859 -0.0311 -0.3754
  184SOPE  H13X21127   4.225   7.064   8.296 -2.1396 -1.2678 -0.3642
  184SOPE  H13Y21128   4.389   6.990   8.313 -0.6564  2.0659  0.5029
  184SOPE  C31421129   4.229   6.851   8.370 -0.1574 -0.7655 -0.6549
  184SOPE  H14X21130   4.270   6.754   8.333 -0.7956 -1.2123 -0.2130
  184SOPE  H14Y21131   4.120   6.843   8.356 -0.1193 -2.1105 -0.3113
  184SOPE  C31521132   4.272   6.854   8.517  0.7698 -0.0764 -0.6246
  184SOPE  H15X21133   4.265   6.956   8.560  1.6112 -0.6597  0.9661
  184SOPE  H15Y21134   4.381   6.832   8.526  0.1316 -3.2159  0.3178
  184SOPE  C31621135   4.192   6.763   8.606 -0.5422  0.4469 -0.1704
  184SOPE  H16X21136   4.083   6.762   8.585 -0.0787 -0.1651 -2.9414
  184SOPE  H16Y21137   4.202   6.797   8.711 -0.6483 -0.6637  0.2092
  184SOPE  C31721138   4.234   6.612   8.609 -0.0830  0.9938  0.0780
  184SOPE  H17X21139   4.343   6.612   8.632  0.4230 -1.9710 -1.7246
  184SOPE  H17Y21140   4.210   6.580   8.506  2.9092  0.4053 -0.5368
  184SOPE  C31821141   4.149   6.534   8.706 -0.3263 -0.0755 -0.4178
  184SOPE  H18X21142   4.043   6.552   8.677 -0.1187 -0.9985 -1.8527
  184SOPE  H18Y21143   4.149   6.561   8.814 -0.9889  0.5452 -0.5682
  184SOPE  H18Z21144   4.169   6.425   8.692  0.8708  0.1799 -0.7689
  185SAPI   C1221145   3.343   4.955  11.203 -0.2717 -0.9002 -0.2911
  185SAPI    H221146   3.354   4.928  11.096 -1.7005  0.4861 -0.8360
  185SAPI    O221147   3.234   4.895  11.269  0.3088 -0.0675 -0.1805
  185SAPI   HO221148   3.182   4.857  11.197 -0.0568  0.0171  0.0370
  185SAPI   C1321149   3.476   4.931  11.275  0.2558 -0.2875  0.7481
  185SAPI    H321150   3.554   4.991  11.222  1.9398 -2.3405  0.7666
  185SAPI    O321151   3.510   4.793  11.276  0.4212 -0.3379  0.8009
  185SAPI   HO321152   3.539   4.768  11.188  1.9932  4.0416 -0.1755
  185SAPI   C1421153   3.480   4.989  11.423 -0.0742 -0.1808  0.2202
  185SAPI    H421154   3.398   4.941  11.480  0.7486 -0.9220  0.8074
  185SAPI    O421155   3.604   4.972  11.490  0.2579  0.0820 -0.2854
  185SAPI   HO421156   3.622   4.878  11.498 -0.8242 -0.3252 -2.0024
  185SAPI   C1521157   3.446   5.145  11.419 -0.4133  0.2967  1.0174
  185SAPI    H521158   3.529   5.194  11.364  1.4082 -0.5628  2.9059
  185SAPI    O521159   3.428   5.195  11.551 -0.0299  0.0434  0.1281
  185SAPI   HO521160   3.518   5.200  11.584  0.0333 -0.9019  0.1243
  185SAPI   C1621161   3.323   5.172  11.335  0.0393 -0.9862  0.5830
  185SAPI    H621162   3.243   5.113  11.386  0.4472 -1.2417  0.9321
  185SAPI    O621163   3.289   5.311  11.330  0.2338  0.1587  0.1508
  185SAPI   HO621164   3.338   5.341  11.253 -1.5074 -1.0020 -1.4863
  185SAPI   C1121165   3.325   5.110  11.201  0.2679  0.3216  0.3779
  185SAPI    H121166   3.409   5.150  11.140 -0.2562 -0.2647 -0.7659
  185SAPI     P21167   3.188   5.253  11.012 -0.1531 -0.6114 -0.2296
  185SAPI   O1321168   3.271   5.375  11.050  0.4876  0.2155  0.1079
  185SAPI   O1421169   3.046   5.276  10.971  0.1706 -0.3475 -0.1419
  185SAPI   O1221170   3.195   5.134  11.125 -0.6805 -0.5494  0.0227
  185SAPI   O1121171   3.255   5.188  10.889 -0.4449  0.0434  0.3090
  185SAPI    C121172   3.207   5.067  10.832  0.1682  0.5408 -1.1545
  185SAPI    HA21173   3.276   4.983  10.853 -0.2406  0.7057  1.1940
  185SAPI    HB21174   3.104   5.043  10.867  1.2632 -1.8636  0.7555
  185SAPI    C221175   3.180   5.073  10.684 -0.0555 -0.1278  0.2624
  185SAPI    HS21176   3.166   4.969  10.648 -0.8537  0.4817 -1.3007
  185SAPI   O2121177   3.294   5.138  10.614  0.6955  0.1333  0.3364
  185SAPI   C2121178   3.391   5.049  10.581 -0.5242 -0.0330  0.5736
  185SAPI   O2221179   3.394   4.936  10.610 -0.2570  0.1579 -0.3700
  185SAPI   C2221180   3.482   5.121  10.484 -0.1990 -0.2373 -0.1405
  185SAPI   H2R21181   3.430   5.218  10.471  1.8767  0.7868 -1.3429
  185SAPI   H2S21182   3.583   5.131  10.531 -0.6467  1.1075  0.6160
  185SAPI    C321183   3.056   5.159  10.656 -0.1513 -0.3117 -0.2816
  185SAPI    HX21184   3.077   5.260  10.697 -3.1014  0.5995 -0.7381
  185SAPI    HY21185   2.965   5.124  10.709 -1.2467  1.2866 -1.0123
  185SAPI   O3121186   3.034   5.167  10.517  0.4328  0.5351  0.2337
  185SAPI   C3121187   2.980   5.278  10.468  0.2027  0.2498  0.2010
  185SAPI   O3221188   2.966   5.386  10.525  0.1718 -0.1618 -0.7340
  185SAPI   C3221189   2.953   5.268  10.320  0.0792 -0.1926 -0.6061
  185SAPI   H2X21190   3.033   5.323  10.265 -0.3598  0.6621 -0.4069
  185SAPI   H2Y21191   2.855   5.317  10.303  0.2562  0.1879 -0.5366
  185SAPI   C2321192   3.467   5.042  10.350 -0.2593 -0.4288 -0.1167
  185SAPI   H3R21193   3.362   5.007  10.341 -0.4407  0.2437 -0.7267
  185SAPI   H3S21194   3.527   4.949  10.348 -1.2026 -1.0607  0.1197
  185SAPI   C2421195   3.500   5.133  10.226 -0.4713 -0.0014 -0.7768
  185SAPI   H4R21196   3.422   5.211  10.211 -1.4333 -1.1928 -2.2887
  185SAPI   H4S21197   3.489   5.078  10.130  0.0316  0.5577 -1.1576
  185SAPI   C2521198   3.641   5.183  10.235  0.5273  0.1847 -0.0782
  185SAPI   H5R21199   3.670   5.224  10.334  0.0191  1.5691 -0.4698
  185SAPI   C2621200   3.737   5.172  10.141 -0.2047  0.4274 -0.4083
  185SAPI   H6R21201   3.838   5.207  10.166 -0.9363  2.7100 -0.4717
  185SAPI   C2721202   3.741   5.103  10.007 -0.1603 -0.3145  0.2398
  185SAPI   H7R21203   3.782   5.175   9.932  0.5407 -1.6301 -0.6696
  185SAPI   H7S21204   3.639   5.089   9.966 -0.2656 -2.7188  1.1718
  185SAPI   C2821205   3.815   4.970   9.990 -0.2663 -0.5599  0.0920
  185SAPI   H8R21206   3.782   4.902  10.070  2.7317  0.6190  2.5158
  185SAPI   C2921207   3.892   4.925   9.889 -0.0900 -0.1664  0.3883
  185SAPI   H9R21208   3.943   4.828   9.894 -0.7267 -0.6230 -1.1729
  185SAPI  C21021209   3.931   5.004   9.767  0.1559 -0.1705 -0.0870
  185SAPI  H10R21210   3.895   5.108   9.781 -1.7770 -0.8204  0.1795
  185SAPI  H10S21211   3.854   4.973   9.693 -0.0874  1.1301 -0.4016
  185SAPI  C21121212   4.075   4.990   9.734  0.6351  0.1391  0.3940
  185SAPI  H11R21213   4.148   5.053   9.787  0.1937 -0.1183  1.3393
  185SAPI  C21221214   4.129   4.906   9.646  0.4326  0.1231 -0.6067
  185SAPI  H12R21215   4.237   4.923   9.635  0.9916 -0.5930  2.7802
  185SAPI  C21321216   4.069   4.806   9.559 -0.1721  0.1502  0.5627
  185SAPI  H13R21217   4.107   4.823   9.457  0.3521 -0.4781  0.6480
  185SAPI  H13S21218   3.958   4.813   9.550 -0.1944 -1.0892 -0.3415
  185SAPI  C21421219   4.098   4.662   9.601 -0.6569 -0.5503 -0.3082
  185SAPI  H14R21220   4.126   4.642   9.706 -0.0633 -1.8403 -0.6885
  185SAPI  C21521221   4.075   4.558   9.519 -0.0878  0.7082 -0.2080
  185SAPI  H15R21222   4.124   4.462   9.540  0.3100  0.5683 -1.6548
  185SAPI  C21621223   4.027   4.567   9.381 -0.5649 -0.0917 -0.2449
  185SAPI  H16R21224   3.976   4.662   9.356 -1.7368 -1.3782 -3.1925
  185SAPI  H16S21225   3.955   4.485   9.360 -0.4367 -0.5825  1.1460
  185SAPI  C21721226   4.136   4.554   9.270 -0.0889 -0.0181 -0.4273
  185SAPI  H17R21227   4.177   4.451   9.266  1.5696  0.6230 -0.6706
  185SAPI  H17S21228   4.223   4.620   9.291 -0.2657  0.7508 -1.9647
  185SAPI  C21821229   4.084   4.579   9.120 -0.2077  0.0643 -0.7876
  185SAPI  H18R21230   4.023   4.671   9.134  0.0027  0.0042  0.7131
  185SAPI  H18S21231   4.028   4.485   9.101 -0.2979 -0.2189  0.7711
  185SAPI  C21921232   4.202   4.599   9.017 -0.5920  0.2996 -1.0356
  185SAPI  H19R21233   4.291   4.549   9.061 -0.5461 -0.2715 -1.7573
  185SAPI  H19S21234   4.224   4.707   9.008 -0.9236  0.6815  1.6810
  185SAPI  C22021235   4.174   4.525   8.883  0.2344 -0.0257  0.2413
  185SAPI  H20R21236   4.080   4.563   8.836 -1.0390 -2.0154  1.0492
  185SAPI  H20S21237   4.157   4.417   8.904 -0.0058  0.0907  0.6564
  185SAPI  H20T21238   4.250   4.543   8.804 -0.8878 -0.4084 -0.9821
  185SAPI   C3321239   2.941   5.127  10.254  0.2966  0.1093  0.0496
  185SAPI   H3X21240   2.874   5.058  10.309  0.4815  0.1687  0.3576
  185SAPI   H3Y21241   3.034   5.071  10.276 -0.9354 -1.0600  2.6985
  185SAPI   C3421242   2.915   5.129  10.098 -0.0931 -0.1419 -0.3968
  185SAPI   H4X21243   2.830   5.191  10.066 -0.2212 -0.3998 -0.5582
  185SAPI   H4Y21244   2.894   5.022  10.074  2.7441 -0.7257 -0.6549
  185SAPI   C3521245   3.036   5.165  10.019  0.1852 -0.2390 -0.2869
  185SAPI   H5X21246   3.100   5.075  10.009 -0.4730 -0.5805 -1.8422
  185SAPI   H5Y21247   3.088   5.252  10.066  0.0857 -1.4808  2.2746
  185SAPI   C3621248   2.986   5.199   9.874  0.3745 -0.2191 -0.1274
  185SAPI   H6X21249   2.905   5.275   9.880  0.3887 -0.1892 -0.3255
  185SAPI   H6Y21250   2.933   5.110   9.832 -0.6538  0.3417 -0.0647
  185SAPI   C3721251   3.107   5.241   9.786 -1.0893 -0.0812 -0.1497
  185SAPI   H7X21252   3.186   5.256   9.862 -2.9232  1.3765  1.5806
  185SAPI   H7Y21253   3.078   5.342   9.749  3.4297  1.0409 -1.1530
  185SAPI   C3821254   3.131   5.144   9.670  0.3690 -0.2665 -0.3897
  185SAPI   H8X21255   3.028   5.109   9.645  0.8037 -1.3091 -0.7736
  185SAPI   H8Y21256   3.196   5.057   9.696 -1.3392 -1.4220  0.2045
  185SAPI   C3921257   3.190   5.230   9.551 -0.1283 -0.4816 -0.4404
  185SAPI   H9X21258   3.295   5.256   9.576  0.5982 -3.0362 -0.5935
  185SAPI   H9Y21259   3.117   5.312   9.534 -1.0648 -1.1746  0.1722
  185SAPI  C31021260   3.182   5.143   9.423 -0.5243  1.6471  0.5068
  185SAPI  H10X21261   3.076   5.112   9.406 -0.7455  0.7707  2.9993
  185SAPI  H10Y21262   3.240   5.053   9.452 -1.7399  0.3929 -0.8178
  185SAPI  C31121263   3.268   5.196   9.300  0.7782  0.4541 -0.3796
  185SAPI  H11X21264   3.271   5.109   9.231 -1.2777  0.5507 -0.6567
  185SAPI  H11Y21265   3.372   5.225   9.327  1.0608  2.3283 -3.0468
  185SAPI  C31221266   3.199   5.313   9.230 -0.5150 -0.2371 -0.7167
  185SAPI  H12X21267   3.214   5.410   9.283  2.9273 -0.4341 -1.0781
  185SAPI  H12Y21268   3.092   5.284   9.225 -0.6812  0.1345  0.5224
  185SAPI  C31321269   3.240   5.327   9.073  0.1409 -0.8551  0.1508
  185SAPI  H13X21270   3.218   5.232   9.018 -0.2778  0.5443 -2.2628
  185SAPI  H13Y21271   3.349   5.348   9.072 -0.0939  0.4731  0.8598
  185SAPI  C31421272   3.169   5.439   9.006 -0.0637  0.4232  0.1415
  185SAPI  H14X21273   3.217   5.538   9.021 -1.1935  0.8852  0.8497
  185SAPI  H14Y21274   3.073   5.457   9.060  0.8478  0.6537  1.7312
  185SAPI  C31521275   3.170   5.435   8.853  0.0717 -0.5090 -0.0847
  185SAPI  H15X21276   3.277   5.445   8.822 -0.1039  1.7113 -0.1201
  185SAPI  H15Y21277   3.120   5.519   8.800  2.3624  0.8574 -0.2603
  185SAPI  C31621278   3.101   5.309   8.795  0.2216 -0.1849 -0.3052
  185SAPI  H16X21279   3.030   5.282   8.876  2.0142  4.1425  3.1271
  185SAPI  H16Y21280   3.184   5.237   8.778 -0.7427 -2.0373  2.1820
  185SAPI  C31721281   3.021   5.339   8.662 -0.5515 -0.5890  0.6626
  185SAPI  H17X21282   3.022   5.240   8.614 -0.5010 -1.4606  2.3655
  185SAPI  H17Y21283   3.083   5.414   8.609  0.9577 -1.8634  0.5693
  185SAPI  C31821284   2.879   5.390   8.675 -0.9068 -0.4141 -0.4197
  185SAPI  H18X21285   2.822   5.351   8.763 -1.4372  1.7079  0.2316
  185SAPI  H18Y21286   2.812   5.356   8.593  0.2847 -1.1241 -1.1345
  185SAPI  H18Z21287   2.883   5.501   8.670 -0.9098 -0.4516 -1.5852
  186SAPI   C1221288   0.642   3.456  11.105 -0.9237  0.1358 -0.3605
  186SAPI    H221289   0.670   3.438  10.999  0.4420  1.6739 -0.3036
  186SAPI    O221290   0.505   3.498  11.120 -0.0840  0.2842  0.3053
  186SAPI   HO221291   0.517   3.590  11.094  0.5585  0.2706  0.5550
  186SAPI   C1321292   0.666   3.342  11.200 -0.1272 -0.2709 -0.1665
  186SAPI    H321293   0.770   3.303  11.190  0.2088  0.4603  0.4291
  186SAPI    O321294   0.577   3.232  11.166 -0.8918  0.5153  0.1917
  186SAPI   HO321295   0.494   3.271  11.194 -1.5011  0.2135 -1.1347
  186SAPI   C1421296   0.657   3.384  11.339  0.0486 -0.5319  0.5864
  186SAPI    H421297   0.549   3.399  11.359  0.1711 -0.2270  1.0396
  186SAPI    O421298   0.694   3.275  11.423  0.5863 -0.4397 -0.0665
  186SAPI   HO421299   0.637   3.279  11.500  1.0770 -0.5284  0.3085
  186SAPI   C1521300   0.741   3.512  11.377  0.4584  0.3738  0.2166
  186SAPI    H521301   0.847   3.485  11.354  0.0678 -0.6850 -0.4397
  186SAPI    O521302   0.725   3.548  11.517  0.4295 -0.2886 -0.0457
  186SAPI   HO521303   0.638   3.585  11.534  0.7891 -0.3808  2.3307
  186SAPI   C1621304   0.699   3.627  11.282 -0.4418  0.7401 -0.2341
  186SAPI    H621305   0.590   3.642  11.295 -0.6096 -0.8802  0.4854
  186SAPI    O621306   0.769   3.744  11.318  0.7778 -0.2595  0.0709
  186SAPI   HO621307   0.843   3.744  11.257  1.8177 -1.9766  1.2608
  186SAPI   C1121308   0.727   3.583  11.134 -0.2094  0.6181 -0.3609
  186SAPI    H121309   0.836   3.558  11.135 -0.0099  1.3584  1.7543
  186SAPI     P21310   0.782   3.756  10.937  0.3344 -0.1679  0.3570
  186SAPI   O1321311   0.926   3.734  10.962 -0.1173 -0.0019  0.5986
  186SAPI   O1421312   0.745   3.902  10.907  0.3817  0.0058  0.1169
  186SAPI   O1221313   0.684   3.684  11.047 -0.0939 -0.5642  0.3219
  186SAPI   O1121314   0.744   3.667  10.813 -0.5056 -0.4636  0.2385
  186SAPI    C121315   0.612   3.662  10.764  0.0155  0.2709  0.4628
  186SAPI    HA21316   0.558   3.580  10.817 -1.1794 -0.3767 -1.6325
  186SAPI    HB21317   0.557   3.758  10.777 -0.3045  0.4037 -1.5068
  186SAPI    C221318   0.601   3.630  10.608  0.1907 -0.3353 -0.2413
  186SAPI    HS21319   0.653   3.534  10.585 -3.3867 -2.5201 -0.1075
  186SAPI   O2121320   0.658   3.739  10.529  0.0953  0.5913 -0.1045
  186SAPI   C2121321   0.789   3.749  10.516  0.1869 -0.1918  0.1790
  186SAPI   O2221322   0.874   3.668  10.545 -0.1285  0.0259  0.2106
  186SAPI   C2221323   0.813   3.884  10.439 -0.1453  0.1898  0.2532
  186SAPI   H2R21324   0.740   3.882  10.355 -0.5304  1.3412  0.5467
  186SAPI   H2S21325   0.787   3.972  10.501  0.8141  0.2313  0.6038
  186SAPI    C321326   0.452   3.617  10.564  0.3909 -0.5008  0.5542
  186SAPI    HX21327   0.383   3.699  10.591 -0.6973 -1.6226  1.2830
  186SAPI    HY21328   0.428   3.536  10.637 -2.3149  0.1534  0.4975
  186SAPI   O3121329   0.437   3.582  10.426  0.3427 -0.0260  0.2786
  186SAPI   C3121330   0.332   3.500  10.400 -0.2133  0.6626 -0.0902
  186SAPI   O3221331   0.242   3.482  10.477 -0.4650 -0.2509 -0.6168
  186SAPI   C3221332   0.355   3.431  10.260  0.0683 -0.5094  0.0177
  186SAPI   H2X21333   0.434   3.358  10.285  0.8804  0.4754  0.3933
  186SAPI   H2Y21334   0.393   3.509  10.190 -0.1799  0.2899  0.7478
  186SAPI   C2321335   0.950   3.903  10.376 -0.3010 -0.1988  0.8374
  186SAPI   H3R21336   1.024   3.851  10.440  0.6176  0.0816  0.0178
  186SAPI   H3S21337   0.971   4.012  10.373  4.5100 -0.9392 -0.0925
  186SAPI   C2421338   0.957   3.838  10.240 -0.6162  0.7346  0.3415
  186SAPI   H4R21339   0.880   3.885  10.175  0.1132  0.9959 -0.3469
  186SAPI   H4S21340   0.941   3.728  10.246  1.5955  0.1683 -2.2656
  186SAPI   C2521341   1.095   3.863  10.175  0.6986  0.0527  0.7557
  186SAPI   H5R21342   1.188   3.842  10.230  1.7070  0.5897 -0.6762
  186SAPI   C2621343   1.117   3.903  10.049 -0.1526 -0.6055 -0.1497
  186SAPI   H6R21344   1.220   3.921  10.014 -1.1965  2.1637 -2.1421
  186SAPI   C2721345   1.018   3.912   9.941 -0.0959 -0.1422  0.5517
  186SAPI   H7R21346   1.003   4.017   9.910  3.5721  0.3016 -0.1463
  186SAPI   H7S21347   0.915   3.884   9.972 -0.5672  0.4150 -0.4411
  186SAPI   C2821348   1.055   3.824   9.818  0.0644  0.2378 -0.5345
  186SAPI   H8R21349   1.041   3.717   9.836  1.9887 -0.0351 -0.5234
  186SAPI   C2921350   1.101   3.861   9.693 -0.5172 -0.4066 -0.0288
  186SAPI   H9R21351   1.120   3.784   9.616 -0.6546  1.0212 -1.5346
  186SAPI  C21021352   1.113   4.006   9.648 -1.0009  0.7790 -0.6480
  186SAPI  H10R21353   1.213   4.034   9.609 -0.9414 -1.1462 -1.9980
  186SAPI  H10S21354   1.107   4.073   9.737 -0.7411  0.2637 -0.2371
  186SAPI  C21121355   1.027   4.038   9.531  0.0691  0.1702  0.1900
  186SAPI  H11R21356   0.918   4.035   9.549 -0.7864 -0.1972 -3.9273
  186SAPI  C21221357   1.064   4.085   9.407 -0.1362 -0.0901  0.2593
  186SAPI  H12R21358   0.984   4.088   9.331 -0.3906  1.6714  0.5536
  186SAPI  C21321359   1.206   4.109   9.356  0.2318 -0.5130 -0.4355
  186SAPI  H13R21360   1.279   4.075   9.433  2.4322 -0.3348 -2.3260
  186SAPI  H13S21361   1.222   4.219   9.358 -0.8532 -0.3139 -1.7620
  186SAPI  C21421362   1.243   4.040   9.228 -0.0778  0.1663 -0.3059
  186SAPI  H14R21363   1.262   3.932   9.237  0.1790  0.2375  0.0482
  186SAPI  C21521364   1.272   4.095   9.110  0.2659 -0.2603  0.0954
  186SAPI  H15R21365   1.282   4.029   9.023  2.7180 -1.7215  1.3743
  186SAPI  C21621366   1.261   4.240   9.074  0.3756  0.0056 -0.4186
  186SAPI  H16R21367   1.350   4.300   9.100 -0.3928  0.5272  1.1155
  186SAPI  H16S21368   1.168   4.277   9.123 -1.4423 -2.1672 -1.9567
  186SAPI  C21721369   1.219   4.267   8.928 -0.0680  0.5417 -0.3721
  186SAPI  H17R21370   1.186   4.371   8.909 -3.2143  0.0530  1.8293
  186SAPI  H17S21371   1.132   4.199   8.917 -0.0888  0.5717 -0.3923
  186SAPI  C21821372   1.344   4.233   8.847  0.3082  0.6927  0.1103
  186SAPI  H18R21373   1.389   4.133   8.866 -3.0551 -1.5484 -2.5421
  186SAPI  H18S21374   1.423   4.308   8.868  1.4302 -0.0740 -1.1773
  186SAPI  C21921375   1.320   4.228   8.697 -0.1288 -0.2133 -0.0523
  186SAPI  H19R21376   1.413   4.186   8.651 -1.5659 -2.4210 -1.1511
  186SAPI  H19S21377   1.314   4.328   8.649  0.7391 -0.6801 -1.1923
  186SAPI  C22021378   1.203   4.146   8.652 -0.5512  0.3218  0.3083
  186SAPI  H20R21379   1.206   4.114   8.546 -0.6800 -1.3031  0.7690
  186SAPI  H20S21380   1.114   4.202   8.688 -0.8440 -0.8987  1.5647
  186SAPI  H20T21381   1.201   4.051   8.708 -1.0988  0.0236 -0.2066
  186SAPI   C3321382   0.230   3.353  10.219  0.5213  0.2675  0.3857
  186SAPI   H3X21383   0.192   3.304  10.311 -0.2914  1.0487  0.4799
  186SAPI   H3Y21384   0.260   3.276  10.145 -1.9356  1.6120 -2.2557
  186SAPI   C3421385   0.120   3.437  10.159  0.2311  0.4505 -0.3332
  186SAPI   H4X21386   0.088   3.515  10.231  0.8176  1.4074 -1.0847
  186SAPI   H4Y21387   0.032   3.374  10.136 -0.9859  1.5384  1.1458
  186SAPI   C3521388   0.152   3.512  10.032 -0.7438  0.3127 -0.5399
  186SAPI   H5X21389   0.225   3.593  10.054  1.0270 -1.2867 -0.3070
  186SAPI   H5Y21390   0.062   3.559   9.988  0.3521  1.6948 -1.4056
  186SAPI   C3621391   0.215   3.423   9.928 -0.3341  0.9835  0.2557
  186SAPI   H6X21392   0.156   3.329   9.921 -0.6793  0.8550  3.5423
  186SAPI   H6Y21393   0.313   3.382   9.960 -0.4477  0.0380 -0.5434
  186SAPI   C3721394   0.245   3.489   9.795 -0.2708 -0.0467 -0.3450
  186SAPI   H7X21395   0.297   3.584   9.820  0.8123 -0.7508  0.1526
  186SAPI   H7Y21396   0.151   3.514   9.741 -0.3184  1.6385  0.4442
  186SAPI   C3821397   0.337   3.408   9.702  0.7756 -0.3621  0.0781
  186SAPI   H8X21398   0.295   3.305   9.698  1.3895 -0.5666 -1.5698
  186SAPI   H8Y21399   0.438   3.405   9.748  1.4126 -1.7501 -1.3305
  186SAPI   C3921400   0.341   3.469   9.562 -0.5737  0.4079 -0.2816
  186SAPI   H9X21401   0.386   3.571   9.566  0.6709 -0.1713  1.2548
  186SAPI   H9Y21402   0.240   3.478   9.517 -0.3639  1.9912 -0.5109
  186SAPI  C31021403   0.438   3.392   9.469 -0.0904 -0.1478 -0.1697
  186SAPI  H10X21404   0.396   3.295   9.435  2.4220 -1.0164 -1.0094
  186SAPI  H10Y21405   0.539   3.378   9.512  0.6860  2.5124 -0.9039
  186SAPI  C31121406   0.460   3.478   9.342  0.2370  0.0250  0.4046
  186SAPI  H11X21407   0.496   3.581   9.359  0.0132  0.7694 -3.0505
  186SAPI  H11Y21408   0.361   3.491   9.292  0.4722  2.3885  0.4661
  186SAPI  C31221409   0.558   3.420   9.241 -0.4085  0.4512  0.3406
  186SAPI  H12X21410   0.494   3.363   9.170  0.4293 -0.6356  0.4406
  186SAPI  H12Y21411   0.622   3.348   9.296  0.4429  1.6124  0.9075
  186SAPI  C31321412   0.623   3.533   9.160 -0.2403  0.4384 -0.8581
  186SAPI  H13X21413   0.686   3.592   9.230 -0.7521  0.7270 -0.6361
  186SAPI  H13Y21414   0.545   3.601   9.120  1.5103  2.4173 -1.0529
  186SAPI  C31421415   0.697   3.470   9.043  0.5841 -0.3161 -0.0875
  186SAPI  H14X21416   0.754   3.550   8.991  0.2755  0.2481  0.4213
  186SAPI  H14Y21417   0.623   3.431   8.970  0.1613  3.3138 -1.8239
  186SAPI  C31521418   0.799   3.362   9.080 -0.5724  0.2942 -0.0425
  186SAPI  H15X21419   0.743   3.276   9.121 -0.9506  0.0585 -1.0211
  186SAPI  H15Y21420   0.875   3.390   9.155 -0.8802 -2.3797  1.4090
  186SAPI  C31621421   0.883   3.314   8.961 -0.1306  0.1104  0.2268
  186SAPI  H16X21422   0.960   3.389   8.932  1.4603 -1.4588  0.1696
  186SAPI  H16Y21423   0.811   3.292   8.880  0.3649 -1.7549  0.2238
  186SAPI  C31721424   0.962   3.183   8.993 -0.5528  0.3136 -1.0139
  186SAPI  H17X21425   0.892   3.108   9.035  0.2955 -0.4828 -0.9778
  186SAPI  H17Y21426   1.044   3.210   9.063 -0.2279 -2.1828 -0.3470
  186SAPI  C31821427   1.021   3.107   8.870  0.0116 -0.1714 -0.1148
  186SAPI  H18X21428   1.101   3.172   8.828 -0.6079 -0.1720 -1.3043
  186SAPI  H18Y21429   0.935   3.103   8.801  0.1430  1.0353 -0.3730
  186SAPI  H18Z21430   1.055   3.003   8.889 -2.2719 -0.5460  2.6568
  187SAPI   C1221431   4.376   4.317   6.162 -0.0134 -0.7697  0.4500
  187SAPI    H221432   4.434   4.230   6.126 -0.5609 -1.4351  1.1489
  187SAPI    O221433   4.367   4.316   6.304  0.0672 -0.9131  0.2528
  187SAPI   HO221434   4.332   4.230   6.328  0.6078 -1.6215 -1.3601
  187SAPI   C1321435   4.439   4.447   6.102  0.4102 -0.2735  0.1190
  187SAPI    H321436   4.423   4.437   5.993  0.0708 -0.4067  0.1790
  187SAPI    O321437   4.584   4.448   6.126  0.6578  0.2424 -0.2374
  187SAPI   HO321438   4.594   4.497   6.208  0.5519 -0.9081  0.4876
  187SAPI   C1421439   4.376   4.571   6.151  0.3995 -0.1682 -0.1083
  187SAPI    H421440   4.384   4.579   6.262 -1.6533  1.7274 -0.0388
  187SAPI    O421441   4.441   4.692   6.109 -0.0453  0.5563 -0.1469
  187SAPI   HO421442   4.513   4.715   6.168 -0.0979 -0.4481  0.3369
  187SAPI   C1521443   4.231   4.571   6.108  0.3897 -0.5656 -0.5719
  187SAPI    H521444   4.230   4.583   5.998 -2.0901  1.8243 -0.3908
  187SAPI    O521445   4.163   4.688   6.163 -0.4856  0.5649 -1.3954
  187SAPI   HO521446   4.154   4.679   6.258  0.0366 -2.2025 -1.5404
  187SAPI   C1621447   4.158   4.445   6.136  0.0486  0.3127  0.3636
  187SAPI    H621448   4.120   4.447   6.240 -1.5871  0.1205 -0.2033
  187SAPI    O621449   4.033   4.452   6.074  0.0711  0.5990  0.1401
  187SAPI   HO621450   4.037   4.388   6.002  1.9322 -1.2052  1.7360
  187SAPI   C1121451   4.237   4.322   6.102 -0.4309 -0.4849  0.3459
  187SAPI    H121452   4.250   4.314   5.991 -0.3499 -2.9783  0.4643
  187SAPI     P21453   4.150   4.050   6.058 -0.5350 -0.4994  0.0602
  187SAPI   O1321454   4.212   4.064   5.926 -0.8063 -0.6165 -0.0357
  187SAPI   O1421455   4.007   4.030   6.058  0.5839  0.1119 -0.1971
  187SAPI   O1221456   4.173   4.195   6.134  0.1244  0.0259 -0.6660
  187SAPI   O1121457   4.218   3.934   6.136  0.0146  0.1477  0.3574
  187SAPI    C121458   4.167   3.892   6.262  0.1602  0.2183  0.0041
  187SAPI    HA21459   4.060   3.915   6.278  0.4460  0.2516  2.2927
  187SAPI    HB21460   4.187   3.783   6.274 -0.4146  0.0208 -0.7739
  187SAPI    C221461   4.255   3.955   6.378 -0.4179 -0.0792 -0.7301
  187SAPI    HS21462   4.236   3.891   6.466 -3.2587 -0.2082 -1.3533
  187SAPI   O2121463   4.228   4.091   6.404 -0.4922  0.2080  0.4190
  187SAPI   C2121464   4.110   4.116   6.463 -0.3534  0.5625  0.1924
  187SAPI   O2221465   4.032   4.027   6.494 -0.4246 -0.5291  0.4142
  187SAPI   C2221466   4.117   4.261   6.508 -0.0299 -0.2812 -0.2000
  187SAPI   H2R21467   4.222   4.282   6.540 -0.2713 -0.9538  1.1002
  187SAPI   H2S21468   4.082   4.316   6.418  2.1511  1.1257 -0.2564
  187SAPI    C321469   4.398   3.943   6.339 -0.1103  0.1860 -0.1194
  187SAPI    HX21470   4.418   3.999   6.246 -2.8069  0.4701 -0.6093
  187SAPI    HY21471   4.411   3.837   6.310  0.5936  0.6309 -1.5025
  187SAPI   O3121472   4.483   3.976   6.448  0.4038 -0.2877 -0.1352
  187SAPI   C3121473   4.612   3.945   6.425  0.2018  1.1330  0.2872
  187SAPI   O3221474   4.650   3.904   6.314  0.0041  0.1587  0.7919
  187SAPI   C3221475   4.695   3.959   6.549  0.6661 -0.6672  0.3815
  187SAPI   H2X21476   4.664   3.875   6.615 -0.4165 -1.2232 -0.8105
  187SAPI   H2Y21477   4.665   4.061   6.582 -2.0428 -0.5193 -2.1853
  187SAPI   C2321478   4.018   4.283   6.623  0.0271 -0.1280  0.0877
  187SAPI   H3R21479   3.912   4.259   6.597 -0.5448  0.8822  1.3921
  187SAPI   H3S21480   4.023   4.393   6.637 -1.6242  0.2154 -1.5168
  187SAPI   C2421481   4.069   4.237   6.760  0.0193  0.4158 -0.1858
  187SAPI   H4R21482   4.018   4.303   6.834  0.0033  1.0493 -0.7577
  187SAPI   H4S21483   4.176   4.256   6.779 -0.0287  1.2622 -0.7174
  187SAPI   C2521484   4.046   4.086   6.776  0.2867 -0.1156  0.4011
  187SAPI   H5R21485   4.116   4.020   6.724  0.9067  1.1102 -0.3813
  187SAPI   C2621486   3.954   4.027   6.853 -0.0132 -0.1370  0.4377
  187SAPI   H6R21487   3.938   3.919   6.841  2.1989 -0.3109 -1.7918
  187SAPI   C2721488   3.843   4.105   6.921 -0.3806 -0.9266  0.2492
  187SAPI   H7R21489   3.819   4.187   6.850 -1.8022 -3.6728 -2.7081
  187SAPI   H7S21490   3.885   4.163   7.005 -0.0113  3.6473 -2.7307
  187SAPI   C2821491   3.715   4.032   6.945  0.0902 -0.1025 -0.8129
  187SAPI   H8R21492   3.667   4.003   6.851 -1.7641 -2.7352  0.8358
  187SAPI   C2921493   3.658   4.002   7.064  0.1343  0.2529  0.0275
  187SAPI   H9R21494   3.558   3.956   7.057 -0.3306  1.0424  1.2610
  187SAPI  C21021495   3.709   4.055   7.203  1.2596 -0.7939 -0.1168
  187SAPI  H10R21496   3.630   4.062   7.281  0.6436 -1.0494 -0.7065
  187SAPI  H10S21497   3.748   4.159   7.205 -2.7169  0.8517  0.7066
  187SAPI  C21121498   3.818   3.978   7.257 -0.3929 -0.5346  0.4081
  187SAPI  H11R21499   3.894   3.935   7.189  1.2946 -0.4182  2.1244
  187SAPI  C21221500   3.831   3.937   7.385 -0.0339  0.2950 -0.2799
  187SAPI  H12R21501   3.915   3.870   7.406  0.7091  0.9746 -1.0363
  187SAPI  C21321502   3.736   3.945   7.503  0.0431  0.5392  0.9173
  187SAPI  H13R21503   3.705   4.050   7.525  1.1690  1.6127 -2.1188
  187SAPI  H13S21504   3.798   3.898   7.583  1.4467 -0.9066 -0.9486
  187SAPI  C21421505   3.612   3.865   7.475 -0.6365  0.2639 -0.3481
  187SAPI  H14R21506   3.589   3.845   7.369 -0.2638  1.6069 -0.7020
  187SAPI  C21521507   3.523   3.818   7.561 -0.0919 -0.0902  0.1587
  187SAPI  H15R21508   3.435   3.763   7.524 -0.6782  0.9815 -0.0998
  187SAPI  C21621509   3.522   3.828   7.711 -0.1598  0.1747  0.0722
  187SAPI  H16R21510   3.418   3.809   7.746  0.3435  1.3974  2.4030
  187SAPI  H16S21511   3.554   3.931   7.733 -0.5865  0.7587 -1.8498
  187SAPI  C21721512   3.613   3.743   7.795 -0.1735 -0.0620 -0.2398
  187SAPI  H17R21513   3.713   3.789   7.806 -0.7534  1.5080 -1.2106
  187SAPI  H17S21514   3.623   3.640   7.754 -1.0400 -0.3664  0.2541
  187SAPI  C21821515   3.556   3.725   7.938 -0.4988 -0.1899  0.0533
  187SAPI  H18R21516   3.629   3.657   7.987 -1.6328  0.2598  2.5046
  187SAPI  H18S21517   3.458   3.673   7.932  0.5864 -2.1459 -2.2791
  187SAPI  C21921518   3.542   3.849   8.022 -0.4339 -0.5201 -0.4602
  187SAPI  H19R21519   3.459   3.917   7.990 -0.6099  0.1509  1.3370
  187SAPI  H19S21520   3.636   3.905   8.006 -0.3326 -0.5392  0.0593
  187SAPI  C22021521   3.539   3.821   8.170 -0.7999  0.0304 -0.9694
  187SAPI  H20R21522   3.626   3.755   8.193 -0.7494  0.5456  0.4528
  187SAPI  H20S21523   3.444   3.768   8.191 -0.1579 -1.2469 -1.1451
  187SAPI  H20T21524   3.539   3.913   8.232 -2.4563  0.6878 -1.8775
  187SAPI   C3321525   4.844   3.969   6.526 -1.1143  0.2124 -0.2311
  187SAPI   H3X21526   4.874   4.036   6.443  0.5804 -1.3401 -0.9573
  187SAPI   H3Y21527   4.880   3.867   6.498 -3.2785 -0.6272 -0.1715
  187SAPI   C3421528   4.931   4.032   6.638  0.2383 -0.9503  0.1811
  187SAPI   H4X21529   4.908   4.140   6.646 -2.5120 -1.3442 -1.2183
  187SAPI   H4Y21530   5.040   4.026   6.619  0.9602 -0.3676  3.6104
  187SAPI   C3521531   4.912   3.978   6.780  0.8479  0.1729  0.2696
  187SAPI   H5X21532   4.937   3.870   6.789 -0.0440 -0.2094 -1.5102
  187SAPI   H5Y21533   4.801   3.970   6.787  0.9520 -0.1730  2.1143
  187SAPI   C3621534   4.985   4.065   6.879 -0.7483 -0.1494  0.6678
  187SAPI   H6X21535   4.948   4.169   6.875 -0.5606 -0.0981  0.2043
  187SAPI   H6Y21536   5.090   4.072   6.844 -0.4803 -2.6931  0.7377
  187SAPI   C3721537   4.968   4.022   7.028  0.3238  0.3078  0.0658
  187SAPI   H7X21538   4.987   3.913   7.024 -0.5693  0.1883 -2.0460
  187SAPI   H7Y21539   4.860   4.019   7.054  0.6114  0.7033  1.4177
  187SAPI   C3821540   5.049   4.106   7.128  0.0668  0.2337  0.7134
  187SAPI   H8X21541   5.041   4.214   7.106  2.4777  0.5752  1.2334
  187SAPI   H8Y21542   5.157   4.087   7.106 -0.4664 -0.7578 -1.2883
  187SAPI   C3921543   5.009   4.083   7.276  0.0080  1.2339  0.8175
  187SAPI   H9X21544   5.048   3.983   7.305  0.4817  0.8050 -1.1505
  187SAPI   H9Y21545   4.899   4.089   7.287 -0.0699 -0.1774  0.9909
  187SAPI  C31021546   5.067   4.187   7.368 -0.3725  0.6907  0.3231
  187SAPI  H10X21547   5.039   4.289   7.336  4.0187  1.6734 -1.0533
  187SAPI  H10Y21548   5.178   4.193   7.359 -0.4372  2.0297  0.2255
  187SAPI  C31121549   5.039   4.154   7.518 -0.1992 -0.0095  0.1495
  187SAPI  H11X21550   4.930   4.129   7.518 -0.0881 -0.5447  1.1629
  187SAPI  H11Y21551   5.052   4.255   7.563 -0.6820  1.4232 -2.6297
  187SAPI  C31221552   5.131   4.058   7.577 -0.6546  0.1605  0.1431
  187SAPI  H12X21553   5.238   4.089   7.572 -0.5416 -0.4183 -1.9846
  187SAPI  H12Y21554   5.120   3.966   7.517  0.4643  0.6487 -0.8501
  187SAPI  C31321555   5.111   4.035   7.730 -0.3228 -0.4141 -0.1627
  187SAPI  H13X21556   5.166   3.943   7.759  0.6178 -0.2311 -1.2582
  187SAPI  H13Y21557   5.006   4.028   7.765 -0.0910 -0.7784  0.4808
  187SAPI  C31421558   5.167   4.157   7.806  0.3847  0.1693 -0.1271
  187SAPI  H14X21559   5.110   4.246   7.772 -1.6204 -1.1983 -0.5419
  187SAPI  H14Y21560   5.272   4.184   7.784  0.5262 -0.9737 -0.9119
  187SAPI  C31521561   5.142   4.142   7.958 -1.2454  0.0140 -0.1159
  187SAPI  H15X21562   5.040   4.104   7.978 -1.8034  1.8704  0.7867
  187SAPI  H15Y21563   5.152   4.237   8.015  0.1519 -0.2866  0.1672
  187SAPI  C31621564   5.253   4.061   8.034  0.0602 -0.4742  0.8576
  187SAPI  H16X21565   5.345   4.125   8.034  0.6061 -1.2226 -0.2818
  187SAPI  H16Y21566   5.270   3.966   7.979  2.3970  0.5077 -0.2643
  187SAPI  C31721567   5.214   4.023   8.179  0.0696 -0.6714  0.1278
  187SAPI  H17X21568   5.122   3.962   8.190 -1.2074  0.8051 -1.7317
  187SAPI  H17Y21569   5.188   4.121   8.226  2.7123  0.3981 -0.4890
  187SAPI  C31821570   5.324   3.958   8.259 -0.0992  0.4917  0.3093
  187SAPI  H18X21571   5.325   3.850   8.232  0.7649  1.2758 -3.4250
  187SAPI  H18Y21572   5.317   3.966   8.369  3.0485  2.0679  0.5245
  187SAPI  H18Z21573   5.421   4.007   8.235 -0.2417  0.1081 -1.1398
  188SAPI   C1221574   5.437   5.341   6.324  0.0840 -0.5132 -0.8357
  188SAPI    H221575   5.454   5.309   6.429 -0.1712  2.7705  0.3186
  188SAPI    O221576   5.303   5.313   6.280 -0.5655  0.2265  0.2541
  188SAPI   HO221577   5.254   5.281   6.356  0.6430 -0.4260  0.7792
  188SAPI   C1321578   5.473   5.491   6.324 -0.4121  1.2969 -0.3489
  188SAPI    H321579   5.577   5.495   6.362 -0.2232  1.9580 -0.9030
  188SAPI    O321580   5.382   5.563   6.408 -0.3032  0.2393  0.2664
  188SAPI   HO321581   5.293   5.544   6.376  0.4183 -0.0906 -1.6899
  188SAPI   C1421582   5.473   5.537   6.176 -0.0346 -0.2755  0.1427
  188SAPI    H421583   5.367   5.519   6.148 -0.3653  0.0168  1.1599
  188SAPI    O421584   5.500   5.682   6.166 -0.6353 -0.1370 -0.3092
  188SAPI   HO421585   5.449   5.726   6.097  1.9432  1.5092 -1.3022
  188SAPI   C1521586   5.564   5.458   6.082 -0.4540  0.4854 -0.1465
  188SAPI    H521587   5.668   5.472   6.117 -0.0985 -2.1796  0.0902
  188SAPI    O521588   5.568   5.513   5.953 -0.0485  0.8284  0.0821
  188SAPI   HO521589   5.659   5.535   5.934 -0.1279  0.6116 -0.5707
  188SAPI   C1621590   5.534   5.310   6.086  0.6452 -0.6321 -0.5723
  188SAPI    H621591   5.430   5.286   6.053 -0.1151 -0.9349  1.8473
  188SAPI    O621592   5.633   5.244   6.012 -0.1377 -0.8420  0.5980
  188SAPI   HO621593   5.689   5.211   6.083  1.0523  1.9637  1.0709
  188SAPI   C1121594   5.542   5.272   6.238 -0.5137  0.4396 -0.0554
  188SAPI    H121595   5.639   5.312   6.272 -1.0528  2.4900 -0.7977
  188SAPI     P21596   5.668   5.033   6.271 -0.0858 -0.3165  0.2603
  188SAPI   O1321597   5.791   5.074   6.192  0.5646 -0.1916 -0.9098
  188SAPI   O1421598   5.624   4.896   6.256 -0.3081  0.2342  0.2985
  188SAPI   O1221599   5.539   5.130   6.239  1.1473 -0.1652  0.2338
  188SAPI   O1121600   5.704   5.071   6.417  0.2864 -0.2248 -0.4594
  188SAPI    C121601   5.675   4.981   6.518 -0.2598 -0.3432  0.3198
  188SAPI    HA21602   5.564   4.970   6.523 -0.2907 -0.4570 -0.4675
  188SAPI    HB21603   5.727   4.883   6.503 -0.6048 -0.4408 -0.2603
  188SAPI    C221604   5.740   5.037   6.648  0.3569 -0.1039 -0.2272
  188SAPI    HS21605   5.704   4.976   6.733  0.3298  0.0905 -0.1015
  188SAPI   O2121606   5.698   5.167   6.681  0.2891  0.6736  0.0263
  188SAPI   C2121607   5.564   5.168   6.711 -0.0755 -0.5713  0.5074
  188SAPI   O2221608   5.499   5.068   6.732 -0.2604  0.2791 -0.6144
  188SAPI   C2221609   5.525   5.310   6.727 -0.3536 -0.9733  0.3538
  188SAPI   H2R21610   5.604   5.379   6.763 -1.0307 -0.1039  0.2159
  188SAPI   H2S21611   5.494   5.350   6.628 -0.3570 -0.4259  0.5702
  188SAPI    C321612   5.899   5.035   6.637 -0.2458  0.4927 -0.1103
  188SAPI    HX21613   5.917   5.117   6.565  3.2848  0.4062  0.4963
  188SAPI    HY21614   5.929   4.937   6.593 -0.4440  0.0888  0.6310
  188SAPI   O3121615   5.946   5.047   6.772  0.0162 -0.4007 -0.1566
  188SAPI   C3121616   6.004   4.951   6.841  0.6244  0.8806  1.2212
  188SAPI   O3221617   6.002   4.833   6.808  0.6718 -0.5166  0.5795
  188SAPI   C3221618   6.050   5.012   6.970 -0.0271  0.8232 -0.6356
  188SAPI   H2X21619   6.031   5.121   6.974 -1.4774  0.6102 -0.8661
  188SAPI   H2Y21620   6.160   4.998   6.979 -0.1936 -0.5958 -0.5024
  188SAPI   C2321621   5.394   5.316   6.813 -0.2563 -0.4536  0.2506
  188SAPI   H3R21622   5.401   5.279   6.917 -1.4668 -0.4236  0.3587
  188SAPI   H3S21623   5.324   5.255   6.752  1.4440  0.8524 -3.2581
  188SAPI   C2421624   5.332   5.459   6.812 -0.7899  0.2946 -0.7779
  188SAPI   H4R21625   5.234   5.441   6.862 -0.7954 -0.9490 -1.2003
  188SAPI   H4S21626   5.326   5.493   6.706  0.9016 -1.5238 -1.5159
  188SAPI   C2521627   5.416   5.560   6.885 -0.1101  0.5093 -0.0783
  188SAPI   H5R21628   5.524   5.539   6.892 -0.2396  0.0152  0.6377
  188SAPI   C2621629   5.368   5.672   6.940  0.2691  0.0647 -0.3915
  188SAPI   H6R21630   5.444   5.736   6.988 -1.4312  0.9214  1.2805
  188SAPI   C2721631   5.224   5.720   6.953  0.2549  0.1288 -0.7165
  188SAPI   H7R21632   5.215   5.771   7.051 -0.4370 -1.0348 -0.1574
  188SAPI   H7S21633   5.154   5.633   6.954 -0.2758  0.5422 -1.3173
  188SAPI   C2821634   5.183   5.812   6.840 -0.0361 -0.5628 -0.0180
  188SAPI   H8R21635   5.184   5.761   6.743  2.2324  1.4085 -1.1270
  188SAPI   C2921636   5.130   5.936   6.848 -0.3296  0.3999 -0.0844
  188SAPI   H9R21637   5.125   5.994   6.755 -1.8969 -1.4347 -1.2299
  188SAPI  C21021638   5.097   6.007   6.983  0.0989  0.3734  1.2110
  188SAPI  H10R21639   5.126   6.111   6.958  1.5947 -0.6836 -2.1276
  188SAPI  H10S21640   5.166   5.977   7.064  0.2792 -0.1273  0.8804
  188SAPI  C21121641   4.952   6.004   7.039  0.1791  0.3477  0.3615
  188SAPI  H11R21642   4.877   6.010   6.959 -1.0597 -2.1667  1.2341
  188SAPI  C21221643   4.919   5.994   7.169  0.0542 -0.6201 -0.2641
  188SAPI  H12R21644   4.816   5.983   7.205  0.9118 -3.0236  1.8014
  188SAPI  C21321645   5.022   5.997   7.286 -0.0122 -0.1250  0.3376
  188SAPI  H13R21646   5.114   5.939   7.265  0.4785  0.9304 -0.5660
  188SAPI  H13S21647   4.977   5.952   7.376 -0.2547 -0.8926 -0.1612
  188SAPI  C21421648   5.083   6.131   7.314  0.1438  0.0725  0.3010
  188SAPI  H14R21649   5.123   6.176   7.222  0.2886 -2.8464 -1.1685
  188SAPI  C21521650   5.084   6.200   7.426 -0.2807  0.3913  0.3132
  188SAPI  H15R21651   5.135   6.298   7.434 -1.0527  0.6681  2.6091
  188SAPI  C21621652   5.033   6.159   7.558  0.5117  0.0245 -0.8795
  188SAPI  H16R21653   4.943   6.094   7.554  0.5890 -0.3892  2.0383
  188SAPI  H16S21654   4.995   6.250   7.609 -3.3682 -0.9443 -1.7225
  188SAPI  C21721655   5.149   6.085   7.631  0.4339 -0.1735 -0.0075
  188SAPI  H17R21656   5.180   5.996   7.572 -1.1665 -0.8540  0.1255
  188SAPI  H17S21657   5.110   6.048   7.727 -1.3300  2.5686  0.4385
  188SAPI  C21821658   5.277   6.174   7.665  0.6024 -0.1372  0.3084
  188SAPI  H18R21659   5.240   6.265   7.716  1.5363  0.3072  0.1925
  188SAPI  H18S21660   5.332   6.213   7.577 -1.0431  1.1521 -0.1923
  188SAPI  C21921661   5.362   6.099   7.756  1.4950 -0.6240 -0.7932
  188SAPI  H19R21662   5.372   5.992   7.728 -1.2675 -1.9684  2.5637
  188SAPI  H19S21663   5.323   6.089   7.860  0.8245 -2.1843 -1.1779
  188SAPI  C22021664   5.490   6.175   7.789  0.2636 -0.3686  0.0891
  188SAPI  H20R21665   5.556   6.123   7.862  0.8358 -0.1515 -0.2585
  188SAPI  H20S21666   5.466   6.279   7.822 -1.6901 -1.0148  0.8290
  188SAPI  H20T21667   5.549   6.188   7.695  0.1925 -0.0008  0.0929
  188SAPI   C3321668   5.986   4.943   7.099 -0.4910  0.7956  0.0890
  188SAPI   H3X21669   5.977   4.833   7.081 -3.2441  1.0631 -0.5425
  188SAPI   H3Y21670   5.879   4.972   7.091 -1.0104 -1.3195 -1.6387
  188SAPI   C3421671   6.049   4.974   7.238  0.7829  0.5491 -0.2960
  188SAPI   H4X21672   6.084   5.077   7.257  1.2909  0.5639 -1.2135
  188SAPI   H4Y21673   6.140   4.909   7.238  1.4839  1.3517  3.0418
  188SAPI   C3521674   5.963   4.942   7.366  0.1642  0.2669  0.7524
  188SAPI   H5X21675   5.952   4.831   7.362 -0.0023  0.3225 -1.3179
  188SAPI   H5Y21676   5.862   4.989   7.366  0.5439  1.1951  3.0856
  188SAPI   C3621677   6.035   4.996   7.492 -0.2150  0.0275  0.2655
  188SAPI   H6X21678   5.969   5.016   7.579 -2.5326  0.5058 -1.5154
  188SAPI   H6Y21679   6.071   5.096   7.459 -0.2190 -0.0799 -0.0671
  188SAPI   C3721680   6.139   4.901   7.547  0.7518  0.2317  0.6807
  188SAPI   H7X21681   6.204   4.871   7.462  1.8713  2.1578  0.8084
  188SAPI   H7Y21682   6.092   4.810   7.590 -0.9553 -0.4642 -2.3866
  188SAPI   C3821683   6.232   4.960   7.655 -0.5187  0.1588 -0.1807
  188SAPI   H8X21684   6.284   5.048   7.611 -2.1431  2.2104  1.6947
  188SAPI   H8Y21685   6.309   4.882   7.670  1.3992  2.1725  1.1240
  188SAPI   C3921686   6.163   4.996   7.790 -0.1917 -0.3329 -0.0860
  188SAPI   H9X21687   6.086   4.918   7.807  1.0424 -1.5297  0.1709
  188SAPI   H9Y21688   6.108   5.093   7.781  0.5363 -0.1092 -3.0132
  188SAPI  C31021689   6.262   4.986   7.906  0.0322  0.6430  0.2481
  188SAPI  H10X21690   6.206   5.037   7.988 -0.0380 -1.9563  1.9513
  188SAPI  H10Y21691   6.359   5.037   7.888  0.6490  0.1084  1.8621
  188SAPI  C31121692   6.295   4.842   7.945 -0.2522  0.6537  0.5670
  188SAPI  H11X21693   6.389   4.818   7.890 -0.4836 -0.9350  0.8230
  188SAPI  H11Y21694   6.218   4.773   7.904 -0.8884  1.8606 -0.3335
  188SAPI  C31221695   6.312   4.818   8.091 -0.2846 -0.0644  0.2633
  188SAPI  H12X21696   6.324   4.708   8.097  1.2179 -0.0160 -1.1440
  188SAPI  H12Y21697   6.219   4.845   8.147 -0.2865  0.2302  0.1201
  188SAPI  C31321698   6.437   4.880   8.143  0.1150 -0.3110  0.5638
  188SAPI  H13X21699   6.445   4.991   8.133  0.1092 -0.3375  0.2735
  188SAPI  H13Y21700   6.519   4.847   8.076  0.3124  1.6808 -0.2589
  188SAPI  C31421701   6.481   4.840   8.288  1.1195  0.1350  0.1509
  188SAPI  H14X21702   6.428   4.744   8.306 -0.4992  0.5989 -1.7688
  188SAPI  H14Y21703   6.429   4.921   8.344  0.0500 -0.3649 -0.0957
  188SAPI  C31521704   6.631   4.814   8.312 -0.1482 -0.0820 -1.2217
  188SAPI  H15X21705   6.685   4.909   8.293  1.0419 -0.4674  0.0167
  188SAPI  H15Y21706   6.672   4.742   8.238  3.1242  0.5902 -0.2422
  188SAPI  C31621707   6.654   4.766   8.459 -0.2940  0.3800  0.8761
  188SAPI  H16X21708   6.624   4.659   8.454  0.3859  0.1618 -3.8158
  188SAPI  H16Y21709   6.606   4.837   8.530  0.9057  3.7931 -1.4639
  188SAPI  C31721710   6.799   4.753   8.511 -0.2836 -0.5648  0.4210
  188SAPI  H17X21711   6.854   4.849   8.504 -0.7178 -0.3491 -0.0935
  188SAPI  H17Y21712   6.852   4.676   8.452  1.1241 -1.4961  2.7589
  188SAPI  C31821713   6.817   4.696   8.650 -0.5254  0.6369 -0.0114
  188SAPI  H18X21714   6.762   4.751   8.730 -0.2889 -0.4620  0.9335
  188SAPI  H18Y21715   6.924   4.705   8.679 -0.7886  1.7912  0.7046
  188SAPI  H18Z21716   6.784   4.591   8.665 -0.4680  0.5775 -0.3031
  189POPC     N21717   1.080   1.619  10.674 -0.0712  0.3855  0.0976
  189POPC   C1221718   0.982   1.620  10.794  0.8524 -0.3384 -0.0529
  189POPC  H12A21719   0.984   1.721  10.833  0.0194 -0.3166 -0.0630
  189POPC  H12B21720   1.021   1.570  10.881  0.4090  0.9417  0.9162
  189POPC   C1321721   1.041   1.723  10.579 -0.4473 -0.7577  0.1966
  189POPC  H13A21722   1.102   1.733  10.490 -0.9361  2.7002  0.1066
  189POPC  H13B21723   0.941   1.711  10.542 -0.1140  0.2812 -1.1166
  189POPC  H13C21724   1.036   1.818  10.630 -0.1864 -0.4198 -0.3982
  189POPC   C1421725   1.218   1.650  10.719 -0.6632 -0.7209 -0.4359
  189POPC  H14A21726   1.288   1.608  10.649 -0.1176 -0.8000  0.1428
  189POPC  H14B21727   1.244   1.753  10.738  0.0220 -1.2701  1.8977
  189POPC  H14C21728   1.248   1.602  10.811  0.0151  0.0353 -0.2533
  189POPC   C1521729   1.079   1.489  10.606 -0.1412 -0.6062  0.5549
  189POPC  H15A21730   1.157   1.478  10.533 -0.0585  2.3938  0.0548
  189POPC  H15B21731   0.985   1.466  10.559 -0.0371 -1.1350  0.5943
  189POPC  H15C21732   1.085   1.410  10.680 -0.4312 -0.7467  0.4296
  189POPC   C1121733   0.833   1.590  10.762 -0.4297 -0.7076 -0.2712
  189POPC  H11A21734   0.804   1.665  10.685 -1.7427 -1.9734 -1.0607
  189POPC  H11B21735   0.769   1.603  10.852  0.6808 -2.1181  0.7804
  189POPC     P21736   0.798   1.342  10.825  0.7293 -0.0315  0.0134
  189POPC   O1321737   0.671   1.345  10.901  0.2905 -0.3964  0.2740
  189POPC   O1421738   0.926   1.337  10.899 -0.1697 -0.1811 -0.4606
  189POPC   O1221739   0.805   1.459  10.719  0.3304 -0.1499 -0.4450
  189POPC   O1121740   0.779   1.221  10.732 -0.3272 -0.1950  0.0136
  189POPC    C121741   0.838   1.097  10.743  0.2372 -0.2862 -0.1348
  189POPC    HA21742   0.816   1.059  10.845 -1.9033  0.2574 -0.3342
  189POPC    HB21743   0.945   1.113  10.718  0.4216  2.3221  1.9485
  189POPC    C221744   0.773   0.988  10.650 -0.0464 -0.3761  0.0931
  189POPC    HS21745   0.831   0.894  10.655 -1.7238 -1.5822 -1.8398
  189POPC   O2121746   0.764   1.037  10.515  0.1005  0.3267  0.4471
  189POPC   C2121747   0.888   1.044  10.472 -0.5352 -0.5415  0.5078
  189POPC   O2221748   0.986   0.979  10.510  0.1736 -0.4496  0.9838
  189POPC   C2221749   0.900   1.171  10.386  0.9345  0.4704  0.6613
  189POPC   H2R21750   0.884   1.262  10.448 -1.7440  0.1851  0.4955
  189POPC   H2S21751   0.813   1.168  10.316  2.0762 -1.1715 -0.7794
  189POPC    C321752   0.633   0.944  10.700 -0.1486  0.7534  1.3186
  189POPC    HX21753   0.579   1.035  10.733 -2.1481 -0.4225  1.4612
  189POPC    HY21754   0.659   0.881  10.788  1.6559 -0.0351  0.2811
  189POPC   O3121755   0.560   0.865  10.599 -0.2382  0.0726  0.0099
  189POPC   C3121756   0.471   0.932  10.524 -0.3907  0.1961 -0.6649
  189POPC   O3221757   0.446   1.051  10.535  0.4036 -0.3503  0.1758
  189POPC   C3221758   0.404   0.847  10.416 -0.1478 -0.6980  0.2536
  189POPC   H2X21759   0.295   0.840  10.437  0.0773  0.4480  2.0505
  189POPC   H2Y21760   0.449   0.746  10.426  2.3146  0.3121  0.1322
  189POPC   C2321761   1.033   1.188  10.307  0.2657 -0.7271 -0.1444
  189POPC   H3R21762   1.121   1.185  10.376 -0.1282 -1.2571  0.3448
  189POPC   H3S21763   1.018   1.287  10.259  0.6059 -1.2479 -1.3521
  189POPC   C2421764   1.064   1.075  10.210  0.2475  0.2299  0.0425
  189POPC   H4R21765   1.063   0.972  10.252 -5.1196 -0.6692 -1.4652
  189POPC   H4S21766   1.165   1.095  10.169  0.2313 -1.1761 -0.7228
  189POPC   C2521767   0.964   1.074  10.093 -0.7128 -0.1906 -0.2631
  189POPC   H5R21768   0.962   1.179  10.056 -0.9090 -1.0634 -2.9965
  189POPC   H5S21769   0.865   1.045  10.136 -0.9888  0.9564 -0.0790
  189POPC   C2621770   0.995   0.985   9.976  0.4011  0.6718  0.1530
  189POPC   H6R21771   0.988   0.877  10.003  1.7615 -0.6258 -3.9992
  189POPC   H6S21772   1.101   1.006   9.948  0.2473  1.2097 -0.0309
  189POPC   C2721773   0.896   1.000   9.860  0.1499 -0.0733 -0.3870
  189POPC   H7R21774   0.906   1.097   9.806  0.6251  0.7277  1.0857
  189POPC   H7S21775   0.794   1.012   9.902 -0.0426  0.2441 -0.9288
  189POPC   C2821776   0.882   0.876   9.768  0.4324  0.3307 -0.0991
  189POPC   H8R21777   0.888   0.794   9.842 -1.5844  1.6589  1.6628
  189POPC   H8S21778   0.969   0.877   9.699 -0.1186  3.5712 -0.9239
  189POPC   C2921779   0.753   0.873   9.693  0.1693  0.0727  0.0339
  189POPC   H9121780   0.660   0.849   9.747  0.0327 -1.4178 -0.7987
  189POPC  C21021781   0.737   0.899   9.565  0.4170  0.6042  0.4656
  189POPC  H10121782   0.637   0.911   9.520  1.0860  2.7592 -0.5961
  189POPC  C21121783   0.847   0.926   9.469 -0.2059  0.3117 -0.2711
  189POPC  H11R21784   0.944   0.885   9.503 -0.9435  0.6381  2.4095
  189POPC  H11S21785   0.841   1.036   9.456 -2.9102  0.1880 -0.8035
  189POPC  C21221786   0.828   0.862   9.331 -0.0198  0.0872  0.2700
  189POPC  H12R21787   0.733   0.894   9.282 -0.6303  0.1808  1.4672
  189POPC  H12S21788   0.820   0.751   9.340  4.1153 -0.2359  2.3269
  189POPC  C21321789   0.940   0.906   9.240 -0.1001 -0.3354  0.0486
  189POPC  H13R21790   1.030   0.868   9.293  0.6230  0.9797 -0.2109
  189POPC  H13S21791   0.948   1.015   9.219  3.9865 -0.3001  0.9832
  189POPC  C21421792   0.915   0.828   9.108 -0.2181  0.5255  0.1051
  189POPC  H14R21793   0.817   0.860   9.068 -0.1947 -1.0961 -1.3947
  189POPC  H14S21794   0.909   0.719   9.129 -3.0931  0.7878  1.0245
  189POPC  C21521795   1.026   0.842   9.001 -0.4678 -0.3964  0.2790
  189POPC  H15R21796   1.133   0.843   9.032  0.0373  1.8368 -1.2548
  189POPC  H15S21797   1.019   0.946   8.964  1.2907 -0.4061 -0.2091
  189POPC  C21621798   1.021   0.742   8.881  0.2256 -0.8383  0.0228
  189POPC  H16R21799   0.927   0.757   8.823  0.0999 -2.4442 -0.2305
  189POPC  H16S21800   1.024   0.633   8.902 -0.0414 -0.5793  1.4819
  189POPC  C21721801   1.142   0.753   8.796 -0.0510 -0.4490  0.8104
  189POPC  H17R21802   1.160   0.839   8.729  4.0164 -1.4871  0.2854
  189POPC  H17S21803   1.124   0.674   8.720  0.5591  1.3106 -1.2722
  189POPC  C21821804   1.279   0.730   8.864  0.5392  0.3650 -0.5268
  189POPC  H18R21805   1.328   0.825   8.895  3.3867 -0.8504 -0.9874
  189POPC  H18S21806   1.353   0.675   8.802 -1.1704 -2.2897 -0.3734
  189POPC  H18T21807   1.263   0.662   8.950  0.7867  2.3653  1.1842
  189POPC   C3321808   0.418   0.904  10.274 -0.4658  0.3365 -0.7138
  189POPC   H3X21809   0.523   0.890  10.240  0.3349  1.7816  0.9710
  189POPC   H3Y21810   0.398   1.013  10.265 -1.4692  0.2912  0.6520
  189POPC   C3421811   0.337   0.833  10.169 -0.1942  0.1580  0.1438
  189POPC   H4X21812   0.233   0.838  10.209 -0.5372  2.9530 -0.8460
  189POPC   H4Y21813   0.360   0.726  10.151  1.9199  0.4035  1.1639
  189POPC   C3521814   0.319   0.907  10.038 -0.2826 -0.0081  0.8041
  189POPC   H5X21815   0.417   0.952  10.010 -0.9828 -0.5291 -3.0506
  189POPC   H5Y21816   0.256   0.996  10.059  0.2410  0.3555  0.8522
  189POPC   C3621817   0.274   0.812   9.924  0.3266  0.6271 -0.1544
  189POPC   H6X21818   0.172   0.772   9.940  0.2788  1.2379  1.1503
  189POPC   H6Y21819   0.347   0.729   9.927 -0.3328  0.0562  0.4471
  189POPC   C3721820   0.291   0.892   9.790  0.3550  0.3371  0.4725
  189POPC   H7X21821   0.394   0.933   9.775  1.7536 -3.6930 -2.6580
  189POPC   H7Y21822   0.224   0.980   9.790 -1.3799 -0.9361  1.2956
  189POPC   C3821823   0.271   0.798   9.673 -0.6331 -0.0287  0.2761
  189POPC   H8X21824   0.170   0.750   9.667 -0.7355  0.0731  1.1247
  189POPC   H8Y21825   0.344   0.716   9.688 -1.1423 -0.7276 -0.9102
  189POPC   C3921826   0.297   0.862   9.535  0.0754 -0.8993 -0.4811
  189POPC   H9X21827   0.377   0.940   9.539 -0.7731  0.3724 -4.3064
  189POPC   H9Y21828   0.202   0.909   9.503  0.7040  2.1431  1.6919
  189POPC  C31021829   0.342   0.778   9.425  0.4385  0.2815 -0.4367
  189POPC  H10X21830   0.266   0.697   9.420  1.0748 -0.3649  0.1352
  189POPC  H10Y21831   0.444   0.738   9.437 -0.2183 -1.0450  1.1393
  189POPC  C31121832   0.332   0.845   9.284  0.6278  0.5415 -0.5068
  189POPC  H11X21833   0.423   0.909   9.272 -0.8472  3.1947  1.3832
  189POPC  H11Y21834   0.242   0.910   9.293  1.1667  1.2019  0.2809
  189POPC  C31221835   0.344   0.736   9.172  0.6105 -0.3305  0.4800
  189POPC  H12X21836   0.257   0.667   9.177 -0.4672  0.6400 -2.3320
  189POPC  H12Y21837   0.437   0.681   9.198  1.3766  0.8546  0.3307
  189POPC  C31321838   0.336   0.787   9.032 -0.1822  0.6190  0.5877
  189POPC  H13X21839   0.266   0.872   9.017 -0.2237  0.4240 -0.4248
  189POPC  H13Y21840   0.306   0.703   8.966  1.1954 -0.5865  1.4520
  189POPC  C31421841   0.469   0.840   8.980  0.1038 -0.2884 -0.0296
  189POPC  H14X21842   0.534   0.753   8.956 -0.4215 -0.9282  0.8270
  189POPC  H14Y21843   0.520   0.900   9.058  0.0866 -0.5721  0.1994
  189POPC  C31521844   0.459   0.917   8.853 -0.4659 -0.1414  0.0073
  189POPC  H15X21845   0.374   0.989   8.850 -1.0257 -0.8071 -0.3500
  189POPC  H15Y21846   0.432   0.838   8.780 -1.3409 -1.6666  1.8869
  189POPC  C31621847   0.591   0.978   8.805 -0.2573  0.3206  0.6530
  189POPC  H16X21848   0.650   1.031   8.882  1.5909  1.7750 -1.6200
  189POPC  H16Y21849   0.579   1.046   8.718 -1.6748 -1.1069 -0.3493
  189POPC  H16Z21850   0.654   0.893   8.769  0.2648  1.1233 -0.3837
  190POPC     N21851   0.455   5.790  11.414  0.7462  0.6084 -0.1436
  190POPC   C1221852   0.417   5.767  11.273  0.3862  0.5399  0.3475
  190POPC  H12A21853   0.358   5.853  11.245 -0.6946 -0.3195 -0.0908
  190POPC  H12B21854   0.360   5.677  11.261  0.7345  0.4413 -0.6390
  190POPC   C1321855   0.535   5.674  11.461  0.2598 -0.3784 -1.1766
  190POPC  H13A21856   0.541   5.677  11.569 -3.6525 -0.4654 -0.7922
  190POPC  H13B21857   0.469   5.588  11.460 -1.6561  0.9154  1.3271
  190POPC  H13C21858   0.628   5.659  11.409  1.0367 -2.9157  0.6967
  190POPC   C1421859   0.533   5.913  11.431  0.0253  0.5044  0.6815
  190POPC  H14A21860   0.605   5.915  11.350  0.0945  0.9898  0.7501
  190POPC  H14B21861   0.475   6.004  11.430 -1.3267 -0.2790  2.5412
  190POPC  H14C21862   0.597   5.907  11.518  0.9760 -2.0648 -0.0981
  190POPC   C1521863   0.337   5.806  11.503 -0.1381 -0.3057 -0.3244
  190POPC  H15A21864   0.279   5.889  11.464  0.3272  0.8325  1.2909
  190POPC  H15B21865   0.356   5.830  11.607 -1.7318  1.1783 -0.3314
  190POPC  H15C21866   0.274   5.719  11.511  0.7118 -0.8419  0.7527
  190POPC   C1121867   0.523   5.735  11.169 -0.0527 -0.1811  0.5180
  190POPC  H11A21868   0.462   5.729  11.076  0.5456  0.1852  0.0946
  190POPC  H11B21869   0.583   5.645  11.193  0.9946 -0.2407 -1.9965
  190POPC     P21870   0.735   5.866  11.067  0.5439  0.5654  0.0862
  190POPC   O1321871   0.851   5.787  11.117  0.1459 -0.6084  0.2380
  190POPC   O1421872   0.760   6.007  11.040  0.1176 -0.5164 -0.2839
  190POPC   O1221873   0.615   5.852  11.161  0.1970  0.5158 -0.5827
  190POPC   O1121874   0.688   5.798  10.931  0.3825  0.0462 -0.7095
  190POPC    C121875   0.573   5.854  10.856 -0.2057 -0.1210  0.3860
  190POPC    HA21876   0.512   5.924  10.917 -0.6130  0.0689 -0.2270
  190POPC    HB21877   0.507   5.766  10.840  0.3854 -0.2824 -1.3618
  190POPC    C221878   0.608   5.919  10.721 -0.1476  0.0606 -0.2186
  190POPC    HS21879   0.649   6.022  10.734  3.3676 -1.3070  0.4897
  190POPC   O2121880   0.489   5.919  10.640  0.0346  0.1143  0.3173
  190POPC   C2121881   0.485   6.013  10.541  0.2389  0.0573 -0.2137
  190POPC   O2221882   0.558   6.106  10.537 -0.3068 -0.1042 -0.3960
  190POPC   C2221883   0.363   5.977  10.448 -0.0333 -0.0787  0.2652
  190POPC   H2R21884   0.314   6.068  10.408 -1.0834  0.0124  1.6863
  190POPC   H2S21885   0.283   5.937  10.515  0.5490  1.2073  1.7985
  190POPC    C321886   0.726   5.846  10.650 -0.7069  0.1413  0.8429
  190POPC    HX21887   0.707   5.737  10.641 -1.4569  0.4029 -1.0842
  190POPC    HY21888   0.806   5.850  10.728 -0.9917  0.0763  1.1438
  190POPC   O3121889   0.759   5.898  10.524  0.4385 -0.4885 -1.0411
  190POPC   C3121890   0.885   5.892  10.490  0.9510 -0.1913  1.2220
  190POPC   O3221891   0.974   5.837  10.551  0.4523  0.3928 -0.0417
  190POPC   C3221892   0.911   5.974  10.360 -0.5006 -0.9029  0.2726
  190POPC   H2X21893   0.847   6.065  10.353 -0.8534 -1.2614 -1.8635
  190POPC   H2Y21894   0.872   5.913  10.275 -3.4146  1.4751 -0.2602
  190POPC   C2321895   0.406   5.879  10.339 -0.2105  0.1375 -0.6573
  190POPC   H3R21896   0.310   5.854  10.288 -1.9993  2.5923  1.2601
  190POPC   H3S21897   0.467   5.797  10.384 -0.1417 -1.0881 -2.8168
  190POPC   C2421898   0.498   5.939  10.222  0.4648 -0.3212 -0.1421
  190POPC   H4R21899   0.588   5.988  10.265 -0.7411  2.2183 -0.3067
  190POPC   H4S21900   0.442   6.009  10.156  2.1319 -1.2170 -2.6269
  190POPC   C2521901   0.560   5.831  10.133 -0.3292 -0.8919  0.3186
  190POPC   H5R21902   0.482   5.764  10.091 -0.1945  0.8328 -2.9533
  190POPC   H5S21903   0.628   5.767  10.193 -0.9072 -2.2034 -0.3761
  190POPC   C2621904   0.638   5.898  10.017  0.0460 -0.2359 -0.0503
  190POPC   H6R21905   0.724   5.953  10.061  1.4007 -1.3455 -1.2217
  190POPC   H6S21906   0.573   5.968   9.959 -1.8806 -3.4906 -2.1562
  190POPC   C2721907   0.695   5.787   9.924 -0.0601 -0.2204 -0.1073
  190POPC   H7R21908   0.603   5.735   9.889  0.4729 -0.7195 -0.7938
  190POPC   H7S21909   0.756   5.726   9.994 -0.9367  1.1124  1.9164
  190POPC   C2821910   0.787   5.840   9.814 -0.7371  0.4794  0.0597
  190POPC   H8R21911   0.832   5.752   9.765 -4.1505 -2.6670  2.0387
  190POPC   H8S21912   0.870   5.902   9.855 -1.0264  2.5236 -2.2055
  190POPC   C2921913   0.712   5.926   9.719  0.0092  0.2431  0.2590
  190POPC   H9121914   0.653   6.008   9.761  0.2845  0.5832 -0.0186
  190POPC  C21021915   0.706   5.910   9.585 -0.7424  0.2585  0.7390
  190POPC  H10121916   0.666   5.989   9.520  2.3520  0.5938 -0.9198
  190POPC  C21121917   0.775   5.795   9.504 -0.5835 -0.7321  0.2045
  190POPC  H11R21918   0.821   5.718   9.570  0.0597  0.1443  0.7871
  190POPC  H11S21919   0.854   5.830   9.435 -0.7356 -2.9497 -1.1965
  190POPC  C21221920   0.674   5.716   9.408 -0.9735 -0.2549 -0.1255
  190POPC  H12R21921   0.578   5.707   9.463  0.1837  0.5465  2.1744
  190POPC  H12S21922   0.707   5.613   9.381  1.4496  0.7399 -1.2637
  190POPC  C21321923   0.664   5.794   9.273 -0.5964  0.5298 -0.6916
  190POPC  H13R21924   0.675   5.904   9.284  4.4992  0.3614 -1.3459
  190POPC  H13S21925   0.565   5.772   9.228 -1.4194  0.2764  1.1624
  190POPC  C21421926   0.786   5.768   9.185 -0.5903  0.3853  0.0087
  190POPC  H14R21927   0.782   5.663   9.149 -1.0370  0.6262 -0.6792
  190POPC  H14S21928   0.880   5.787   9.242  0.4801  0.7178 -1.7811
  190POPC  C21521929   0.800   5.858   9.058 -0.0786 -0.7055  0.0496
  190POPC  H15R21930   0.904   5.889   9.035 -1.0288  1.9822 -1.1097
  190POPC  H15S21931   0.744   5.952   9.079  3.8577  1.8193  0.3724
  190POPC  C21621932   0.741   5.791   8.927 -0.0153 -0.7751  0.1012
  190POPC  H16R21933   0.797   5.698   8.905  0.9673 -0.5203  1.3633
  190POPC  H16S21934   0.750   5.868   8.848  0.0278 -0.9452 -0.0589
  190POPC  C21721935   0.588   5.755   8.945  0.3550  0.3715  0.6071
  190POPC  H17R21936   0.539   5.854   8.944 -1.9826 -0.7099  0.5267
  190POPC  H17S21937   0.579   5.692   9.037  0.5864 -0.2763  0.1989
  190POPC  C21821938   0.528   5.686   8.816 -0.2632 -0.1151  0.6157
  190POPC  H18R21939   0.559   5.580   8.809 -0.3661 -0.0843 -0.6458
  190POPC  H18S21940   0.540   5.747   8.724 -0.5621  0.2728  0.8311
  190POPC  H18T21941   0.418   5.690   8.828 -0.4414 -2.3914  0.1343
  190POPC   C3321942   1.066   6.016  10.341  0.1807 -0.2164  0.3463
  190POPC   H3X21943   1.124   5.925  10.367 -2.2306 -1.9537  0.0098
  190POPC   H3Y21944   1.084   6.093  10.419  3.0585  0.2982 -0.6724
  190POPC   C3421945   1.108   6.060  10.207 -0.0686  0.4455  0.4164
  190POPC   H4X21946   1.203   6.117  10.206  0.2886 -0.1551 -0.3091
  190POPC   H4Y21947   1.031   6.131  10.169 -1.0177  1.6439  4.1150
  190POPC   C3521948   1.113   5.950  10.097 -0.0939  0.3032 -0.8046
  190POPC   H5X21949   1.025   5.883  10.112  0.8196 -0.3844  2.4189
  190POPC   H5Y21950   1.198   5.879  10.113 -0.4488 -0.0787 -0.5803
  190POPC   C3621951   1.138   6.006   9.960  1.0210 -0.3450 -0.4920
  190POPC   H6X21952   1.218   6.083   9.952  0.7789 -0.2185 -1.9982
  190POPC   H6Y21953   1.054   6.076   9.940  0.8528 -1.0145 -2.2960
  190POPC   C3721954   1.152   5.911   9.838 -0.3489  0.0648 -0.3833
  190POPC   H7X21955   1.076   5.831   9.834 -1.3334  0.9969 -0.6329
  190POPC   H7Y21956   1.253   5.864   9.842  1.3294  3.2715 -1.6998
  190POPC   C3821957   1.131   5.982   9.705  0.8587 -0.2065  0.5241
  190POPC   H8X21958   1.182   6.080   9.711  2.2535 -0.9839  2.5957
  190POPC   H8Y21959   1.024   6.003   9.683  0.8291 -0.7031  0.1711
  190POPC   C3921960   1.189   5.913   9.586 -0.1072  0.2295 -0.1419
  190POPC   H9X21961   1.151   5.811   9.565 -0.0450  0.4299 -1.2987
  190POPC   H9Y21962   1.297   5.899   9.611 -0.8687 -2.9477  1.9845
  190POPC  C31021963   1.178   5.984   9.456  0.4237 -0.4176 -0.5112
  190POPC  H10X21964   1.228   6.083   9.456 -0.6482  0.1468 -1.2174
  190POPC  H10Y21965   1.068   5.989   9.437  0.2085  1.5035  0.9253
  190POPC  C31121966   1.232   5.897   9.343 -0.3624 -0.0869  0.7736
  190POPC  H11X21967   1.198   5.791   9.348  0.0407 -0.1915  1.3475
  190POPC  H11Y21968   1.343   5.905   9.337 -0.5221  1.4046 -1.1073
  190POPC  C31221969   1.172   5.945   9.215  0.2564 -0.6472  0.0895
  190POPC  H12X21970   1.061   5.947   9.211  0.1216 -3.7942 -0.3889
  190POPC  H12Y21971   1.198   5.872   9.135  0.0899 -0.8358  0.2102
  190POPC  C31321972   1.218   6.091   9.174 -0.2727  0.9243 -0.3324
  190POPC  H13X21973   1.329   6.092   9.166 -0.2669  1.2456 -0.2111
  190POPC  H13Y21974   1.189   6.162   9.254 -1.9036 -0.1409  0.0659
  190POPC  C31421975   1.160   6.137   9.035  1.0704 -0.3926 -0.7023
  190POPC  H14X21976   1.055   6.102   9.027  1.7036 -2.4281 -0.8598
  190POPC  H14Y21977   1.211   6.078   8.956  0.1336 -1.8802 -0.2548
  190POPC  C31521978   1.183   6.284   8.999 -0.1356  0.7473  0.5419
  190POPC  H15X21979   1.292   6.284   8.980 -0.0596 -1.2560  0.7893
  190POPC  H15Y21980   1.153   6.346   9.087 -0.6287  2.4053 -0.7324
  190POPC  C31621981   1.097   6.313   8.880  0.3584 -0.0308  0.1452
  190POPC  H16X21982   1.114   6.231   8.807  1.6738  1.0854 -0.8655
  190POPC  H16Y21983   1.144   6.404   8.837 -1.1257  0.8712  0.3438
  190POPC  H16Z21984   0.990   6.334   8.902  0.5850  2.2468 -0.6226
  191POPC     N21985   0.254   4.410   6.466 -0.4652  0.3840  0.2427
  191POPC   C1221986   0.368   4.363   6.555  0.5100 -0.4087 -0.4075
  191POPC  H12A21987   0.325   4.356   6.654  0.3923  1.8651 -0.2493
  191POPC  H12B21988   0.437   4.445   6.558 -0.2541  0.3876 -2.8027
  191POPC   C1321989   0.148   4.312   6.455 -0.4622 -0.0443 -0.1315
  191POPC  H13A21990   0.065   4.360   6.404 -0.7322  3.0721  2.9063
  191POPC  H13B21991   0.175   4.222   6.401 -0.0813 -0.5837  0.9357
  191POPC  H13C21992   0.107   4.279   6.549 -2.1563 -1.7018 -1.3596
  191POPC   C1421993   0.202   4.542   6.512  0.1286  0.0298 -0.2677
  191POPC  H14A21994   0.120   4.573   6.449 -1.2002 -2.0107  0.3690
  191POPC  H14B21995   0.174   4.552   6.616  3.4149 -1.3362  0.8770
  191POPC  H14C21996   0.286   4.610   6.514  0.8385 -0.8490  1.7288
  191POPC   C1521997   0.314   4.452   6.329  0.0219  0.4829 -0.4098
  191POPC  H15A21998   0.370   4.368   6.292  0.9877  1.9971 -2.5614
  191POPC  H15B21999   0.386   4.531   6.338 -1.7054  2.1666 -0.6973
  191POPC  H15C22000   0.239   4.494   6.265 -0.7668 -0.4861 -0.1585
  191POPC   C1122001   0.454   4.240   6.529  0.8188 -0.8068  0.0036
  191POPC  H11A22002   0.395   4.149   6.553 -1.9284  0.2943 -2.1241
  191POPC  H11B22003   0.534   4.249   6.606  0.5557  1.9829  0.0732
  191POPC     P22004   0.496   4.096   6.316  0.0411  0.0109  0.0340
  191POPC   O1322005   0.577   4.103   6.194  0.0313  0.2792  0.2030
  191POPC   O1422006   0.358   4.048   6.306 -0.6705  0.1688 -0.1454
  191POPC   O1222007   0.505   4.233   6.394  0.3723 -0.5302  0.1745
  191POPC   O1122008   0.575   3.993   6.406  0.3070  0.0371  0.4960
  191POPC    C122009   0.713   4.026   6.427 -0.3207 -0.1884 -0.9736
  191POPC    HA22010   0.734   4.134   6.445  1.3099 -0.6374  0.0325
  191POPC    HB22011   0.774   4.000   6.337  0.5519 -2.0660  0.1067
  191POPC    C222012   0.782   3.946   6.537 -0.3224  0.7904  0.0803
  191POPC    HS22013   0.772   3.839   6.510 -1.8373  0.6393  1.0910
  191POPC   O2122014   0.719   3.970   6.662  0.4454  0.0131  0.8018
  191POPC   C2122015   0.622   3.889   6.686  0.5764 -0.8846 -0.3068
  191POPC   O2222016   0.603   3.779   6.645  0.1562 -0.2803 -0.6127
  191POPC   C2222017   0.520   3.959   6.784 -0.5487  0.8366  0.2706
  191POPC   H2R22018   0.424   3.943   6.730  0.1938  3.3482 -2.0125
  191POPC   H2S22019   0.530   4.069   6.793  0.1515  0.6976  1.4668
  191POPC    C322020   0.937   3.975   6.541 -0.3353  0.0038 -0.6790
  191POPC    HX22021   0.963   4.081   6.524  0.5428 -0.3779 -1.8670
  191POPC    HY22022   0.976   3.920   6.453 -2.2346 -1.9040 -0.4350
  191POPC   O3122023   1.000   3.920   6.663  0.0643  0.1526 -0.0040
  191POPC   C3122024   1.005   4.014   6.759 -0.3416  0.6531  0.6995
  191POPC   O3222025   0.970   4.132   6.746 -0.2560  0.3018 -0.6211
  191POPC   C3222026   1.063   3.947   6.879 -0.2563 -0.0618 -0.2362
  191POPC   H2X22027   1.172   3.939   6.858  0.2453  1.2689  1.6267
  191POPC   H2Y22028   1.012   3.849   6.889 -0.4544  0.1882  1.5290
  191POPC   C2322029   0.504   3.890   6.920  0.0998 -0.0622  0.3763
  191POPC   H3R22030   0.503   3.779   6.919  1.3881 -0.1893  3.2308
  191POPC   H3S22031   0.409   3.916   6.972 -2.3451 -4.0035 -1.6716
  191POPC   C2422032   0.628   3.917   7.016  0.8554 -0.9534 -0.2875
  191POPC   H4R22033   0.649   4.025   7.025  0.7245 -0.9979  0.6618
  191POPC   H4S22034   0.717   3.884   6.959  1.0648  1.7514 -1.6913
  191POPC   C2522035   0.598   3.859   7.156  0.0122 -0.8507  1.1647
  191POPC   H5R22036   0.590   3.749   7.149 -1.9885 -0.6674 -0.2917
  191POPC   H5S22037   0.506   3.911   7.192  1.6243  1.6851  1.9509
  191POPC   C2622038   0.698   3.897   7.262 -0.3246  0.3447 -0.5370
  191POPC   H6R22039   0.720   4.006   7.258 -3.1652  1.0984  1.4598
  191POPC   H6S22040   0.795   3.847   7.242  0.7529  2.1175  0.0090
  191POPC   C2722041   0.653   3.847   7.403 -0.5791  0.2051  0.5548
  191POPC   H7R22042   0.614   3.746   7.380 -1.8209  0.7787  0.0694
  191POPC   H7S22043   0.563   3.898   7.444 -0.8078 -0.0784  0.4065
  191POPC   C2822044   0.776   3.836   7.506 -0.5518  0.5971  0.7665
  191POPC   H8R22045   0.859   3.797   7.443 -0.3394  2.3200 -0.0828
  191POPC   H8S22046   0.742   3.765   7.585 -1.2679 -0.9015 -0.8351
  191POPC   C2922047   0.815   3.966   7.565  0.1222 -0.8745 -0.4412
  191POPC   H9122048   0.803   4.050   7.495 -2.4321  0.7100  1.7054
  191POPC  C21022049   0.853   3.980   7.691 -0.3119  0.0583  0.4226
  191POPC  H10122050   0.894   4.079   7.715  1.1406 -0.7582  1.4768
  191POPC  C21122051   0.858   3.870   7.794  0.2531 -0.1951 -0.5963
  191POPC  H11R22052   0.966   3.871   7.821  0.1421  2.0923 -0.0633
  191POPC  H11S22053   0.840   3.768   7.755  1.0840  0.6840 -3.6053
  191POPC  C21222054   0.777   3.892   7.916 -0.4633 -0.0462 -0.4024
  191POPC  H12R22055   0.669   3.887   7.893 -0.6460  0.7408  0.2126
  191POPC  H12S22056   0.795   3.989   7.968 -3.1380 -0.0879  0.7402
  191POPC  C21322057   0.818   3.784   8.022 -0.0713 -0.5271  0.2376
  191POPC  H13R22058   0.834   3.686   7.973  2.1587 -0.4639  0.7395
  191POPC  H13S22059   0.732   3.775   8.092  1.9270 -3.4909  2.5690
  191POPC  C21422060   0.941   3.822   8.113 -0.7701  0.0722 -0.0628
  191POPC  H14R22061   0.922   3.924   8.154  0.9299 -0.0938  1.2597
  191POPC  H14S22062   1.038   3.834   8.061  0.5134 -2.7951  1.4403
  191POPC  C21522063   0.966   3.730   8.233 -0.6005 -0.1949  0.4388
  191POPC  H15R22064   0.942   3.628   8.197  2.3067 -0.9995  0.4877
  191POPC  H15S22065   0.904   3.763   8.318 -0.2649 -1.5785  1.2524
  191POPC  C21622066   1.116   3.732   8.280  0.1418  0.6443 -0.2356
  191POPC  H16R22067   1.177   3.714   8.190 -1.3648 -2.2922 -0.8230
  191POPC  H16S22068   1.126   3.651   8.356 -0.2681  1.3234  0.5636
  191POPC  C21722069   1.168   3.862   8.349  0.2462 -0.0604  0.4103
  191POPC  H17R22070   1.099   3.908   8.423  1.1702  0.1814  1.1257
  191POPC  H17S22071   1.190   3.936   8.270 -1.3864 -0.4285 -0.4446
  191POPC  C21822072   1.298   3.823   8.413 -0.0631 -0.3737 -0.0591
  191POPC  H18R22073   1.297   3.753   8.499  0.1136  1.0456  1.1593
  191POPC  H18S22074   1.347   3.910   8.463  1.0204  0.3454 -2.2230
  191POPC  H18T22075   1.377   3.785   8.345 -0.1722  1.1644 -1.1135
  191POPC   C3322076   1.031   4.014   7.012  0.3543  0.3858  0.2145
  191POPC   H3X22077   0.925   3.988   7.033  0.9213 -1.1515  1.3555
  191POPC   H3Y22078   1.035   4.125   7.003 -0.9835  0.4065 -0.3396
  191POPC   C3422079   1.123   3.964   7.124 -0.0956 -0.6365 -0.6877
  191POPC   H4X22080   1.230   3.977   7.093 -0.0975  0.2264 -0.3639
  191POPC   H4Y22081   1.099   3.856   7.137 -0.2498 -0.5178  0.0309
  191POPC   C3522082   1.098   4.022   7.264  0.2674 -0.4391 -0.2814
  191POPC   H5X22083   0.992   4.012   7.293  0.4318 -0.9133  0.1600
  191POPC   H5Y22084   1.112   4.132   7.254 -1.2233 -0.3405 -1.7050
  191POPC   C3622085   1.195   3.963   7.367 -0.0969 -0.1262  0.3820
  191POPC   H6X22086   1.304   3.974   7.346 -0.1953 -2.1354 -1.5916
  191POPC   H6Y22087   1.171   3.855   7.379 -1.5803  0.1038 -0.2782
  191POPC   C3722088   1.183   4.035   7.503  0.2557  0.7553 -0.7263
  191POPC   H7X22089   1.077   4.045   7.535  0.3315 -0.1985 -0.1648
  191POPC   H7Y22090   1.220   4.140   7.493 -1.6698  1.5240 -0.1413
  191POPC   C3822091   1.245   3.948   7.611  0.1755  1.3616 -0.4216
  191POPC   H8X22092   1.349   3.918   7.587  1.0056  1.1292  3.0320
  191POPC   H8Y22093   1.190   3.852   7.621  1.0276  1.0347  1.4546
  191POPC   C3922094   1.248   4.025   7.747  0.2271  0.4594  0.2124
  191POPC   H9X22095   1.140   4.047   7.761 -0.2473 -0.4809 -1.5885
  191POPC   H9Y22096   1.304   4.118   7.723 -0.3539  0.9449  0.7294
  191POPC  C31022097   1.297   3.943   7.871 -0.6513  0.1480 -0.1102
  191POPC  H10X22098   1.403   3.914   7.853  0.0234  1.6280  1.2531
  191POPC  H10Y22099   1.235   3.851   7.876  1.1071 -1.1085 -0.3097
  191POPC  C31122100   1.302   4.013   8.012 -0.4079 -0.0577 -0.6795
  191POPC  H11X22101   1.331   3.935   8.085 -1.6403 -0.5491 -0.6858
  191POPC  H11Y22102   1.201   4.052   8.036  0.8029  1.2405  3.0347
  191POPC  C31222103   1.395   4.143   8.020  0.4053  0.5070 -0.2857
  191POPC  H12X22104   1.375   4.202   7.928  5.1082 -0.0298 -1.9446
  191POPC  H12Y22105   1.499   4.105   8.011  0.4431  0.6625 -0.5058
  191POPC  C31322106   1.382   4.210   8.158  0.1209  0.0770 -0.7411
  191POPC  H13X22107   1.455   4.291   8.181  1.0821 -0.4585 -1.7814
  191POPC  H13Y22108   1.386   4.137   8.242 -1.8269  0.6322 -0.1241
  191POPC  C31422109   1.239   4.275   8.180 -0.2800  0.0302 -0.2018
  191POPC  H14X22110   1.235   4.307   8.287 -1.3449 -1.4515  0.2309
  191POPC  H14Y22111   1.167   4.194   8.158 -0.0290  0.5896 -3.5792
  191POPC  C31522112   1.209   4.387   8.084  0.5153 -0.4758  0.2401
  191POPC  H15X22113   1.101   4.373   8.065  0.5566 -2.0921  1.0095
  191POPC  H15Y22114   1.249   4.368   7.982  0.6361 -1.9456  0.5401
  191POPC  C31622115   1.230   4.532   8.136 -0.0498 -0.1872 -0.2412
  191POPC  H16X22116   1.214   4.600   8.050  1.5495  1.1137  0.4527
  191POPC  H16Y22117   1.336   4.539   8.166  0.2809 -0.4544 -1.2864
  191POPC  H16Z22118   1.154   4.561   8.211  1.4110 -1.1665  1.6942
  192POPC     N22119   0.648   1.341   5.946  0.1763  0.6036 -0.3861
  192POPC   C1222120   0.529   1.305   5.874  0.1099  0.0849 -0.0655
  192POPC  H12A22121   0.547   1.268   5.773 -0.3591 -2.4559  0.7051
  192POPC  H12B22122   0.465   1.392   5.880  0.5651  0.4302 -0.1722
  192POPC   C1322123   0.614   1.416   6.074  0.4504 -0.4839 -0.2968
  192POPC  H13A22124   0.705   1.449   6.121  0.3442 -1.5589  0.7139
  192POPC  H13B22125   0.563   1.510   6.059  1.8163  0.6294  1.6661
  192POPC  H13C22126   0.557   1.357   6.144  0.5927 -0.7575 -0.4078
  192POPC   C1422127   0.740   1.230   5.981 -0.5029  0.0976 -0.3267
  192POPC  H14A22128   0.829   1.260   6.035 -0.2435 -0.4014 -0.4626
  192POPC  H14B22129   0.686   1.156   6.039 -0.6303 -1.4263 -2.2858
  192POPC  H14C22130   0.782   1.182   5.894 -0.2338  0.5385 -0.4418
  192POPC   C1522131   0.712   1.441   5.855 -0.7096 -0.0505 -0.4218
  192POPC  H15A22132   0.768   1.390   5.779  0.2670  0.8208 -0.3052
  192POPC  H15B22133   0.780   1.497   5.917  0.8809 -1.2168 -1.0586
  192POPC  H15C22134   0.650   1.501   5.791  0.8522  1.1101 -0.8907
  192POPC   C1122135   0.440   1.196   5.938  0.3221  0.1062  0.1809
  192POPC  H11A22136   0.494   1.099   5.931  1.9241  1.1058 -2.8230
  192POPC  H11B22137   0.342   1.182   5.888 -0.1770 -0.9302  1.3691
  192POPC     P22138   0.321   1.124   6.164 -0.1659 -0.1502 -0.3193
  192POPC   O1322139   0.366   0.987   6.129 -0.1748  0.0546  0.3763
  192POPC   O1422140   0.179   1.164   6.142 -0.2688 -0.4067  0.0717
  192POPC   O1222141   0.404   1.229   6.074  0.1377 -0.0746 -0.2618
  192POPC   O1122142   0.368   1.154   6.320  0.7871 -0.2765  0.0119
  192POPC    C122143   0.501   1.147   6.367  0.2977  0.3793 -0.2459
  192POPC    HA22144   0.566   1.227   6.325  1.1512 -0.3838 -0.4187
  192POPC    HB22145   0.551   1.051   6.342 -1.2809 -0.8464  1.0823
  192POPC    C222146   0.504   1.169   6.521 -0.4437  0.5127  0.4886
  192POPC    HS22147   0.612   1.157   6.543  0.1360 -2.0749 -2.9924
  192POPC   O2122148   0.431   1.074   6.596  0.0507  0.6795 -0.1111
  192POPC   C2122149   0.489   0.976   6.665  0.2925 -0.2261 -0.2221
  192POPC   O2222150   0.605   0.960   6.677  0.5079 -0.2895  0.6970
  192POPC   C2222151   0.390   0.894   6.737 -0.5599 -0.3819 -0.1381
  192POPC   H2R22152   0.334   0.827   6.668 -0.7890 -0.6774  0.3274
  192POPC   H2S22153   0.315   0.963   6.781  0.6360  1.6886 -1.2200
  192POPC    C322154   0.455   1.317   6.558  0.2077  0.6717 -0.2943
  192POPC    HX22155   0.354   1.342   6.518  0.4118  4.2730  1.0470
  192POPC    HY22156   0.517   1.379   6.489  1.0700 -0.9378 -1.0046
  192POPC   O3122157   0.476   1.362   6.696  0.2288 -0.3014 -0.5153
  192POPC   C3122158   0.373   1.355   6.774  0.5674  0.7012  0.4834
  192POPC   O3222159   0.266   1.296   6.748 -0.5046 -0.9472  0.6245
  192POPC   C3222160   0.416   1.417   6.907  0.2216 -0.6985 -0.8162
  192POPC   H2X22161   0.451   1.522   6.893 -1.2166 -0.1468 -0.5209
  192POPC   H2Y22162   0.505   1.362   6.944  1.0786  0.7641 -0.6189
  192POPC   C2322163   0.452   0.813   6.850 -0.3219  0.1483 -0.8352
  192POPC   H3R22164   0.558   0.785   6.838 -0.8182 -2.3578  0.1746
  192POPC   H3S22165   0.403   0.714   6.859 -1.9413  1.0250  0.6341
  192POPC   C2422166   0.424   0.890   6.983 -0.2247  0.2547  0.1587
  192POPC   H4R22167   0.465   0.825   7.063  1.2464  2.2859  1.1262
  192POPC   H4S22168   0.314   0.893   7.000 -0.3536 -0.5910 -0.4565
  192POPC   C2522169   0.490   1.021   7.002  0.0805 -0.0400  0.5962
  192POPC   H5R22170   0.437   1.102   6.946  0.6323  0.6725  1.0848
  192POPC   H5S22171   0.586   1.009   6.947  0.7047 -0.3190  1.7111
  192POPC   C2622172   0.528   1.066   7.140  0.2779  0.2547 -0.4617
  192POPC   H6R22173   0.580   1.164   7.130  2.6538 -1.0733 -1.9319
  192POPC   H6S22174   0.603   0.989   7.170 -0.5490 -0.1223  0.7113
  192POPC   C2722175   0.412   1.068   7.242 -0.4304  0.1162  0.2832
  192POPC   H7R22176   0.370   0.968   7.266 -0.0038  0.3069  1.9171
  192POPC   H7S22177   0.321   1.113   7.197  0.5642  0.0632 -1.9665
  192POPC   C2822178   0.447   1.150   7.365 -0.7348  1.0093  0.1635
  192POPC   H8R22179   0.480   1.251   7.333  2.7979  0.0892  0.5446
  192POPC   H8S22180   0.546   1.114   7.400  0.6121  1.8620 -2.4504
  192POPC   C2922181   0.346   1.155   7.474  0.0354  0.4733  0.2195
  192POPC   H9122182   0.244   1.169   7.435 -0.2798  0.5805  1.0502
  192POPC  C21022183   0.354   1.123   7.605  0.2753 -0.1070  0.3354
  192POPC  H10122184   0.264   1.141   7.667  0.1477  2.0476 -0.3890
  192POPC  C21122185   0.475   1.076   7.686 -0.0615 -0.1378 -0.5867
  192POPC  H11R22186   0.567   1.066   7.624 -0.1121  1.5655 -0.9717
  192POPC  H11S22187   0.457   0.975   7.728 -1.7569 -0.2041 -1.3733
  192POPC  C21222188   0.517   1.174   7.799  0.0527 -0.1063 -0.0203
  192POPC  H12R22189   0.558   1.261   7.744  3.8841  0.0290  2.6705
  192POPC  H12S22190   0.600   1.127   7.856  1.1669  0.1512 -1.3875
  192POPC  C21322191   0.404   1.225   7.892 -0.1883  0.0960 -0.0657
  192POPC  H13R22192   0.330   1.144   7.908  1.5159 -1.7900 -1.2066
  192POPC  H13S22193   0.336   1.300   7.846 -1.5914 -0.5676  0.8389
  192POPC  C21422194   0.451   1.277   8.036  0.8609  0.8178  0.3790
  192POPC  H14R22195   0.491   1.196   8.101  3.3265  1.9437  0.3793
  192POPC  H14S22196   0.364   1.319   8.090  1.6217  1.0591  1.4560
  192POPC  C21522197   0.564   1.384   8.013  0.2360  0.3142  0.7983
  192POPC  H15R22198   0.529   1.459   7.939  0.5849  0.4583  0.7779
  192POPC  H15S22199   0.648   1.320   7.979  0.0673 -0.4355  1.7339
  192POPC  C21622200   0.597   1.459   8.143 -0.1297 -0.2556 -0.6234
  192POPC  H16R22201   0.576   1.396   8.232 -1.9948  0.2099 -0.6921
  192POPC  H16S22202   0.532   1.549   8.147 -0.3013 -0.4219  0.9898
  192POPC  C21722203   0.747   1.503   8.151 -0.5896 -0.3710  0.2643
  192POPC  H17R22204   0.780   1.552   8.058  1.1592  2.5431  2.2675
  192POPC  H17S22205   0.817   1.417   8.156  1.0275  0.8801  0.0671
  192POPC  C21822206   0.776   1.599   8.265 -0.6619 -0.7020 -0.1434
  192POPC  H18R22207   0.737   1.555   8.359 -1.4323  0.7692  0.2504
  192POPC  H18S22208   0.724   1.695   8.249  1.8605  0.7974  0.0826
  192POPC  H18T22209   0.884   1.621   8.279 -0.4521 -2.6958  1.9267
  192POPC   C3322210   0.302   1.416   7.019  0.3104 -0.1888  0.2111
  192POPC   H3X22211   0.284   1.308   7.040 -1.4795  0.1154  0.3633
  192POPC   H3Y22212   0.212   1.457   6.969  0.0478 -0.5222  0.4019
  192POPC   C3422213   0.346   1.507   7.143 -0.3670 -0.0161  0.2077
  192POPC   H4X22214   0.356   1.612   7.109 -0.9096  0.0096  0.1206
  192POPC   H4Y22215   0.449   1.479   7.173 -0.0073  1.4201  0.4149
  192POPC   C3522216   0.243   1.491   7.260 -0.1010  0.7381  0.1763
  192POPC   H5X22217   0.217   1.383   7.269 -0.1244  0.7814  0.6617
  192POPC   H5Y22218   0.152   1.550   7.235  0.6234  0.5726 -3.2888
  192POPC   C3622219   0.307   1.550   7.396 -0.2459 -0.1982  0.4996
  192POPC   H6X22220   0.336   1.657   7.385 -1.4334  0.2521  1.6004
  192POPC   H6Y22221   0.394   1.488   7.428  2.5132  2.5742 -1.0363
  192POPC   C3722222   0.207   1.539   7.515  0.5055  0.0638  0.3972
  192POPC   H7X22223   0.169   1.435   7.523  0.4260  0.2168  3.0532
  192POPC   H7Y22224   0.120   1.607   7.506  1.0476  0.6876 -0.1771
  192POPC   C3822225   0.274   1.566   7.649 -0.0714 -0.4374 -0.4963
  192POPC   H8X22226   0.301   1.673   7.657  2.6255 -0.8476 -2.6230
  192POPC   H8Y22227   0.361   1.501   7.673  0.5101  0.8001  0.9235
  192POPC   C3922228   0.190   1.546   7.769  0.4839 -0.3915  0.1014
  192POPC   H9X22229   0.172   1.437   7.784  1.9233 -0.4736  1.4627
  192POPC   H9Y22230   0.090   1.594   7.764  0.4156 -0.3998  1.1721
  192POPC  C31022231   0.259   1.604   7.891  0.0741 -0.3227 -0.4287
  192POPC  H10X22232   0.261   1.715   7.891 -0.0839 -0.1324  3.9557
  192POPC  H10Y22233   0.365   1.574   7.898 -0.3276 -1.7961 -0.3406
  192POPC  C31122234   0.187   1.553   8.010 -0.2142  0.7759  0.4982
  192POPC  H11X22235   0.195   1.442   8.003 -0.2610  0.8186 -0.2818
  192POPC  H11Y22236   0.080   1.576   7.994  0.3317  1.7381 -2.3861
  192POPC  C31222237   0.238   1.604   8.138  0.1942 -0.4734 -0.3443
  192POPC  H12X22238   0.279   1.706   8.121  0.6570 -0.0129  2.9280
  192POPC  H12Y22239   0.323   1.543   8.174 -0.9714 -0.5754  2.5178
  192POPC  C31322240   0.127   1.601   8.240  1.0858 -0.1048 -0.0347
  192POPC  H13X22241   0.116   1.492   8.260 -2.0725  0.2758  0.8463
  192POPC  H13Y22242   0.032   1.627   8.190  1.8990 -0.7881 -2.0290
  192POPC  C31422243   0.161   1.688   8.367 -0.2238 -0.0308  0.4680
  192POPC  H14X22244   0.142   1.794   8.342  0.6567  0.2948  1.1431
  192POPC  H14Y22245   0.265   1.686   8.406  0.0638 -0.9797 -0.3167
  192POPC  C31522246   0.067   1.663   8.479  0.1286  0.0652 -0.2019
  192POPC  H15X22247   0.103   1.572   8.532 -0.9256 -0.2275  0.0284
  192POPC  H15Y22248  -0.033   1.637   8.440  0.3388  0.4234 -0.9913
  192POPC  C31622249   0.061   1.774   8.589 -0.9134 -0.3073 -0.2205
  192POPC  H16X22250   0.019   1.869   8.553  0.8985  2.0583  3.3098
  192POPC  H16Y22251   0.165   1.802   8.616 -1.3949  1.0878  0.2209
  192POPC  H16Z22252   0.009   1.733   8.678  0.3962 -2.9804 -0.5846
  193SOD    SOD22253   6.186   6.208  15.366 -0.2569 -0.0540  0.4517
  194SOD    SOD22254   0.879   3.199   0.259  0.3068 -0.2078 -0.2038
  195SOD    SOD22255   6.589   2.135  14.559 -0.2692  0.1747  0.2867
  196SOD    SOD22256   3.753   2.672  10.873  0.5088 -0.1499  0.2401
  197SOD    SOD22257   4.530   3.772   3.523 -0.2334  0.5178 -0.1187
  198SOD    SOD22258   6.257   2.978   3.476 -0.3360  0.3793 -0.8126
  199SOD    SOD22259   4.755   3.563  13.477  0.3455 -0.1002  0.1580
  200SOD    SOD22260   5.172   2.287  12.882  0.6798  0.0696  0.0723
  201SOD    SOD22261   4.912   2.439   4.267  0.3813  0.7576 -0.5594
  202SOD    SOD22262   5.678   4.063  14.641  0.2919 -0.3944 -0.3555
  203SOD    SOD22263   6.722   5.214   3.193 -0.3448 -0.2103  0.0934
  204SOD    SOD22264   6.029   1.938   3.566  0.0174  0.0304  0.0305
  205SOD    SOD22265   3.301   4.407  14.133  0.1076  0.0674  0.1028
  206SOD    SOD22266   3.154   6.462  12.240 -0.3422  0.2393  0.1462
  207SOD    SOD22267   3.706   3.178   2.568 -0.0578  0.4497 -0.1846
  208SOD    SOD22268   0.269   3.698   4.490  0.1174  0.3576  0.0138
  209SOD    SOD22269   4.432   4.770   3.057  0.0547 -0.5774 -0.1608
  210SOD    SOD22270   2.338   2.800  10.608  0.2293  0.6388  0.0821
  211SOD    SOD22271   2.508   1.032   4.926  0.1891  0.1073  0.8731
  212SOD    SOD22272   1.434   1.982   0.258  0.2844 -0.2403  0.8411
  213SOD    SOD22273   3.064   1.099  15.719 -0.4151 -0.0419  0.0840
  214SOD    SOD22274   0.083   1.494  15.566  0.3365 -0.2237  0.0483
  215SOD    SOD22275   2.168   0.414   1.325  0.0468 -0.2178  0.5648
  216SOD    SOD22276   4.714   4.695   5.058  0.0264 -0.4649 -0.1599
  217SOD    SOD22277   0.333   0.166   4.352 -0.1981 -0.2818 -0.0776
  218SOD    SOD22278   2.995   1.014  11.327  0.2624  0.2223 -0.5539
  219SOD    SOD22279   4.064   2.048  10.583 -0.2777 -0.5865 -0.3028
  220SOD    SOD22280   5.257   0.268   4.977 -0.2382  0.1218  0.3764
  221SOD    SOD22281   3.479   3.326   6.048  0.2806  0.0651 -0.2547
  222SOD    SOD22282   5.504   6.057  12.078 -0.4298 -0.5114  0.3541
  223SOD    SOD22283   6.467   1.519   5.734  0.2695 -0.5982  0.3261
  224SOD    SOD22284   4.261   5.645  12.115  0.0562 -0.3143  1.0570
  225SOD    SOD22285   5.502   3.450   5.668 -0.0304  0.2397  0.6761
  226SOD    SOD22286   2.647   2.360   4.941 -0.2868  0.7827 -0.2938
  227SOD    SOD22287   6.374   4.853  14.274 -0.6157 -0.0348  0.4117
  228SOD    SOD22288   3.976   3.102   1.072 -0.0574  0.2195 -0.2344
  229SOD    SOD22289   4.066   1.818   0.572  0.2440  0.1735  0.3743
  230SOD    SOD22290   0.707   2.782  13.921 -0.4504 -0.2071 -0.4268
  231SOD    SOD22291   3.271   2.092   2.273 -0.2692  0.1375  0.2642
  232SOD    SOD22292   1.938   5.071  10.705 -0.2834  0.0544  0.1182
  233SOD    SOD22293   5.177   5.941   3.510 -0.5219  0.1378  0.5911
  234SOD    SOD22294   3.842   0.014  12.663 -0.1059 -0.2264 -0.5084
  235SOD    SOD22295   5.380   5.550  10.683  0.1216  0.0299 -0.0886
  236SOD    SOD22296   5.652   1.037  12.022 -0.1570 -0.0880 -0.2084
  237SOD    SOD22297   0.846   6.417  10.927  0.2428 -0.4058 -0.0520
  238SOD    SOD22298   0.862   0.924  14.738 -0.0966  0.1994  0.2917
  239SOD    SOD22299   2.092   1.911  17.115 -0.0259 -0.0529 -0.3041
  240SOD    SOD22300   5.788   6.000   5.872  0.4883 -0.4423  0.2400
  241SOD    SOD22301   1.371   5.020  14.056 -0.4991 -0.0982  0.1710
  242SOD    SOD22302   0.014   6.270   1.801  0.5113  0.2907  0.3049
  243SOD    SOD22303   0.100   0.041   0.209 -0.1250  0.2920 -0.3428
  244SOD    SOD22304   2.280   5.063   6.231  0.8872  0.6006 -0.1724
  245SOD    SOD22305   0.064   4.302   5.462  0.3661 -0.3870  0.2014
  246SOD    SOD22306   3.329   3.409  15.104 -0.0867  0.6708 -0.0742
  247SOD    SOD22307   5.923   6.133   4.046  0.0519  0.1824  0.1698
  248SOD    SOD22308   3.071   0.675  13.714 -0.4161  0.0689 -0.0502
  249SOD    SOD22309   2.030   3.685   3.412  0.0783 -0.0508  0.2791
  250SOD    SOD22310   1.141   0.563   2.979  0.0671 -0.4101 -0.8574
  251SOD    SOD22311   1.556   3.333  15.590  0.1657  0.1811  0.1425
  252SOD    SOD22312   6.570   5.303  12.363  0.3215 -0.1417 -0.0294
  253SOD    SOD22313   3.807   1.685   6.107  0.1094 -0.2095 -0.2543
  254SOD    SOD22314   6.534   0.023  11.299 -0.0388  0.4245  0.3223
  255SOD    SOD22315   3.599   5.036   5.837  0.1375 -0.0897 -0.0066
  256SOD    SOD22316   0.501   2.927   2.903 -0.0159 -0.2195 -0.0887
  257SOD    SOD22317   4.366   1.786  12.927 -0.5230  0.4082 -0.4127
  258SOD    SOD22318   4.714   0.894   1.536 -0.0752  0.3301 -0.1466
  259SOD    SOD22319   3.819   4.550   6.121  0.4834 -0.3048 -0.4861
  260SOD    SOD22320   3.526   6.508   2.787  0.2486  0.4635 -0.2928
  261SOD    SOD22321   3.668   0.991   1.466  0.1375 -0.5460 -0.2170
  262SOD    SOD22322   5.705   3.088   0.253  0.0515  0.3161 -0.0314
  263SOD    SOD22323   3.616   4.474   5.046 -0.2862  0.1698  0.1473
  264SOD    SOD22324   6.154   5.439   4.960 -0.2877  0.6585 -0.0456
  265SOD    SOD22325   2.079   2.625   6.226 -0.3407  0.2036 -0.3136
  266SOD    SOD22326   4.300   5.708  14.414 -0.1104 -0.4063  0.0921
  267SOD    SOD22327   5.898   1.625   0.938 -0.3709 -0.1165 -0.0503
  268SOD    SOD22328   1.451   4.883   6.632 -0.2423  0.0958 -0.0232
  269SOD    SOD22329   5.252   6.737  15.223 -0.3212 -0.2484 -0.1011
  270CLA    CLA22330   6.270   2.575  15.310 -0.1427  0.3036 -0.2846
  271CLA    CLA22331   2.435   1.052   4.417 -0.1581  0.6057  0.0341
  272CLA    CLA22332   5.040   1.722  11.747  0.3402  0.2161 -0.5332
  273CLA    CLA22333   5.377   3.612  14.717  0.2035  0.2654  0.3709
  274CLA    CLA22334   3.367   0.388  15.682  0.0086  0.2345 -0.2804
  275CLA    CLA22335   2.499   0.925  11.911 -0.0688  0.0852  0.0160
  276CLA    CLA22336   0.556   1.108   1.189 -0.5514 -0.3195  0.6835
  277CLA    CLA22337   6.653   3.852   2.048  0.3840  0.3920  0.4286
  278CLA    CLA22338   1.881   2.493   0.000  0.2211 -0.2573 -0.0716
  279CLA    CLA22339   1.669   3.420  16.309  0.0031  0.2264 -0.6177
  280CLA    CLA22340   5.022   5.810   4.205 -0.2779 -0.2011  0.1342
  281CLA    CLA22341   1.201   1.129   4.220  0.3250 -0.0627 -0.1105
  282CLA    CLA22342   2.266   2.812   2.672 -0.0830 -0.0414 -0.0325
  283CLA    CLA22343   0.584   0.987  15.838  0.2278  0.5295  0.1921
  284CLA    CLA22344   4.403   1.132   2.188 -0.1593 -0.1409  0.7204
  285CLA    CLA22345   1.457   3.510  14.352 -0.1733  0.2281  0.1913
  286CLA    CLA22346   2.549   1.775   2.591 -0.0216  0.3026  0.1060
  287CLA    CLA22347   2.056   2.893   3.320 -0.2530 -0.2845  0.4171
  288CLA    CLA22348   6.169   6.747  12.738  0.0379  0.2739 -0.5692
  289CLA    CLA22349   6.212   0.102   1.437 -0.0469  0.4891 -0.1167
  290CLA    CLA22350   5.892   0.936  13.287  0.4597  0.1753 -0.4843
  291CLA    CLA22351   5.683   6.110  13.543 -0.0960  0.0014  0.3524
  292CLA    CLA22352   0.953   0.701  11.798 -0.2488 -0.1413 -0.4941
  293CLA    CLA22353   6.004   3.236  15.284  0.1677 -0.0707 -0.2310
  294CLA    CLA22354   3.505   3.696  14.117  0.0758  0.1484  0.0648
  295CLA    CLA22355   0.257   3.223   5.046 -0.1118 -0.4727  0.2271
  296CLA    CLA22356   3.300   2.884  16.899 -0.3725 -0.2132 -0.2014
  297CLA    CLA22357   3.891   4.017   4.531  0.3356  0.0507  0.1580
  298CLA    CLA22358   1.039   6.012  15.871  0.6925  0.0249  0.1041
  299CLA    CLA22359   3.996   0.333  13.530  0.4765  0.0002 -0.0840
  300CLA    CLA22360   5.990   6.066  14.366 -0.2198 -0.0849  0.3918
  301CLA    CLA22361   6.408   3.471   3.604 -0.5183 -0.0749  0.1896
  302CLA    CLA22362   1.561   2.245   1.987 -0.0983  0.0220  0.3903
  303CLA    CLA22363   5.030   6.533   2.070  0.1712  0.3621 -0.1427
  304CLA    CLA22364   4.317   0.230   2.905  0.6846 -0.4443  0.0021
  305CLA    CLA22365   4.184   4.757   3.709  0.0324  0.5346 -0.1549
  306CLA    CLA22366   1.267   3.700   3.051 -0.4424 -0.1797 -0.0633
  307CLA    CLA22367   0.256   5.671   3.515 -0.5810 -0.0856 -0.1221
  308CLA    CLA22368   1.556   0.030  15.352 -0.2335  0.2027  0.1611
  309CLA    CLA22369   5.872   6.379   4.426  0.0806 -0.2919 -0.1772
  310CLA    CLA22370   4.127   3.188  17.090  0.1677 -0.2633 -0.0883
  311CLA    CLA22371   3.508   5.762   1.035  0.1049 -0.5792  0.1189
  312CLA    CLA22372   4.776   5.751   3.266  0.1676  0.1821 -0.1505
  313CLA    CLA22373   2.273   2.402   3.331 -0.0100 -0.5004  0.1180
  314CLA    CLA22374   3.785   6.734  15.201  0.0969  0.5709 -0.2016
  315CLA    CLA22375   1.714   5.847   5.501  0.1196 -0.0387 -0.2624
  316CLA    CLA22376   2.700   1.240   5.694  0.1010  0.0815  0.0004
  317CLA    CLA22377   4.242   1.650   3.688 -0.5568  0.0441  0.3059
  318CLA    CLA22378   4.556   1.640  15.736  0.1510  0.4967 -0.0329
  319CLA    CLA22379   0.301   2.826  12.764  0.1847  0.2193  0.3455
  320CLA    CLA22380   3.516   1.680   1.122  0.3425 -0.7375  0.0495
  321CLA    CLA22381   4.556   1.868   4.263 -0.1346  0.3198 -0.4319
  322CLA    CLA22382   4.248   1.987  12.335  0.3032  0.2039 -0.0443
  323TIP3   OH222383   5.470   0.852   3.865  0.3918  0.0759  0.0909
  323TIP3    H122384   5.526   0.835   3.941 -1.2717  0.9099  1.5644
  323TIP3    H222385   5.485   0.944   3.844 -0.5201  0.3550  0.6096
  324TIP3   OH222386   2.014   4.578  11.413  0.2242  0.2778  0.2698
  324TIP3    H122387   2.022   4.485  11.394 -2.7128 -0.3447  1.4333
  324TIP3    H222388   2.075   4.594  11.485  2.9773  0.0496 -1.8786
  325TIP3   OH222389   5.738   4.775  11.195 -0.2983  0.0866  0.0047
  325TIP3    H122390   5.805   4.751  11.131 -0.2446  1.0448 -0.3164
  325TIP3    H222391   5.684   4.696  11.204 -1.0706  0.3032 -2.1740
  326TIP3   OH222392   4.763   2.320   2.113  0.0317 -0.2194  0.0390
  326TIP3    H122393   4.770   2.320   2.208 -0.5904  1.1008  0.1066
  326TIP3    H222394   4.677   2.360   2.095  0.2467 -0.2185 -1.0786
  327TIP3   OH222395   5.426   1.029  10.628 -0.0395  0.1103  0.1952
  327TIP3    H122396   5.506   0.987  10.659  0.6739 -0.7203 -2.5539
  327TIP3    H222397   5.362   0.958  10.621 -1.0293  0.7289  2.1490
  328TIP3   OH222398   4.175   3.533  11.567 -0.2632 -0.3074 -0.1625
  328TIP3    H122399   4.139   3.620  11.552  0.2706 -0.0217  0.1602
  328TIP3    H222400   4.099   3.476  11.579 -0.6231  0.4822  1.6616
  329TIP3   OH222401   1.304   1.654  13.585 -0.2145 -0.1470  0.0807
  329TIP3    H122402   1.378   1.642  13.644  0.6835  0.9073 -0.7928
  329TIP3    H222403   1.229   1.617  13.632  0.7059 -0.4707  1.3276
  330TIP3   OH222404   5.828   0.641  12.156 -0.5594  0.1259  0.0935
  330TIP3    H122405   5.881   0.649  12.076 -3.0791  0.3157 -1.6723
  330TIP3    H222406   5.749   0.595  12.127 -0.9641 -1.0737  2.8333
  331TIP3   OH222407   3.926   3.206  14.354  0.1991  0.0342  0.2979
  331TIP3    H122408   3.945   3.191  14.447 -1.0843  0.3450  0.6326
  331TIP3    H222409   3.838   3.242  14.354  0.6455  1.2000 -0.9679
  332TIP3   OH222410   1.486   2.547   1.229 -0.1679 -0.1479  0.1508
  332TIP3    H122411   1.417   2.611   1.248  0.1814 -0.3239  2.2675
  332TIP3    H222412   1.564   2.582   1.270  0.6041 -0.8122 -0.6969
  333TIP3   OH222413   1.657   6.257  13.584 -0.1728 -0.0523 -0.1631
  333TIP3    H122414   1.599   6.202  13.531  1.0065 -0.0066 -1.5755
  333TIP3    H222415   1.612   6.266  13.668 -1.6448 -0.9590 -0.8153
  334TIP3   OH222416   1.353   0.701  14.900  0.0558 -0.3568 -0.0735
  334TIP3    H122417   1.342   0.778  14.956  1.4626  1.0880 -1.6565
  334TIP3    H222418   1.337   0.734  14.811  0.1716 -2.0227 -0.7372
  335TIP3   OH222419   2.757   3.951   6.460 -0.3199 -0.0943  0.3755
  335TIP3    H122420   2.828   3.891   6.437  0.9207  0.3080  2.7668
  335TIP3    H222421   2.776   3.976   6.551 -0.7559  3.9148 -0.4626
  336TIP3   OH222422   5.714   5.369  16.751  0.1033  0.0347  0.1512
  336TIP3    H122423   5.623   5.343  16.738 -0.1581  1.0362 -0.1233
  336TIP3    H222424   5.711   5.465  16.754  1.2406  0.1060 -0.5277
  337TIP3   OH222425   2.172   0.512   4.395  0.4296  0.3236  0.5867
  337TIP3    H122426   2.235   0.463   4.342 -1.1486  1.3060 -2.4959
  337TIP3    H222427   2.178   0.602   4.361 -0.8526  0.9665  1.9695
  338TIP3   OH222428   1.800   4.550  11.597  0.0480  0.1302 -0.4226
  338TIP3    H122429   1.877   4.550  11.540  0.0718  0.4294 -0.3907
  338TIP3    H222430   1.798   4.462  11.634 -0.0525 -0.1129 -1.0015
  339TIP3   OH222431   0.561   0.705   3.923  0.0876  0.0567 -0.2299
  339TIP3    H122432   0.544   0.744   3.837  3.0209  2.3914  0.0793
  339TIP3    H222433   0.503   0.751   3.983 -0.3017  0.0969 -0.6341
  340TIP3   OH222434   5.747   2.023   0.507 -0.1109  0.0475  0.4225
  340TIP3    H122435   5.679   2.035   0.573 -0.6535  0.0271 -0.1280
  340TIP3    H222436   5.703   2.039   0.423  0.7290  0.7678  0.1013
  341TIP3   OH222437   6.405   6.595   5.519 -1.2376 -0.5403 -0.2798
  341TIP3    H122438   6.362   6.677   5.494 -1.0898  0.5008  2.5252
  341TIP3    H222439   6.427   6.607   5.611  2.0224 -2.3655 -0.6835
  342TIP3   OH222440   1.034   6.032  14.164  0.1834  0.5989  0.3017
  342TIP3    H122441   0.976   5.959  14.140 -1.5807  1.4545  1.7104
  342TIP3    H222442   0.977   6.109  14.162  1.7450  1.7815 -0.0709
  343TIP3   OH222443   0.091   4.431  11.700  0.0966  0.4736  0.2460
  343TIP3    H122444   0.174   4.416  11.655 -0.1096 -1.9884  0.5245
  343TIP3    H222445   0.104   4.394  11.787 -0.7283  1.7411  0.9383
  344TIP3   OH222446   2.005   5.094  15.381  0.2467 -0.1833  0.4093
  344TIP3    H122447   2.065   5.156  15.422 -0.0860  0.2440  0.2529
  344TIP3    H222448   2.058   5.015  15.368  1.0843  0.5365 -0.6807
  345TIP3   OH222449   5.286   6.002  16.391  0.2546 -0.1762  0.4931
  345TIP3    H122450   5.319   5.915  16.370  0.5692  0.5654 -2.5960
  345TIP3    H222451   5.192   5.996  16.379  0.2097 -0.2223  0.8582
  346TIP3   OH222452   4.062   0.043  16.471 -0.1513 -0.1826  0.2379
  346TIP3    H122453   4.107  -0.041  16.482  3.4990  1.3627 -1.4865
  346TIP3    H222454   3.987   0.022  16.416  0.6011 -2.3340 -0.0671
  347TIP3   OH222455   3.062   1.820  14.121 -0.6936  0.2309 -0.2912
  347TIP3    H122456   3.034   1.845  14.033 -0.4351 -0.6246 -0.6270
  347TIP3    H222457   3.133   1.758  14.106 -0.0209  0.7907  0.5307
  348TIP3   OH222458   4.669   0.285  14.496 -0.5758 -0.1728 -0.2336
  348TIP3    H122459   4.748   0.270  14.548 -1.7774 -1.6217  1.2461
  348TIP3    H222460   4.702   0.318  14.412  1.6451 -1.3140  0.1158
  349TIP3   OH222461   1.877   5.436   2.952  0.2490 -0.0353 -0.0635
  349TIP3    H122462   1.806   5.420   3.013  0.2800  0.9122  0.2434
  349TIP3    H222463   1.868   5.528   2.928  3.1092  1.0327  2.3324
  350TIP3   OH222464   3.886   1.122   0.385  0.5770  0.6085 -0.4176
  350TIP3    H122465   3.797   1.144   0.360  0.2884  1.1821  1.0182
  350TIP3    H222466   3.876   1.058   0.455  1.3167  0.2609 -0.6162
  351TIP3   OH222467   1.265   0.989  16.433  0.9093  0.2137  0.9834
  351TIP3    H122468   1.194   1.007  16.371 -0.2393 -0.7783  1.9525
  351TIP3    H222469   1.255   1.055  16.501  3.3049  2.4923 -0.6843
  352TIP3   OH222470   3.996   1.931   2.307 -0.2025  0.0485 -0.8245
  352TIP3    H122471   3.952   2.015   2.319 -1.1627 -0.6705  1.3939
  352TIP3    H222472   3.927   1.871   2.279  0.7167  0.1866 -3.6214
  353TIP3   OH222473   2.742   4.383  16.865  0.0354  0.1162  0.5659
  353TIP3    H122474   2.661   4.415  16.903 -0.3934 -0.9250  0.5493
  353TIP3    H222475   2.760   4.302  16.912  0.2308 -0.4683 -0.5036
  354TIP3   OH222476   6.107   3.956   5.874  0.3635  0.0605 -0.0688
  354TIP3    H122477   6.121   3.898   5.949 -1.1906 -1.7278 -1.0665
  354TIP3    H222478   6.026   4.002   5.893 -0.1977 -0.6194 -0.7309
  355TIP3   OH222479   5.952   4.901   3.451 -0.7023  0.4216 -0.1070
  355TIP3    H122480   5.964   4.884   3.544  0.8244  0.0761 -0.3368
  355TIP3    H222481   5.870   4.858   3.429 -0.6343 -0.2632  0.8923
  356TIP3   OH222482   4.537   1.659  12.858  0.5369  0.8180  0.7769
  356TIP3    H122483   4.563   1.576  12.897  0.1937  0.0959 -0.4488
  356TIP3    H222484   4.606   1.721  12.883  2.7565 -0.6779 -1.2222
  357TIP3   OH222485   2.046   3.465   6.543  0.3038 -0.1054  0.6238
  357TIP3    H122486   1.963   3.421   6.523  1.1408 -3.3496  3.3299
  357TIP3    H222487   2.022   3.535   6.603 -0.5559 -0.6927  0.9948
  358TIP3   OH222488   6.136   3.489   6.039  0.0186 -0.4306  0.0380
  358TIP3    H122489   6.088   3.571   6.052 -0.5598 -0.9139  1.0308
  358TIP3    H222490   6.192   3.482   6.117 -1.3675 -1.9417  0.9358
  359TIP3   OH222491   6.116   3.284   5.116 -0.7577  1.1282  0.1443
  359TIP3    H122492   6.082   3.326   5.038  1.6460  1.6870 -0.6961
  359TIP3    H222493   6.135   3.356   5.176  0.3432  0.9914 -0.0229
  360TIP3   OH222494   2.864   2.259   0.148 -0.7336 -0.8840  0.0433
  360TIP3    H122495   2.929   2.241   0.080 -3.2639  1.2567 -3.2770
  360TIP3    H222496   2.793   2.197   0.130 -2.0861  0.7083 -0.3581
  361TIP3   OH222497   2.429   1.438  11.988 -0.0952  0.3587  0.6108
  361TIP3    H122498   2.366   1.371  12.015  0.4690  0.6773  2.9293
  361TIP3    H222499   2.476   1.461  12.069  1.4897  1.7063 -0.6185
  362TIP3   OH222500   3.614   1.156   1.836 -0.4691 -0.1453  0.1585
  362TIP3    H122501   3.686   1.109   1.795  0.0390  0.6714  0.0894
  362TIP3    H222502   3.584   1.217   1.768 -0.7170  0.0555  0.4434
  363TIP3   OH222503   4.799   0.244   1.194  0.0981  0.2457  0.2044
  363TIP3    H122504   4.811   0.261   1.100 -0.1501 -1.5311 -0.1848
  363TIP3    H222505   4.849   0.313   1.237  1.3315  0.3260 -1.2487
  364TIP3   OH222506   2.438   3.556  12.267  0.3551  0.2006  0.0141
  364TIP3    H122507   2.424   3.640  12.311 -3.4822  1.7190 -3.4439
  364TIP3    H222508   2.498   3.576  12.194  1.7446 -0.8458  0.8112
  365TIP3   OH222509   5.296   1.035   3.102 -0.1662 -0.1783  0.3675
  365TIP3    H122510   5.359   0.971   3.072  0.2663  0.1347  0.5999
  365TIP3    H222511   5.220   1.022   3.046 -0.3572 -1.3658  0.8697
  366TIP3   OH222512   3.658   4.423  17.044 -0.0122 -0.1750 -0.0385
  366TIP3    H122513   3.643   4.484  17.116  0.8218  1.3644 -1.1045
  366TIP3    H222514   3.689   4.343  17.086  1.2309  0.9402  1.2959
  367TIP3   OH222515   1.016   0.553   0.532 -0.7461 -0.0369 -0.2709
  367TIP3    H122516   0.965   0.541   0.612  1.3433 -0.4711  1.0914
  367TIP3    H222517   1.004   0.471   0.484 -0.2981 -0.6888  0.6807
  368TIP3   OH222518   5.929   4.049  12.339 -0.7416 -0.3783  0.0395
  368TIP3    H122519   5.845   4.081  12.371 -1.5476 -0.5297 -1.8148
  368TIP3    H222520   5.913   4.025  12.248  0.6174 -3.0194  0.3725
  369TIP3   OH222521   2.637   0.377   6.016 -0.0999 -0.1318  0.1807
  369TIP3    H122522   2.651   0.317   6.088 -1.2253 -1.5174 -0.6953
  369TIP3    H222523   2.715   0.369   5.962  0.7056  0.8443  1.1596
  370TIP3   OH222524   5.378   5.401  12.175  0.3755  0.3923 -0.4687
  370TIP3    H122525   5.403   5.334  12.111  2.4869 -1.4798  2.1092
  370TIP3    H222526   5.348   5.352  12.251  2.2607  2.3171  1.6497
  371TIP3   OH222527   4.563   5.805   5.073  0.2258  0.4390  0.3477
  371TIP3    H122528   4.480   5.800   5.025  0.1566  0.5092  0.4611
  371TIP3    H222529   4.541   5.850   5.155  0.1534 -0.5503  0.8810
  372TIP3   OH222530   1.069   1.264   5.968  0.1097 -0.1682  0.1259
  372TIP3    H122531   1.106   1.320   5.900  0.1655 -0.6757 -0.2655
  372TIP3    H222532   1.124   1.280   6.045  0.3622  0.0297 -0.0950
  373TIP3   OH222533   3.320   2.262   0.774  0.0445 -0.4730  0.1093
  373TIP3    H122534   3.313   2.188   0.714 -0.5205  0.3581 -0.8781
  373TIP3    H222535   3.237   2.310   0.763  1.6024  2.0749 -1.6538
  374TIP3   OH222536   3.584   3.256   5.852 -0.0302 -0.3542 -1.0183
  374TIP3    H122537   3.667   3.210   5.867 -0.6126 -2.0049 -2.5404
  374TIP3    H222538   3.563   3.239   5.761 -2.2344 -0.2969 -0.5761
  375TIP3   OH222539   3.058   2.248  10.638  0.3707  0.0071 -0.3998
  375TIP3    H122540   3.065   2.343  10.640  2.2529 -0.0397 -2.0372
  375TIP3    H222541   2.965   2.231  10.619 -0.0418  1.4788  0.1644
  376TIP3   OH222542   3.583   2.571  16.269  0.3620  0.0511 -0.0878
  376TIP3    H122543   3.575   2.556  16.175  2.0083 -0.0560 -0.2442
  376TIP3    H222544   3.677   2.571  16.285  0.1011 -0.3488  1.6402
  377TIP3   OH222545   1.953   2.283  12.363  0.4729  0.0302  0.5368
  377TIP3    H122546   1.942   2.377  12.350 -0.3174 -0.1276 -0.0200
  377TIP3    H222547   1.869   2.253  12.397  0.1907 -0.6995 -0.7166
  378TIP3   OH222548   5.754   2.071   4.371  0.4150  0.5521 -0.4420
  378TIP3    H122549   5.711   2.029   4.446 -0.5066  1.7155 -0.2838
  378TIP3    H222550   5.710   2.033   4.295  1.1746 -0.4437 -0.3889
  379TIP3   OH222551   4.721   0.896   0.160  0.0233 -0.1297 -0.0239
  379TIP3    H122552   4.816   0.885   0.155  0.0862  0.5346 -0.3991
  379TIP3    H222553   4.689   0.868   0.075 -0.0509  0.2480 -0.1231
  380TIP3   OH222554   3.956   5.497  14.984 -0.1327  0.1108 -0.0553
  380TIP3    H122555   3.981   5.413  15.022 -1.6455 -0.4157 -0.1577
  380TIP3    H222556   3.968   5.560  15.055 -1.0747 -0.5546  0.7159
  381TIP3   OH222557   5.495   3.272   4.848  0.1787 -0.2287  0.1190
  381TIP3    H122558   5.411   3.239   4.877  0.0812  0.7905  1.0582
  381TIP3    H222559   5.475   3.354   4.802  0.4769 -1.0370 -1.5376
  382TIP3   OH222560   3.599   0.621  16.915 -0.4255  0.1274  0.0713
  382TIP3    H122561   3.677   0.643  16.864  1.6091  1.7321  3.5028
  382TIP3    H222562   3.599   0.526  16.919  3.4524 -0.0165  2.5554
  383TIP3   OH222563   0.296   3.836  15.442 -0.1401 -0.2717  0.1755
  383TIP3    H122564   0.227   3.790  15.491  0.6753 -1.2052  0.4854
  383TIP3    H222565   0.365   3.852  15.506 -0.9451  2.7380  0.4420
  384TIP3   OH222566   4.960   1.834  15.447  0.3875 -0.2247  0.1847
  384TIP3    H122567   4.975   1.771  15.377 -0.2565 -0.0336 -0.1336
  384TIP3    H222568   5.041   1.832  15.499  0.5377 -0.9894 -0.0649
  385TIP3   OH222569   3.705   0.965  17.158 -0.2663  0.0295  0.6084
  385TIP3    H122570   3.677   0.968  17.249  0.7652  1.5135  0.9108
  385TIP3    H222571   3.789   1.011  17.157 -0.2007 -0.0634 -1.0626
  386TIP3   OH222572   4.795   2.933  12.018 -0.3711 -0.6052  0.6524
  386TIP3    H122573   4.746   2.993  12.074 -0.4443 -0.9668  0.9815
  386TIP3    H222574   4.832   2.988  11.949  0.3723 -0.0278  1.4927
  387TIP3   OH222575   0.631   4.837  15.345  0.7882  0.1551 -0.0132
  387TIP3    H122576   0.670   4.750  15.335  1.9661  0.1090  3.5231
  387TIP3    H222577   0.572   4.827  15.420 -1.3410  1.7608 -1.3894
  388TIP3   OH222578   0.760   1.921  14.576  0.0137  0.0929  0.4005
  388TIP3    H122579   0.769   2.003  14.624  0.3532 -0.6969  1.7414
  388TIP3    H222580   0.685   1.877  14.616 -0.6933  0.1036 -0.8678
  389TIP3   OH222581   2.701   5.959   5.315  0.0572  0.2100 -0.0169
  389TIP3    H122582   2.617   5.982   5.355 -0.8460 -0.4925 -1.4107
  389TIP3    H222583   2.688   5.870   5.283  0.1629  1.2427 -3.2388
  390TIP3   OH222584   3.744   1.817  16.723 -0.1072 -0.1983 -0.0990
  390TIP3    H122585   3.763   1.861  16.640 -2.4261  0.0428 -0.5905
  390TIP3    H222586   3.776   1.728  16.710 -0.9635 -0.3358 -1.5288
  391TIP3   OH222587   5.305   6.121   5.876 -0.4244  0.1865 -0.5772
  391TIP3    H122588   5.278   6.136   5.967 -0.0368  1.0925 -0.5995
  391TIP3    H222589   5.252   6.046   5.847 -0.7320  0.0512  0.3136
  392TIP3   OH222590   2.460   3.023   2.565  0.0082 -0.0950 -0.8896
  392TIP3    H122591   2.434   2.942   2.609  0.8798 -2.1202 -3.7958
  392TIP3    H222592   2.413   3.020   2.481  2.4446  0.7847 -2.3795
  393TIP3   OH222593   4.689   0.382   4.740 -0.0579  0.0028  0.2996
  393TIP3    H122594   4.758   0.430   4.693  0.4238 -1.7316 -0.8499
  393TIP3    H222595   4.629   0.354   4.671 -0.4404 -0.8548  0.9681
  394TIP3   OH222596   6.093   0.470  13.449 -0.5329 -0.2756  0.9761
  394TIP3    H122597   6.098   0.394  13.391  0.0272  0.0815  0.5470
  394TIP3    H222598   6.105   0.433  13.537 -1.9906 -0.8872  0.9413
  395TIP3   OH222599   1.211   4.440  14.056  0.1968  0.2721 -0.4580
  395TIP3    H122600   1.174   4.505  13.996 -0.7212  0.0615 -0.1382
  395TIP3    H222601   1.182   4.355  14.021  1.0732  0.0473 -0.6624
  396TIP3   OH222602   6.767   5.364   4.230  0.4837  0.4790 -1.0505
  396TIP3    H122603   6.805   5.335   4.313 -0.0743 -1.1846 -1.3593
  396TIP3    H222604   6.710   5.293   4.202 -0.4248  1.5925 -2.1909
  397TIP3   OH222605   2.372   2.732   0.314  0.0157 -0.1258 -0.0624
  397TIP3    H122606   2.430   2.708   0.387 -0.3546 -0.5251  0.1070
  397TIP3    H222607   2.288   2.691   0.336 -1.3483  3.1213  1.3945
  398TIP3   OH222608   6.440   1.171  15.071  0.4481 -0.5144  0.1990
  398TIP3    H122609   6.512   1.109  15.063  0.6121 -0.2296 -0.6208
  398TIP3    H222610   6.476   1.244  15.121  0.4714 -0.7548  0.5325
  399TIP3   OH222611   3.483   1.278  15.636  0.1751  0.3377  0.3650
  399TIP3    H122612   3.465   1.364  15.675  1.1433  0.6952  0.0715
  399TIP3    H222613   3.516   1.298  15.549 -3.5916 -0.5058 -1.4365
  400TIP3   OH222614   0.544   3.656  14.701  0.0776  0.1491 -0.0551
  400TIP3    H122615   0.488   3.585  14.731  0.8470  0.9920  3.9655
  400TIP3    H222616   0.618   3.612  14.659  0.1492 -1.4497  1.6162
  401TIP3   OH222617   2.604   2.780  14.332  0.2996 -0.0023  0.2208
  401TIP3    H122618   2.686   2.762  14.378  0.2923  1.8513  1.0399
  401TIP3    H222619   2.561   2.695  14.324  2.5030 -1.1151 -0.6671
  402TIP3   OH222620   1.867   0.208   4.943 -0.7155 -0.5382 -0.1555
  402TIP3    H122621   1.785   0.206   4.994 -0.3276 -0.6413  0.4686
  402TIP3    H222622   1.878   0.119   4.912 -0.2518 -0.7927  0.7145
  403TIP3   OH222623   5.693   0.409  14.936 -0.3000  0.0845 -0.5384
  403TIP3    H122624   5.732   0.429  15.021 -0.9184  1.4521 -0.5576
  403TIP3    H222625   5.681   0.494  14.894 -0.3844 -0.5418 -1.8293
  404TIP3   OH222626   0.332   0.908  11.686  0.5163 -0.2007  0.3090
  404TIP3    H122627   0.289   0.927  11.603 -2.8704  0.0041  1.9440
  404TIP3    H222628   0.308   0.980  11.744  0.8876 -1.4357  2.1031
  405TIP3   OH222629   3.479   2.563  11.193  0.8892  0.1251 -0.6952
  405TIP3    H122630   3.482   2.633  11.127  1.4737  0.0316 -0.7683
  405TIP3    H222631   3.536   2.495  11.158 -0.2890 -0.7448 -1.0188
  406TIP3   OH222632   6.484   4.850   1.494  0.0571  0.4172 -0.0188
  406TIP3    H122633   6.510   4.812   1.578  0.2307 -1.5843 -0.9111
  406TIP3    H222634   6.485   4.776   1.433 -0.8868  1.6439 -1.6103
  407TIP3   OH222635   4.940   3.329   4.572 -0.1678  0.0955 -0.3853
  407TIP3    H122636   4.957   3.395   4.639 -1.1920  0.0207 -0.0288
  407TIP3    H222637   4.929   3.248   4.621 -2.4277  0.2907 -0.4319
  408TIP3   OH222638   3.677   2.984  12.214 -0.2112 -0.2424 -0.0291
  408TIP3    H122639   3.623   2.906  12.206 -0.9123  0.3595 -1.5609
  408TIP3    H222640   3.662   3.015  12.304 -0.4401 -1.4655  0.3751
  409TIP3   OH222641   4.920   2.999  10.257 -0.1176 -0.4017 -0.0686
  409TIP3    H122642   4.995   3.046  10.292  1.1887 -1.0451 -1.8227
  409TIP3    H222643   4.931   2.909  10.286 -1.2001 -0.1699  1.1289
  410TIP3   OH222644   0.107   3.787   4.635  0.1307  0.0126  0.1530
  410TIP3    H122645   0.138   3.772   4.724 -0.9311  1.2257  0.7604
  410TIP3    H222646   0.012   3.798   4.644 -0.0518 -0.2874 -1.1930
  411TIP3   OH222647   6.337   5.052   1.768  0.5777 -0.0722 -0.3779
  411TIP3    H122648   6.373   5.066   1.680  0.4149 -0.5339 -0.5217
  411TIP3    H222649   6.345   4.957   1.782  0.0111 -0.0886 -0.1546
  412TIP3   OH222650   2.037   2.578   3.472  0.1743  0.3957 -0.7271
  412TIP3    H122651   2.115   2.542   3.430  0.3096 -1.0251  0.6675
  412TIP3    H222652   2.052   2.673   3.473  0.3776  0.4690 -3.3773
  413TIP3   OH222653   5.965   1.930  15.477 -0.0083  0.1506  0.0334
  413TIP3    H122654   6.046   1.938  15.527  0.4183  0.9874 -0.7691
  413TIP3    H222655   5.958   1.836  15.459  1.1246  0.1387 -0.4379
  414TIP3   OH222656   0.069   4.949  17.180  0.6659  0.0301  0.3125
  414TIP3    H122657  -0.019   4.986  17.173 -0.0219 -1.7055 -0.5908
  414TIP3    H222658   0.112   5.003  17.247 -1.3042  0.4639  1.2984
  415TIP3   OH222659   2.946   2.877   3.723 -0.8064 -0.1386  0.3667
  415TIP3    H122660   3.013   2.810   3.710 -0.0553  0.9446 -1.7201
  415TIP3    H222661   2.880   2.834   3.778  0.3970 -2.0531  0.3954
  416TIP3   OH222662   0.614   1.345   0.065  0.6070  0.1533 -0.0032
  416TIP3    H122663   0.707   1.320   0.071  0.6230  0.0861 -0.4459
  416TIP3    H222664   0.591   1.325  -0.026  0.0047 -0.3523  0.2575
  417TIP3   OH222665   0.684   3.790  15.209  0.2651  0.7884 -0.1631
  417TIP3    H122666   0.681   3.751  15.122  0.3548 -3.1367  1.4136
  417TIP3    H222667   0.594   3.821  15.224 -0.6974 -1.6295 -0.4398
  418TIP3   OH222668   5.291   5.075  12.248 -0.3474  0.3078 -0.1819
  418TIP3    H122669   5.212   5.128  12.262 -0.6691  0.5726 -2.5805
  418TIP3    H222670   5.277   5.034  12.163  0.9514 -1.8083  0.5675
  419TIP3   OH222671   1.085   2.238  15.666 -0.3252  0.6105 -0.5336
  419TIP3    H122672   1.168   2.273  15.633 -0.0118 -0.5743 -1.0429
  419TIP3    H222673   1.079   2.151  15.627 -1.3702  0.3278  0.2381
  420TIP3   OH222674   5.033   4.885   1.034  0.0464 -0.1920 -0.3018
  420TIP3    H122675   4.975   4.834   1.090 -1.4291 -1.0054 -2.4634
  420TIP3    H222676   5.040   4.970   1.079 -1.8519 -0.4751  0.6281
  421TIP3   OH222677   3.736   2.046  13.575 -0.2202 -0.0524  0.0371
  421TIP3    H122678   3.827   2.075  13.576 -0.4352  0.6379  0.1827
  421TIP3    H222679   3.696   2.089  13.651 -1.2031  1.4600 -1.2785
  422TIP3   OH222680   6.370   2.812   6.881  0.0717 -0.0402  1.0174
  422TIP3    H122681   6.456   2.825   6.920  0.1321  2.2016  0.2673
  422TIP3    H222682   6.309   2.852   6.943 -0.0952  1.0981  0.1543
  423TIP3   OH222683   5.722   5.507   1.100 -0.1326  0.0907  0.0352
  423TIP3    H122684   5.698   5.472   1.014  0.2632 -1.4164  0.5155
  423TIP3    H222685   5.646   5.489   1.155  0.0230  0.1082  0.2551
  424TIP3   OH222686   1.978   3.664   2.944  0.2534  0.7828 -0.4249
  424TIP3    H122687   2.052   3.611   2.912  0.2488  1.0093 -0.8102
  424TIP3    H222688   1.914   3.599   2.974  0.3606  0.5719 -0.6419
  425TIP3   OH222689   5.094   1.105  13.471 -0.1764  0.7450  0.1140
  425TIP3    H122690   5.031   1.102  13.399 -0.5119  3.2709  0.1911
  425TIP3    H222691   5.049   1.153  13.540  1.4709  1.7863  0.5147
  426TIP3   OH222692   2.357   5.783  15.386 -0.0700 -0.0139 -1.0388
  426TIP3    H122693   2.298   5.777  15.461  1.3010  2.3394  0.3296
  426TIP3    H222694   2.338   5.868  15.346  0.0420 -0.7235 -2.7038
  427TIP3   OH222695   2.157   6.577  12.280 -0.4650  0.2184  0.1327
  427TIP3    H122696   2.232   6.531  12.241 -1.8576 -2.1810  0.0917
  427TIP3    H222697   2.174   6.669  12.263  2.1752 -0.2913 -0.4100
  428TIP3   OH222698   5.597   4.716  16.556 -0.4033  0.2179 -0.3200
  428TIP3    H122699   5.574   4.702  16.465  0.1685  3.0017 -1.0066
  428TIP3    H222700   5.690   4.694  16.562 -0.8054 -1.5201  0.0419
  429TIP3   OH222701   6.675   3.448   2.754  0.2170  0.5900  1.0478
  429TIP3    H122702   6.749   3.391   2.735  0.9055  1.8320 -0.1738
  429TIP3    H222703   6.676   3.458   2.849 -0.7022 -2.3867  1.4564
  430TIP3   OH222704   1.582   4.009  14.329  0.2890 -0.0569 -0.7206
  430TIP3    H122705   1.666   3.984  14.291  0.2984  0.2274 -0.8832
  430TIP3    H222706   1.556   4.088  14.283  0.5809  0.6277  0.2485
  431TIP3   OH222707   3.088   5.659   5.556 -0.4443 -0.4767  0.3061
  431TIP3    H122708   3.122   5.697   5.637 -0.4207 -0.4300  0.2747
  431TIP3    H222709   3.052   5.734   5.508  0.5864 -0.3178 -0.2504
  432TIP3   OH222710   3.381   0.251   4.379  0.2883  0.6890  0.3228
  432TIP3    H122711   3.325   0.244   4.302  1.1495 -1.0570 -0.2024
  432TIP3    H222712   3.375   0.165   4.421  0.3904  1.3833  1.8235
  433TIP3   OH222713   3.094   0.202   1.487  0.1227  0.2980  0.7415
  433TIP3    H122714   3.000   0.210   1.504 -0.4378 -1.0606 -1.4318
  433TIP3    H222715   3.117   0.285   1.446 -0.1129  0.6199  1.2408
  434TIP3   OH222716   1.976   0.710  11.517 -0.0581  0.3118 -0.0686
  434TIP3    H122717   1.935   0.796  11.527 -1.0617 -0.4106  3.3780
  434TIP3    H222718   1.914   0.659  11.466 -1.6225  0.4222  1.6336
  435TIP3   OH222719   5.046   3.959  11.421  1.0756 -0.3162  0.1327
  435TIP3    H122720   4.979   3.913  11.471 -0.0283  0.1021 -0.8909
  435TIP3    H222721   5.128   3.943  11.468  0.2389 -0.7450  1.4810
  436TIP3   OH222722   3.238   3.723  14.286  0.0743 -0.1109 -0.1251
  436TIP3    H122723   3.293   3.686  14.216 -0.8199  0.1588 -0.9993
  436TIP3    H222724   3.157   3.747  14.241 -1.4718 -2.1087  1.4081
  437TIP3   OH222725   5.830   2.442  12.608 -0.1529 -0.4494  0.8134
  437TIP3    H122726   5.875   2.420  12.526 -0.0906  2.9860 -0.2461
  437TIP3    H222727   5.873   2.523  12.637 -1.9518 -0.1357  2.8238
  438TIP3   OH222728   2.486   5.707   5.387 -0.1094  0.1992 -0.7031
  438TIP3    H122729   2.459   5.798   5.394 -2.3521 -0.4744  0.1634
  438TIP3    H222730   2.467   5.683   5.296  0.4981  0.5553 -0.9363
  439TIP3   OH222731   6.431   2.985   2.999 -0.3253  0.4194  0.0650
  439TIP3    H122732   6.504   3.045   2.983  1.4763 -1.9829 -1.3815
  439TIP3    H222733   6.374   2.995   2.922  0.2402 -0.0606 -0.4233
  440TIP3   OH222734   0.507   2.241  15.347 -0.2444 -0.0889  0.3852
  440TIP3    H122735   0.588   2.200  15.318 -0.6579 -1.0422  0.5521
  440TIP3    H222736   0.517   2.251  15.442 -1.3534 -2.6573  0.8412
  441TIP3   OH222737   2.459   5.264  12.164 -0.6213 -0.0355 -0.0836
  441TIP3    H122738   2.507   5.205  12.105 -1.0501 -0.4951  0.0113
  441TIP3    H222739   2.374   5.277  12.120 -0.9539 -0.4024  0.4395
  442TIP3   OH222740   5.391   1.066  11.556  0.4196 -0.3656  0.0816
  442TIP3    H122741   5.331   1.016  11.502  0.9629  0.6613 -1.5432
  442TIP3    H222742   5.432   1.001  11.614  0.4798 -1.6499 -1.3549
  443TIP3   OH222743   5.578   2.730  11.449 -0.0082 -0.0178  0.3064
  443TIP3    H122744   5.564   2.712  11.542  1.1017 -0.7636  0.3493
  443TIP3    H222745   5.490   2.746  11.414 -0.3592  1.4044  1.6864
  444TIP3   OH222746   6.476   5.422   2.825  0.0149  0.4466  0.9953
  444TIP3    H122747   6.562   5.446   2.859  0.3095 -1.3352  1.5788
  444TIP3    H222748   6.422   5.410   2.903 -0.4042  0.2496  0.6771
  445TIP3   OH222749   0.939   1.892   4.078 -0.4818 -0.1321  0.0640
  445TIP3    H122750   0.851   1.926   4.061 -0.8687 -0.9267  0.3895
  445TIP3    H222751   0.960   1.924   4.166 -1.1204 -1.2417  0.6437
  446TIP3   OH222752   3.312   1.050  10.387 -0.1606  0.8234 -0.2276
  446TIP3    H122753   3.256   0.985  10.430 -0.6824  1.6869  0.4112
  446TIP3    H222754   3.271   1.065  10.302  0.3593 -0.1923 -0.6835
  447TIP3   OH222755   4.500   5.128   0.935 -0.1938 -0.2018 -0.2011
  447TIP3    H122756   4.510   5.157   0.844 -0.9363 -1.7937 -0.8092
  447TIP3    H222757   4.534   5.039   0.936 -0.3225 -0.2587  1.0764
  448TIP3   OH222758   3.006   6.260   5.523  0.0043  0.0741  0.4289
  448TIP3    H122759   2.920   6.281   5.487  0.3401  0.1586 -0.3434
  448TIP3    H222760   3.067   6.307   5.466  0.5920 -0.4844  0.5990
  449TIP3   OH222761   5.694   0.608  13.077 -0.0697 -0.4284  0.0210
  449TIP3    H122762   5.674   0.702  13.082  1.6393  0.0629 -1.6226
  449TIP3    H222763   5.733   0.588  13.162 -2.2824 -0.1754  1.1780
  450TIP3   OH222764   4.240   3.891  12.306 -0.1282  0.4898 -0.5584
  450TIP3    H122765   4.216   3.801  12.284 -1.1509  0.5649  0.1823
  450TIP3    H222766   4.169   3.945  12.272  0.9689  1.1587 -1.9148
  451TIP3   OH222767   1.312   4.357  15.445  0.3357  0.1563  0.0752
  451TIP3    H122768   1.378   4.339  15.512  0.1827  1.5138  0.6312
  451TIP3    H222769   1.298   4.273  15.401 -0.4860 -1.0953  2.5638
  452TIP3   OH222770   6.359   1.919  14.196 -0.0076 -0.6426  0.3809
  452TIP3    H122771   6.336   1.956  14.111  1.8606 -0.2940 -0.0106
  452TIP3    H222772   6.304   1.967  14.259  1.1737  1.6991 -0.2691
  453TIP3   OH222773   3.154   6.739  15.196  0.2629 -0.3435  0.2363
  453TIP3    H122774   3.141   6.699  15.110 -1.3580 -1.1881  0.8516
  453TIP3    H222775   3.198   6.822  15.177 -0.6405 -0.2197 -1.4589
  454TIP3   OH222776   6.309   1.447  11.498  0.6519  0.0029 -0.0492
  454TIP3    H122777   6.245   1.517  11.512  1.3594  1.2753 -2.6005
  454TIP3    H222778   6.281   1.377  11.558 -2.0601  1.1629  0.2054
  455TIP3   OH222779   3.719   0.749   2.288  0.6132 -0.7467 -0.3023
  455TIP3    H122780   3.707   0.814   2.358  1.9520 -0.7231 -0.0798
  455TIP3    H222781   3.722   0.665   2.334 -0.7176 -0.9543 -0.5546
  456TIP3   OH222782   0.182   2.045  12.431  0.7233  0.1205  0.0608
  456TIP3    H122783   0.175   2.088  12.346 -1.2154 -1.6748 -0.7796
  456TIP3    H222784   0.118   1.974  12.427  0.4063  0.1029  3.1115
  457TIP3   OH222785   4.782   5.114   0.298  0.1168  0.2389  0.3016
  457TIP3    H122786   4.800   5.133   0.206  1.3700 -0.6884  0.3232
  457TIP3    H222787   4.757   5.199   0.335 -0.0947  0.6901 -0.8116
  458TIP3   OH222788   6.200   4.085   0.057  0.1801 -0.5677  0.1999
  458TIP3    H122789   6.231   4.100  -0.032 -0.9150  0.8883  0.0242
  458TIP3    H222790   6.142   4.010   0.050  1.3326 -1.4781  0.0142
  459TIP3   OH222791   5.886   2.535  11.105  0.2721 -0.4919  0.4267
  459TIP3    H122792   5.824   2.511  11.174  0.0929  0.5642  0.6456
  459TIP3    H222793   5.837   2.526  11.024  0.1781 -0.7527  0.5117
  460TIP3   OH222794   1.959   1.600  12.135  0.2405 -0.0810 -0.1438
  460TIP3    H122795   1.964   1.524  12.193 -0.4882 -0.1017 -0.1047
  460TIP3    H222796   1.869   1.600  12.102  0.1851  0.8567 -0.0221
  461TIP3   OH222797   5.934   5.645   3.990  0.6246 -0.0272 -0.2093
  461TIP3    H122798   6.024   5.632   4.020  1.5201  2.3259 -1.5256
  461TIP3    H222799   5.939   5.639   3.894 -0.6969 -0.1963 -0.2926
  462TIP3   OH222800   4.748   4.385   5.910 -0.9593  0.3246 -0.1868
  462TIP3    H122801   4.768   4.476   5.892  3.6905 -0.3192  0.5988
  462TIP3    H222802   4.702   4.386   5.994 -1.6686  1.9041 -0.5561
  463TIP3   OH222803   6.624   1.923  11.171  0.6286 -0.1974 -0.5117
  463TIP3    H122804   6.679   1.943  11.095  1.4793 -1.3894 -0.2328
  463TIP3    H222805   6.565   1.854  11.140  0.1320  0.1804 -0.4298
  464TIP3   OH222806   3.471   1.919   4.642 -0.4474 -0.9369  0.3035
  464TIP3    H122807   3.471   1.968   4.560 -0.0356 -1.8958 -0.2878
  464TIP3    H222808   3.562   1.892   4.654  0.0773  1.4057  2.4782
  465TIP3   OH222809   6.611   0.512   3.116 -0.1245 -0.1085  0.5469
  465TIP3    H122810   6.614   0.451   3.190 -1.9848 -0.7359  0.1840
  465TIP3    H222811   6.620   0.455   3.039  0.6015  0.3868  0.2660
  466TIP3   OH222812   1.642   4.074  15.434  0.5405  0.1536  0.3034
  466TIP3    H122813   1.597   4.111  15.359  0.8006 -0.5306 -0.1953
  466TIP3    H222814   1.733   4.100  15.423  0.8142 -1.0012 -0.2994
  467TIP3   OH222815   6.046   6.252  16.117 -0.2889  1.5531  0.7573
  467TIP3    H122816   6.129   6.285  16.154  1.8491 -0.7553 -1.5934
  467TIP3    H222817   6.002   6.330  16.083  0.7782  2.8764  2.2557
  468TIP3   OH222818   2.745   0.715  12.929 -0.3183 -0.2879 -0.3934
  468TIP3    H122819   2.828   0.669  12.941  0.4456  1.2604  0.4986
  468TIP3    H222820   2.727   0.708  12.835  0.8175 -0.6241 -0.6018
  469TIP3   OH222821   2.310   4.624  16.057 -0.1991 -0.0433 -0.7512
  469TIP3    H122822   2.358   4.705  16.041 -1.7722  0.8967 -0.9384
  469TIP3    H222823   2.310   4.579  15.973 -2.1030  1.3534 -1.5513
  470TIP3   OH222824   0.964   3.565   5.040  0.4912 -0.2108  0.7127
  470TIP3    H122825   0.914   3.495   4.998  0.1064 -0.2655  1.2503
  470TIP3    H222826   0.904   3.640   5.040  0.4748 -0.2187  1.1803
  471TIP3   OH222827   2.831   2.855  13.639 -0.1754 -0.3218 -0.1065
  471TIP3    H122828   2.757   2.828  13.584 -0.3277 -0.6874  0.2765
  471TIP3    H222829   2.908   2.820  13.594 -0.1881  0.4268 -0.7378
  472TIP3   OH222830   5.268   0.468   4.540 -0.8254  0.1456  0.0670
  472TIP3    H122831   5.253   0.375   4.526  1.9413 -0.3270 -0.2155
  472TIP3    H222832   5.188   0.498   4.583 -1.1804 -2.7158  1.7027
  473TIP3   OH222833   6.141   6.269  17.041  0.1456  0.0811 -0.1744
  473TIP3    H122834   6.090   6.213  16.983 -0.6417  0.1868  0.3898
  473TIP3    H222835   6.228   6.231  17.042 -0.0590 -0.4062 -0.7641
  474TIP3   OH222836   4.713   3.807   5.768  0.0597 -0.0138 -0.0002
  474TIP3    H122837   4.675   3.888   5.733  1.7520  2.0287  2.4816
  474TIP3    H222838   4.638   3.759   5.802 -0.7791  2.0131  1.2185
  475TIP3   OH222839   1.904   5.218  15.157  0.1506  0.4212  0.4361
  475TIP3    H122840   1.917   5.142  15.214 -2.4301 -0.5413 -0.0839
  475TIP3    H222841   1.933   5.189  15.070 -0.4124  0.1586  0.3295
  476TIP3   OH222842   0.072   2.556  13.580 -0.3243  0.3249 -0.6462
  476TIP3    H122843   0.025   2.575  13.499 -0.9498  1.1838 -0.0998
  476TIP3    H222844   0.070   2.638  13.628  0.4351 -0.0508  0.0512
  477TIP3   OH222845   2.786   6.759  14.420 -0.3185 -0.1976  0.7598
  477TIP3    H122846   2.817   6.694  14.357  0.1323  0.6441  0.0900
  477TIP3    H222847   2.825   6.732  14.504  0.0128 -0.6774  0.4557
  478TIP3   OH222848   1.973   3.784   5.176 -0.0691  0.3624 -0.4124
  478TIP3    H122849   2.025   3.729   5.117 -0.2503  0.8424 -1.0285
  478TIP3    H222850   1.882   3.768   5.149 -0.0953  1.3594 -0.9565
  479TIP3   OH222851   2.427   2.048  13.632  0.2032  0.2423  0.2003
  479TIP3    H122852   2.504   2.039  13.688  1.4491  0.4275 -1.4097
  479TIP3    H222853   2.458   2.028  13.544 -1.8375 -0.7313 -0.3754
  480TIP3   OH222854   4.470   1.029   3.988  0.2316 -0.1569 -0.3575
  480TIP3    H122855   4.508   0.942   3.971  1.1670  0.2312 -0.3481
  480TIP3    H222856   4.382   1.011   4.019  0.0313 -1.0683 -1.3776
  481TIP3   OH222857   5.876   4.204  13.699  0.5654 -0.2103 -0.2984
  481TIP3    H122858   5.800   4.203  13.641  1.5644 -0.6743 -1.6565
  481TIP3    H222859   5.930   4.276  13.666  0.3248  0.6682  1.1881
  482TIP3   OH222860   0.050   0.565  12.452  0.0010 -0.4157 -0.4199
  482TIP3    H122861  -0.019   0.580  12.388 -0.8220  2.7045  0.9846
  482TIP3    H222862   0.130   0.596  12.409  0.1792 -1.9293 -1.2394
  483TIP3   OH222863   3.806   4.515   4.328  0.0906 -1.2251  0.4905
  483TIP3    H122864   3.771   4.432   4.296 -0.4212 -0.9681  0.3641
  483TIP3    H222865   3.755   4.582   4.281  1.0903 -0.8351 -0.0634
  484TIP3   OH222866   2.454   5.423  16.946  0.0924 -0.0551  0.1398
  484TIP3    H122867   2.488   5.510  16.966 -1.3227  0.3662  0.8804
  484TIP3    H222868   2.361   5.438  16.926 -0.4719 -1.5152  1.4362
  485TIP3   OH222869   5.154   2.411  14.968  0.1042  0.5605  0.5206
  485TIP3    H122870   5.095   2.369  15.031 -0.3862 -0.9675 -0.8659
  485TIP3    H222871   5.131   2.371  14.884  1.8072  1.3546 -0.3750
  486TIP3   OH222872   4.819   6.777  14.115 -0.0147  0.0709 -0.0081
  486TIP3    H122873   4.773   6.746  14.193 -1.4758 -1.1967 -1.3027
  486TIP3    H222874   4.899   6.816  14.149 -1.2639  0.8892  2.2307
  487TIP3   OH222875   2.079   4.794   3.230  0.3133 -0.5044  0.4734
  487TIP3    H122876   2.099   4.820   3.140 -0.6419 -1.9161 -0.1796
  487TIP3    H222877   2.161   4.757   3.263  0.4866 -0.6098 -0.0578
  488TIP3   OH222878   3.236   6.739   2.649 -0.6205 -0.2720  0.4873
  488TIP3    H122879   3.302   6.795   2.609 -1.1123  0.5390  0.7988
  488TIP3    H222880   3.283   6.658   2.669  0.0256 -0.0869 -0.2292
  489TIP3   OH222881   1.273   3.160  13.073  0.4034 -0.1902  0.0235
  489TIP3    H122882   1.261   3.127  12.984 -1.2463 -0.2717  0.2473
  489TIP3    H222883   1.318   3.244  13.062 -0.4566  0.1619 -0.9489
  490TIP3   OH222884   3.078   3.948   2.622 -0.6416 -0.2502  0.0157
  490TIP3    H122885   3.130   3.869   2.607  0.5494  0.3295  0.9611
  490TIP3    H222886   3.138   4.009   2.664 -1.7400  0.9157 -0.0513
  491TIP3   OH222887   3.446   1.860   0.524 -0.1981 -0.2473  0.0598
  491TIP3    H122888   3.444   1.784   0.582  1.6406 -1.8204 -1.7887
  491TIP3    H222889   3.533   1.858   0.484 -0.0181  2.9495  0.0177
  492TIP3   OH222890   3.756   5.275  13.237 -0.1885 -0.1592 -0.0266
  492TIP3    H122891   3.696   5.219  13.186  0.9877  0.2350 -1.9558
  492TIP3    H222892   3.719   5.363  13.227 -0.0448 -0.1023 -0.0495
  493TIP3   OH222893   1.369   6.403   2.543 -0.5447  0.5087 -0.0722
  493TIP3    H122894   1.282   6.363   2.544  0.1553 -1.2010 -1.7468
  493TIP3    H222895   1.361   6.478   2.602 -2.5129 -0.8998  1.6054
  494TIP3   OH222896   6.485   0.180  11.817 -1.2360  0.1534 -0.4084
  494TIP3    H122897   6.578   0.201  11.807 -1.5481  2.4504  0.7811
  494TIP3    H222898   6.481   0.125  11.895 -0.9834  1.3767  0.4957
  495TIP3   OH222899   6.560   4.607   5.273 -0.6437  0.2274  0.6101
  495TIP3    H122900   6.536   4.649   5.356  0.5719  0.6559  0.7716
  495TIP3    H222901   6.654   4.623   5.265 -0.2274 -2.0220  0.4030
  496TIP3   OH222902   5.697   1.835  16.044 -0.5525  0.4304 -0.1035
  496TIP3    H122903   5.680   1.756  16.096 -1.7887  0.7409 -0.0065
  496TIP3    H222904   5.622   1.892  16.062 -0.0455  1.3278 -0.7519
  497TIP3   OH222905   0.121   2.147   5.715 -0.2705  0.4131 -0.0980
  497TIP3    H122906   0.175   2.118   5.789  0.2098  2.7996  0.5762
  497TIP3    H222907   0.078   2.226   5.747 -1.0521  0.7825 -1.9705
  498TIP3   OH222908   4.193   5.309   5.599 -0.0750 -0.3609 -0.1463
  498TIP3    H122909   4.155   5.241   5.545 -2.1280  0.6853 -0.1133
  498TIP3    H222910   4.134   5.317   5.674  1.6125 -0.4022  1.2664
  499TIP3   OH222911   2.531   4.419   5.787 -0.5072 -0.1459 -0.0869
  499TIP3    H122912   2.464   4.364   5.828 -1.4448 -0.0663 -1.4330
  499TIP3    H222913   2.512   4.507   5.820 -2.4236  0.2415 -1.9652
  500TIP3   OH222914   0.486   4.055  12.924  0.3246 -0.5681  0.0720
  500TIP3    H122915   0.392   4.036  12.920  0.0112  0.9832 -2.9552
  500TIP3    H222916   0.527   3.988  12.869  0.9301 -0.8654  0.8685
  501TIP3   OH222917   2.759   0.668   5.926  0.0760  0.1470  0.0854
  501TIP3    H122918   2.753   0.666   6.022 -1.3060  0.4701  0.0317
  501TIP3    H222919   2.714   0.750   5.902 -0.3778 -0.3741 -0.8739
  502TIP3   OH222920   6.498   5.709   2.921 -0.2481  0.4256 -0.3644
  502TIP3    H122921   6.457   5.752   2.846 -1.7421  1.0528  0.7512
  502TIP3    H222922   6.450   5.743   2.996  0.1778 -1.3401  0.7577
  503TIP3   OH222923   4.778   3.316   3.071  0.5866 -0.5013  0.9168
  503TIP3    H122924   4.844   3.329   3.003  1.9281 -1.1208  2.0365
  503TIP3    H222925   4.775   3.221   3.084 -0.0629 -0.4310  1.3127
  504TIP3   OH222926   0.433   2.061   1.473 -0.2546  0.0694 -0.1311
  504TIP3    H122927   0.480   2.102   1.400  0.3888 -0.4869 -0.0364
  504TIP3    H222928   0.361   2.121   1.491  1.7152  2.1780  1.2376
  505TIP3   OH222929   4.750   5.253   1.090  0.0893 -0.7259  0.5503
  505TIP3    H122930   4.659   5.236   1.063  0.1686 -1.7946  0.8799
  505TIP3    H222931   4.799   5.256   1.008 -0.2101 -0.3621  0.3806
  506TIP3   OH222932   1.897   6.162   0.796  0.2257 -0.1893 -0.6261
  506TIP3    H122933   1.910   6.151   0.890  2.4152  3.1181 -0.3821
  506TIP3    H222934   1.981   6.136   0.757 -0.4314 -0.8696 -1.6484
  507TIP3   OH222935   5.126   0.072  12.075  0.0886  0.2675 -0.7552
  507TIP3    H122936   5.197   0.027  12.030  0.4555  0.9257 -0.8527
  507TIP3    H222937   5.072   0.002  12.112  2.1560 -0.2603  1.4982
  508TIP3   OH222938   5.243   4.026  12.030 -0.0500  0.3785 -0.3840
  508TIP3    H122939   5.159   4.028  11.984  0.8141 -0.8829 -2.1217
  508TIP3    H222940   5.278   3.939  12.012  1.3364  0.6210  0.9124
  509TIP3   OH222941   0.006   2.833   0.536 -0.3442  0.2371  0.2533
  509TIP3    H122942  -0.089   2.840   0.543 -0.5579  3.2645 -3.1152
  509TIP3    H222943   0.039   2.913   0.576  0.2545  2.0021 -3.4266
  510TIP3   OH222944   6.690   4.007   4.056 -0.1443 -0.5067 -0.3750
  510TIP3    H122945   6.774   4.054   4.060 -0.0296 -0.7582  0.3741
  510TIP3    H222946   6.681   3.981   3.964 -0.4299  1.3673 -0.9366
  511TIP3   OH222947   4.157   4.917   2.508  0.2516  0.3513 -0.5756
  511TIP3    H122948   4.216   4.979   2.549 -0.2949 -0.0366  0.9028
  511TIP3    H222949   4.122   4.866   2.582  0.4633 -1.5112 -1.6876
  512TIP3   OH222950   2.065   0.010  13.564  0.8909 -0.1432  0.7738
  512TIP3    H122951   2.137   0.006  13.501 -2.0823  2.5545 -3.3739
  512TIP3    H222952   2.080   0.091  13.612  1.1431 -0.0751  0.5822
  513TIP3   OH222953   3.087   4.630   1.089 -0.1233  0.1268 -0.1818
  513TIP3    H122954   3.122   4.676   1.012 -0.9206  0.0078 -0.6266
  513TIP3    H222955   2.993   4.628   1.074 -0.1826 -0.8426  0.2827
  514TIP3   OH222956   4.429   5.059  14.375  0.2057  0.2800  0.5041
  514TIP3    H122957   4.348   5.102  14.400 -0.9623 -2.0046  0.8920
  514TIP3    H222958   4.496   5.099  14.432 -1.1009  0.3933  2.0224
  515TIP3   OH222959   0.766   0.147  16.453 -0.3937  0.3488 -0.0542
  515TIP3    H122960   0.825   0.195  16.396  0.8761 -0.7564  0.2779
  515TIP3    H222961   0.816   0.071  16.481 -1.5282  0.0504  1.2894
  516TIP3   OH222962   3.466   1.461   1.920  0.0771  0.0281  0.0100
  516TIP3    H122963   3.421   1.387   1.961  0.7319  0.0575  0.8135
  516TIP3    H222964   3.453   1.448   1.826 -3.8585  1.4758  0.1713
  517TIP3   OH222965   4.231   4.549  11.545  0.1196 -0.8088 -0.2380
  517TIP3    H122966   4.238   4.630  11.595 -0.4070 -1.3473  0.7376
  517TIP3    H222967   4.183   4.574  11.466  3.0146  0.5764 -1.7493
  518TIP3   OH222968   1.405   4.599   0.667 -0.2423  0.5884 -0.1357
  518TIP3    H122969   1.374   4.689   0.659 -2.3070  0.0717  1.0847
  518TIP3    H222970   1.487   4.596   0.618  0.2668  3.2982  0.4275
  519TIP3   OH222971   0.580   1.661  16.903  0.1862  0.0449 -0.3559
  519TIP3    H122972   0.593   1.583  16.957 -0.6683 -0.3048 -0.6453
  519TIP3    H222973   0.601   1.734  16.962  1.9793 -0.4100 -0.3750
  520TIP3   OH222974   5.925   1.357   0.232 -0.5797 -0.1699 -0.1941
  520TIP3    H122975   5.931   1.301   0.309 -0.2168  0.1443  0.0127
  520TIP3    H222976   5.875   1.306   0.169  0.2014 -0.9442 -0.2070
  521TIP3   OH222977   1.531   2.478   3.663 -0.2955  0.0732 -0.1172
  521TIP3    H122978   1.490   2.436   3.588  0.2694  1.7392 -1.4045
  521TIP3    H222979   1.623   2.488   3.639  0.5631 -1.8471  1.9474
  522TIP3   OH222980   0.055   0.922  15.285 -0.3012 -1.0551  0.0912
  522TIP3    H122981   0.018   1.010  15.290  0.5934 -0.6901  0.5542
  522TIP3    H222982   0.043   0.896  15.194  0.7744  0.1711 -0.4327
  523TIP3   OH222983   3.020   1.075   0.086 -0.2935 -0.2631 -0.0261
  523TIP3    H122984   3.098   1.067   0.140 -0.4615  2.7960  0.8338
  523TIP3    H222985   3.030   1.158   0.040 -3.0883  0.3226  0.2100
  524TIP3   OH222986   0.012   3.945  14.524  0.5582 -0.3173 -0.5729
  524TIP3    H122987   0.037   3.861  14.563 -0.0742 -0.0164  0.5182
  524TIP3    H222988   0.094   3.995  14.522  0.8872 -0.8605 -0.9867
  525TIP3   OH222989   2.298   0.805  14.761  0.4081  0.1850 -0.3914
  525TIP3    H122990   2.382   0.852  14.765 -0.0322  0.9175  1.0160
  525TIP3    H222991   2.243   0.861  14.706  0.7822 -0.2193 -1.1912
  526TIP3   OH222992   2.885   6.588  14.218 -0.3020  0.3969  0.1479
  526TIP3    H122993   2.931   6.625  14.143 -0.7781 -0.8386 -0.7828
  526TIP3    H222994   2.950   6.584  14.288  0.7187 -0.3132 -0.8152
  527TIP3   OH222995   5.194   6.752   0.413 -0.5291 -0.4671 -0.5590
  527TIP3    H122996   5.201   6.744   0.508  0.6167  3.0360 -0.1813
  527TIP3    H222997   5.249   6.681   0.378 -0.7815 -1.6601  1.3618
  528TIP3   OH222998   3.704   5.523   3.935  0.0558 -0.1367  0.4817
  528TIP3    H122999   3.627   5.490   3.889 -0.3677  1.4741 -0.0439
  528TIP3    H223000   3.669   5.571   4.010  0.5469  0.4414  0.3531
  529TIP3   OH223001   6.308   1.404   2.455 -0.2457 -0.1312 -0.7172
  529TIP3    H123002   6.254   1.480   2.434  2.3654  1.7312 -1.0880
  529TIP3    H223003   6.312   1.403   2.550 -2.4185 -1.4998 -0.5531
  530TIP3   OH223004   5.967   3.594   5.417  0.2959 -0.6834 -0.0283
  530TIP3    H123005   5.929   3.610   5.503 -1.8555  0.2209 -1.0888
  530TIP3    H223006   6.012   3.676   5.395 -0.9542 -0.1261 -0.6126
  531TIP3   OH223007   1.426   2.345   3.425 -0.8025  0.4027  0.6287
  531TIP3    H123008   1.487   2.277   3.400  0.0704  1.7282 -1.0368
  531TIP3    H223009   1.356   2.341   3.359 -1.1411  0.6279  0.9658
  532TIP3   OH223010   5.409   0.594  14.917  0.0219 -0.9193  0.1103
  532TIP3    H123011   5.417   0.675  14.967 -0.6787 -0.8367  0.0977
  532TIP3    H223012   5.473   0.604  14.846 -0.4392 -0.1266 -0.2177
  533TIP3   OH223013   5.790   0.764   3.498  1.3757 -0.7787 -0.8618
  533TIP3    H123014   5.786   0.833   3.432  1.1208  1.0767  0.9709
  533TIP3    H223015   5.883   0.758   3.521  1.1583  0.8190  0.7139
  534TIP3   OH223016   1.300   1.287  14.107 -0.0772  0.1268 -0.1750
  534TIP3    H123017   1.227   1.259  14.161  0.2726 -0.3806  0.0386
  534TIP3    H223018   1.377   1.245  14.145  0.0406 -1.1054 -1.6793
  535TIP3   OH223019   3.886   0.471  11.673 -0.7058  0.4400  0.2929
  535TIP3    H123020   3.930   0.425  11.601  1.0460 -1.0188  2.2066
  535TIP3    H223021   3.811   0.514  11.630 -0.4882 -1.3869 -2.1886
  536TIP3   OH223022   2.279   0.660   0.890  0.2764  0.7245  0.4089
  536TIP3    H123023   2.291   0.642   0.797  0.9640 -2.1655  0.9607
  536TIP3    H223024   2.367   0.684   0.922  0.5197 -0.4302  0.6673
  537TIP3   OH223025   2.619   3.107  15.242 -0.2626  0.3160 -0.1069
  537TIP3    H123026   2.686   3.153  15.190  0.6713 -0.2899  0.5392
  537TIP3    H223027   2.608   3.023  15.197  0.3720 -0.1113  0.5165
  538TIP3   OH223028   1.324   1.940  13.511 -0.2202 -0.6487 -0.3035
  538TIP3    H123029   1.352   1.855  13.546  0.3935 -0.6382 -0.7614
  538TIP3    H223030   1.324   1.998  13.588 -0.4917 -1.0179 -0.0187
  539TIP3   OH223031   3.991   4.271   5.833 -0.0308 -0.3437  0.3044
  539TIP3    H123032   4.057   4.202   5.831 -0.4568 -0.8103  1.2847
  539TIP3    H223033   3.911   4.229   5.802  0.0969  0.1998 -0.8136
  540TIP3   OH223034   1.167   3.377   3.284 -0.3434  0.4787 -0.1153
  540TIP3    H123035   1.106   3.389   3.357  0.4595  0.1363  0.6254
  540TIP3    H223036   1.122   3.416   3.209 -0.9770  1.2858  0.6583
  541TIP3   OH223037   6.268   1.734  13.418  0.7390  0.0164  0.0419
  541TIP3    H123038   6.224   1.668  13.365  0.3951  0.6131 -0.4314
  541TIP3    H223039   6.359   1.706  13.421  0.4627 -0.8473  0.4316
  542TIP3   OH223040   5.073   1.983  11.991 -0.1459 -0.1447 -0.4533
  542TIP3    H123041   5.012   2.025  11.930 -1.9495 -0.1461  1.2265
  542TIP3    H223042   5.026   1.983  12.075  1.8968 -0.8627  0.7587
  543TIP3   OH223043   4.455   3.475  15.714  0.2371 -0.4905 -0.3503
  543TIP3    H123044   4.529   3.468  15.654 -1.1246  1.0937 -2.3570
  543TIP3    H223045   4.430   3.567  15.711 -1.4510 -0.8688  0.7218
  544TIP3   OH223046   2.305   2.596  14.929  0.2049 -0.0012  0.4636
  544TIP3    H123047   2.387   2.557  14.898  0.3666  1.0617 -0.5180
  544TIP3    H223048   2.309   2.687  14.901 -1.3227  0.0713  0.3555
  545TIP3   OH223049   1.152   2.714  10.897 -0.1363 -0.4635 -0.2748
  545TIP3    H123050   1.214   2.645  10.872  0.2218  0.0452 -0.8001
  545TIP3    H223051   1.201   2.795  10.887 -0.2870 -0.1686  1.1730
  546TIP3   OH223052   3.851   3.299  12.579  0.5490  0.5213 -0.1684
  546TIP3    H123053   3.901   3.268  12.504 -0.9908 -2.2296 -0.1864
  546TIP3    H223054   3.760   3.303  12.549 -0.2610 -1.5472  1.6699
  547TIP3   OH223055   1.959   2.969  10.855  0.3854  0.2065  0.3666
  547TIP3    H123056   1.906   3.016  10.919 -0.0207 -1.3406  1.2118
  547TIP3    H223057   2.037   2.942  10.904 -1.3379 -3.8122  1.3161
  548TIP3   OH223058   6.370   4.087   6.137 -0.3703 -0.3892  0.6831
  548TIP3    H123059   6.376   4.068   6.044  0.0148  0.9056  0.4213
  548TIP3    H223060   6.453   4.128   6.159 -0.5189 -0.5434  1.5662
  549TIP3   OH223061   2.720   1.022   6.834 -0.2203 -0.1485  0.6443
  549TIP3    H123062   2.790   1.072   6.790 -1.1048  0.5774  0.0302
  549TIP3    H223063   2.662   1.089   6.870 -0.0408 -0.7377  2.1089
  550TIP3   OH223064   3.341   5.896   1.383 -0.4784 -0.1346  0.0558
  550TIP3    H123065   3.355   5.946   1.303  1.8589 -1.4798 -0.4795
  550TIP3    H223066   3.286   5.952   1.438  0.0227  1.9348 -1.4383
  551TIP3   OH223067   1.941   1.457  13.209  0.4134  0.2826 -0.5101
  551TIP3    H123068   1.986   1.539  13.229 -0.5492  1.0311 -1.2611
  551TIP3    H223069   1.976   1.394  13.271 -0.4319  1.7994  1.6500
  552TIP3   OH223070   6.149   0.891  14.117 -0.1557 -0.3678  0.1609
  552TIP3    H123071   6.073   0.912  14.171 -1.1893  1.4245 -1.8115
  552TIP3    H223072   6.111   0.854  14.037  0.9965  1.0051 -1.0643
  553TIP3   OH223073   3.245   2.539   3.502  0.2811 -0.1398  0.0489
  553TIP3    H123074   3.263   2.445   3.495  0.5373 -0.1561  0.8769
  553TIP3    H223075   3.193   2.559   3.424 -0.2626 -1.0905  0.1495
  554TIP3   OH223076   4.796   0.164  16.375  0.1474 -0.3453  0.1861
  554TIP3    H123077   4.865   0.164  16.309  0.7430 -0.2161  0.7953
  554TIP3    H223078   4.796   0.254  16.409  1.1336 -0.8607  1.6606
  555TIP3   OH223079   4.549   4.150  10.298 -0.5165  0.6616 -0.4463
  555TIP3    H123080   4.457   4.152  10.269 -0.5106  0.2763 -0.4888
  555TIP3    H223081   4.552   4.082  10.365 -0.1708  0.3676 -0.7580
  556TIP3   OH223082   4.930   3.332  12.848  0.1607  0.0004  0.2637
  556TIP3    H123083   4.997   3.291  12.793 -2.5786 -1.1587 -2.4387
  556TIP3    H223084   4.898   3.260  12.903  0.2205  0.2562  0.6365
  557TIP3   OH223085   2.496   2.070   0.938 -0.6562  0.3502  0.4584
  557TIP3    H123086   2.433   2.002   0.963  0.0154 -0.1284  0.8754
  557TIP3    H223087   2.480   2.085   0.845  0.5365 -1.8286 -0.1556
  558TIP3   OH223088   5.277   4.760  14.597  0.2632  0.7830 -0.3541
  558TIP3    H123089   5.314   4.834  14.645 -2.4170  2.4802 -0.7073
  558TIP3    H223090   5.274   4.790  14.506 -1.0778  0.3922 -0.4636
  559TIP3   OH223091   3.681   4.995   5.352 -0.3716 -0.1305  0.0857
  559TIP3    H123092   3.624   4.920   5.368  0.5967 -0.4617  2.4495
  559TIP3    H223093   3.730   4.971   5.274 -1.7816 -0.8590 -0.6262
  560TIP3   OH223094   5.623   4.328  13.603 -0.2283 -0.0876 -0.3430
  560TIP3    H123095   5.537   4.327  13.562 -1.5879 -1.4521  2.2280
  560TIP3    H223096   5.604   4.316  13.697  2.8513 -3.8605  0.0229
  561TIP3   OH223097   3.126   0.343   4.534 -0.4993  0.2611  0.5995
  561TIP3    H123098   3.137   0.282   4.607 -0.2307 -0.7986 -0.2960
  561TIP3    H223099   3.156   0.294   4.457  0.6931  1.8818 -0.0141
  562TIP3   OH223100   5.838   6.636   1.982  0.3131  0.1556  0.2626
  562TIP3    H123101   5.790   6.592   1.912 -0.1694 -1.1263  1.3487
  562TIP3    H223102   5.901   6.692   1.937  0.3629 -1.0180 -1.1935
  563TIP3   OH223103   5.580   3.149  13.832 -0.4631  0.9867 -0.8913
  563TIP3    H123104   5.515   3.166  13.764 -0.5523  2.3653 -0.4860
  563TIP3    H223105   5.611   3.060  13.813 -3.1638 -0.1269 -0.4945
  564TIP3   OH223106   5.127   4.813  15.090  0.2911 -0.3197  0.0343
  564TIP3    H123107   5.104   4.829  14.998 -2.8049  0.1110  0.7957
  564TIP3    H223108   5.132   4.900  15.129  3.0784 -0.3980  0.0669
  565TIP3   OH223109   5.622   4.917  11.475 -0.2415  0.4172 -0.0096
  565TIP3    H123110   5.572   4.972  11.536 -1.1668  3.1131 -2.8800
  565TIP3    H223111   5.700   4.968  11.456  0.7516 -1.0566 -0.0085
  566TIP3   OH223112   3.382   0.121  14.895 -0.5914 -0.4255 -0.1593
  566TIP3    H123113   3.331   0.153  14.969 -0.6824 -0.8454 -0.0400
  566TIP3    H223114   3.449   0.065  14.934 -0.1886 -0.0747 -0.3374
  567TIP3   OH223115   0.776   0.279   1.370  1.3907  0.1372 -0.1529
  567TIP3    H123116   0.764   0.374   1.368 -2.2808 -0.2024 -0.8416
  567TIP3    H223117   0.784   0.259   1.464 -2.1444  0.8486  0.4218
  568TIP3   OH223118   6.577   1.695   2.161 -0.5650 -0.5064  0.1840
  568TIP3    H123119   6.497   1.715   2.113  0.9233 -0.3218 -2.3938
  568TIP3    H223120   6.557   1.613   2.207 -2.4798  0.0018  0.3515
  569TIP3   OH223121   3.424   1.523  16.784 -0.1051 -0.4886 -0.4467
  569TIP3    H123122   3.464   1.563  16.861  0.5349  1.1210 -1.5604
  569TIP3    H223123   3.465   1.568  16.710 -0.5444 -2.1342 -1.7410
  570TIP3   OH223124   3.878   4.003  15.461 -0.1473  0.0152  0.2471
  570TIP3    H123125   3.827   4.017  15.380  0.4009  0.3181 -0.0475
  570TIP3    H223126   3.814   3.968  15.523 -0.9304  1.1829  0.1455
  571TIP3   OH223127   5.500   2.773   0.183 -0.1499 -0.2655  0.3684
  571TIP3    H123128   5.533   2.689   0.150  1.4758  0.5529 -0.1749
  571TIP3    H223129   5.451   2.750   0.262 -1.6557 -1.9565 -0.9595
  572TIP3   OH223130   5.560   3.090  14.743 -0.3015 -0.0094 -0.0995
  572TIP3    H123131   5.504   3.012  14.743 -2.2671  1.3095  1.1218
  572TIP3    H223132   5.513   3.153  14.688  1.8234  0.0454 -2.0366
  573TIP3   OH223133   0.352   4.877   0.836  0.4766 -0.8268  0.1936
  573TIP3    H123134   0.296   4.936   0.786  0.4904 -0.8129  0.1946
  573TIP3    H223135   0.410   4.838   0.770  2.9192  1.8177  0.5581
  574TIP3   OH223136   1.780   3.487   2.997 -0.1530 -0.0989  0.0655
  574TIP3    H123137   1.708   3.550   3.009  0.7842  0.6488  2.5011
  574TIP3    H223138   1.736   3.403   2.985 -1.4697  0.3648  1.3106
  575TIP3   OH223139   1.064   3.659  16.616  0.4477  0.3224  0.0814
  575TIP3    H123140   1.137   3.700  16.662 -0.3893  0.3285  1.4668
  575TIP3    H223141   1.004   3.732  16.597  0.3334  0.1736 -0.1342
  576TIP3   OH223142   3.235   0.690   0.228 -0.0660  0.2119  0.0364
  576TIP3    H123143   3.233   0.783   0.205 -0.9241  1.0269  2.9377
  576TIP3    H223144   3.326   0.672   0.250 -0.0212  0.5862  0.1661
  577TIP3   OH223145   3.337   1.640   2.773  0.2183 -0.9481  0.1270
  577TIP3    H123146   3.330   1.735   2.769 -0.7414 -0.9997  0.2717
  577TIP3    H223147   3.407   1.624   2.837 -0.0679 -0.3409  0.6096
  578TIP3   OH223148   3.519   6.057  13.196 -0.2740  0.2314  0.1260
  578TIP3    H123149   3.438   6.067  13.247 -0.1037  1.3057  0.2154
  578TIP3    H223150   3.502   5.982  13.139 -1.4654  0.6368 -0.0883
  579TIP3   OH223151   2.152   6.014   3.840 -0.2731 -0.4637  0.0021
  579TIP3    H123152   2.072   6.058   3.812  0.2901  0.1801 -0.6413
  579TIP3    H223153   2.122   5.938   3.889 -1.3257  1.2172  2.1985
  580TIP3   OH223154   4.336   2.783  16.970 -0.6292  0.0170 -0.2188
  580TIP3    H123155   4.387   2.775  17.050 -0.0095 -0.2428 -0.6360
  580TIP3    H223156   4.350   2.701  16.924 -1.4364 -0.0634 -0.3362
  581TIP3   OH223157   4.793   5.617   3.736  0.3735 -0.0597 -0.0348
  581TIP3    H123158   4.798   5.682   3.807 -1.3490  0.1248 -0.0355
  581TIP3    H223159   4.868   5.560   3.750  0.5268  0.4674  1.4568
  582TIP3   OH223160   4.993   5.246   5.150  0.0654 -0.4672 -0.0875
  582TIP3    H123161   4.934   5.301   5.201 -1.1113 -2.5986  0.9802
  582TIP3    H223162   5.033   5.187   5.215 -1.4196 -3.2342 -1.4924
  583TIP3   OH223163   0.096   0.647  15.765  0.3093 -0.0271 -0.5216
  583TIP3    H123164   0.182   0.682  15.741 -0.1420  0.9712 -0.7442
  583TIP3    H223165   0.069   0.700  15.841  0.0165 -0.5232 -0.2770
  584TIP3   OH223166   2.346   1.175  12.010  0.1141  0.6100  0.8796
  584TIP3    H123167   2.399   1.101  11.979  0.9389  0.8983  1.5609
  584TIP3    H223168   2.304   1.142  12.090  0.0684  0.7035  0.8942
  585TIP3   OH223169   0.272   5.721   6.173 -1.0909 -0.1446 -0.1337
  585TIP3    H123170   0.210   5.691   6.240 -0.9052 -0.0971  0.0606
  585TIP3    H223171   0.242   5.808   6.148 -1.4630 -0.3714 -0.4884
  586TIP3   OH223172   3.559   3.986  12.342 -0.1532  0.2260 -0.2499
  586TIP3    H123173   3.627   3.978  12.409  0.6118  0.4720 -0.9911
  586TIP3    H223174   3.591   4.053  12.282 -1.2997  0.7261 -0.3192
  587TIP3   OH223175   5.489   2.421   2.016  1.2948  0.2569 -0.1322
  587TIP3    H123176   5.571   2.453   1.978  1.5637  1.0415  1.0529
  587TIP3    H223177   5.515   2.387   2.102  0.6070 -0.8809 -0.3602
  588TIP3   OH223178   3.371   0.831   4.218  0.8225  0.0011  0.2314
  588TIP3    H123179   3.453   0.803   4.179  0.3508 -0.6684 -0.2833
  588TIP3    H223180   3.371   0.791   4.305  0.9995 -0.0687  0.2001
  589TIP3   OH223181   6.278   2.506  11.104  0.3108 -0.1736  0.5514
  589TIP3    H123182   6.246   2.417  11.120 -3.2174  1.1633  1.8711
  589TIP3    H223183   6.214   2.545  11.045  1.9963  1.4505 -0.3327
  590TIP3   OH223184   0.354   4.089   1.811  0.4123  0.6124 -0.4279
  590TIP3    H123185   0.320   4.178   1.813  2.6040  1.5165  2.3944
  590TIP3    H223186   0.383   4.072   1.901  0.3058 -2.9002 -0.8954
  591TIP3   OH223187   4.631   1.923   0.914 -0.0989  0.0611 -0.1222
  591TIP3    H123188   4.669   1.924   0.826  1.0240 -0.8437  0.3315
  591TIP3    H223189   4.536   1.927   0.899  0.1103  1.1444 -1.3151
  592TIP3   OH223190   6.704   0.039  14.459  0.2601  0.2614  0.4709
  592TIP3    H123191   6.703  -0.023  14.385 -1.7984 -0.3139  0.9194
  592TIP3    H223192   6.774   0.101  14.436  1.3445 -1.2981 -0.7495
  593TIP3   OH223193   2.347   4.156  16.850  0.1475  0.0425 -0.3560
  593TIP3    H123194   2.386   4.238  16.879 -0.2353 -0.5361  1.9588
  593TIP3    H223195   2.262   4.182  16.813  0.4547  0.7636 -0.5787
  594TIP3   OH223196   5.579   4.263  14.171  0.3737  0.2880  0.1766
  594TIP3    H123197   5.560   4.318  14.095  0.9144 -0.2902 -0.3867
  594TIP3    H223198   5.496   4.258  14.218  0.0414  0.6688 -0.3577
  595TIP3   OH223199   2.712   1.268  11.581 -0.2521  0.1536  0.4029
  595TIP3    H123200   2.717   1.363  11.570 -2.1308  0.2612  0.2160
  595TIP3    H223201   2.655   1.255  11.657 -0.2075 -0.8246  0.2875
  596TIP3   OH223202   5.893   6.209  16.456  0.3448  0.0659 -0.0301
  596TIP3    H123203   5.962   6.143  16.469 -0.2621 -0.1757  2.3800
  596TIP3    H223204   5.812   6.164  16.480 -0.2234  1.3792  0.5929
  597TIP3   OH223205   3.656   6.741   4.707  0.4396 -0.4028  0.1635
  597TIP3    H123206   3.616   6.775   4.786  0.7282 -0.8917  0.5272
  597TIP3    H223207   3.723   6.680   4.738  0.9797 -0.1335 -0.4415
  598TIP3   OH223208   3.793   5.725  14.937  0.4512  0.3461  0.5235
  598TIP3    H123209   3.851   5.755  15.007  0.7858  0.5893  0.1434
  598TIP3    H223210   3.816   5.633  14.925  0.9871  0.5251  0.1521
  599TIP3   OH223211   4.173   6.335  12.986 -0.1237 -0.1969 -0.7348
  599TIP3    H123212   4.164   6.269  12.916 -0.9982 -0.3725 -0.4731
  599TIP3    H223213   4.088   6.380  12.987 -0.8156 -1.3983  1.4024
  600TIP3   OH223214   2.562   5.363   5.131  0.1830  0.2854 -0.4224
  600TIP3    H123215   2.589   5.360   5.222  2.6117 -1.1077 -1.0896
  600TIP3    H223216   2.479   5.411   5.131  1.8015  3.4381  2.1080
  601TIP3   OH223217   1.000   1.878  16.926 -0.2534  0.1495 -0.2723
  601TIP3    H123218   0.946   1.869  17.005  1.2172  1.2795  0.9058
  601TIP3    H223219   1.056   1.953  16.943  4.3030 -2.9644  0.1673
  602TIP3   OH223220   1.888   2.232   2.443  0.3515 -0.4113  0.7427
  602TIP3    H123221   1.895   2.326   2.429 -1.5263 -0.2091  0.8950
  602TIP3    H223222   1.876   2.195   2.355  0.6851 -0.4631  0.7189
  603TIP3   OH223223   1.262   2.313   1.924  0.1102  0.2938 -0.1546
  603TIP3    H123224   1.206   2.259   1.979 -1.6280 -0.9826 -2.9345
  603TIP3    H223225   1.350   2.277   1.935 -0.1094  0.2724  1.8827
  604TIP3   OH223226   2.503   1.890  16.165  0.3496 -0.1547  0.6329
  604TIP3    H123227   2.457   1.894  16.081  1.3327 -0.9286  0.0333
  604TIP3    H223228   2.571   1.823  16.152  0.5017 -0.3036  2.0564
  605TIP3   OH223229   2.359   1.350   4.506  0.0524  0.0929  0.3759
  605TIP3    H123230   2.420   1.395   4.447 -0.7478  1.0295  0.2374
  605TIP3    H223231   2.367   1.257   4.482 -2.7343  0.6229 -3.7104
  606TIP3   OH223232   2.121   2.433  16.580  0.2728 -0.3535 -0.4762
  606TIP3    H123233   2.089   2.484  16.653  3.1164  1.3772 -0.2979
  606TIP3    H223234   2.163   2.357  16.620 -1.1783 -1.2708 -0.5905
  607TIP3   OH223235   3.152   5.796  12.586  0.4475 -0.0592 -0.2069
  607TIP3    H123236   3.182   5.853  12.656  1.1633 -1.6766  0.8539
  607TIP3    H223237   3.091   5.850  12.536 -1.1613  0.7538  2.4329
  608TIP3   OH223238   6.698   4.726   4.023 -0.0109 -0.1563 -0.3570
  608TIP3    H123239   6.732   4.669   3.955  1.4132 -0.9705  0.9740
  608TIP3    H223240   6.638   4.671   4.073 -0.7242  0.3117 -0.6897
  609TIP3   OH223241   2.324   4.952  15.500  0.1304 -0.2474 -0.0555
  609TIP3    H123242   2.240   4.967  15.543  0.4714 -0.2544  0.6285
  609TIP3    H223243   2.307   4.881  15.439 -0.2806 -0.5003  0.3451
  610TIP3   OH223244   1.146   0.589   1.144  0.4879  0.0597  1.1219
  610TIP3    H123245   1.126   0.643   1.221 -2.0520  0.4627  0.2686
  610TIP3    H223246   1.207   0.522   1.178 -1.6410 -0.6732  3.9036
  611TIP3   OH223247   4.945   6.765   1.230 -0.4495 -0.2455 -0.2182
  611TIP3    H123248   4.876   6.831   1.221 -1.1812 -1.1385 -1.4957
  611TIP3    H223249   5.011   6.789   1.165 -0.1827 -0.1503  0.0829
  612TIP3   OH223250   4.289   1.499  16.218  1.1530 -0.5832  0.0017
  612TIP3    H123251   4.307   1.514  16.311  1.6764 -1.3224  0.0372
  612TIP3    H223252   4.346   1.561  16.173 -1.7347  2.4205  0.1497
  613TIP3   OH223253   4.520   1.432  15.231 -0.0176  0.3311  0.0051
  613TIP3    H123254   4.555   1.511  15.191 -0.5119 -0.0229 -1.1637
  613TIP3    H223255   4.460   1.465  15.299 -3.0557  1.1339 -2.8195
  614TIP3   OH223256   2.297   5.902  12.418 -0.0263  0.7555 -0.5588
  614TIP3    H123257   2.284   5.996  12.405  0.9763  1.2342  1.4223
  614TIP3    H223258   2.216   5.872  12.458 -0.1067  0.9215 -0.5950
  615TIP3   OH223259   6.763   3.593  16.109 -0.3263 -0.2806  0.6927
  615TIP3    H123260   6.807   3.657  16.053 -2.5763  0.5496 -0.2288
  615TIP3    H223261   6.812   3.596  16.191  1.0961  0.8274 -0.1428
  616TIP3   OH223262   1.708   3.670  12.885  0.3151 -0.1702 -0.1353
  616TIP3    H123263   1.797   3.662  12.918  0.7869 -1.7694 -1.5841
  616TIP3    H223264   1.655   3.695  12.961  1.5041 -2.3768  1.5504
  617TIP3   OH223265   4.859   0.101  13.745 -0.3063 -0.2515  0.1364
  617TIP3    H123266   4.815   0.024  13.709  0.1651 -0.9892  1.0846
  617TIP3    H223267   4.937   0.066  13.788  1.3969  1.0256 -1.7263
  618TIP3   OH223268   3.292   2.101   0.540 -0.3365 -1.0118  0.4208
  618TIP3    H123269   3.358   2.035   0.518  1.4015  0.3890  1.1852
  618TIP3    H223270   3.224   2.091   0.473  0.6543 -2.4914 -0.4142
  619TIP3   OH223271   4.838   1.317  16.392  0.4460 -0.0717 -0.2191
  619TIP3    H123272   4.911   1.376  16.373  1.1176 -1.2435 -1.4942
  619TIP3    H223273   4.867   1.232  16.358  0.1074 -1.5148  2.8157
  620TIP3   OH223274   0.258   2.457   2.164 -0.2275  0.3662 -0.2300
  620TIP3    H123275   0.245   2.551   2.164  0.9460  0.6531 -3.8784
  620TIP3    H223276   0.352   2.446   2.175 -0.1998 -0.3014 -1.0499
  621TIP3   OH223277   4.260   3.932   0.903  0.2882  0.0526  0.1488
  621TIP3    H123278   4.241   3.902   0.992  0.6312  0.2263  0.2821
  621TIP3    H223279   4.333   3.876   0.874 -0.0051 -0.1922 -0.1295
  622TIP3   OH223280   3.083   5.455  14.591  0.7324  0.4861 -1.1713
  622TIP3    H123281   3.007   5.441  14.647  1.8575  1.0780  0.5974
  622TIP3    H223282   3.083   5.380  14.531  0.3933 -1.1318  0.7366
  623TIP3   OH223283   6.614   6.109  11.613  0.0772 -0.2447 -0.2221
  623TIP3    H123284   6.690   6.167  11.623  2.5069 -3.1201 -0.5675
  623TIP3    H223285   6.540   6.161  11.645  2.0909  2.8152 -0.0617
  624TIP3   OH223286   2.417   0.760  13.538  0.3306  0.5563  0.3669
  624TIP3    H123287   2.503   0.803  13.536 -0.5748  2.4348 -0.6254
  624TIP3    H223288   2.360   0.817  13.487 -1.7039 -0.3004  1.5482
  625TIP3   OH223289   3.433   5.128   3.325 -0.2483 -0.3076 -0.2863
  625TIP3    H123290   3.525   5.145   3.347 -0.4585  0.4642  0.0277
  625TIP3    H223291   3.391   5.111   3.410 -0.4467 -0.4192 -0.4049
  626TIP3   OH223292   2.487   0.514   3.664  0.0099  0.0531 -0.0357
  626TIP3    H123293   2.509   0.607   3.670  0.1247  0.0448 -0.3081
  626TIP3    H223294   2.394   0.510   3.684  0.1671  0.1320  0.7681
  627TIP3   OH223295   1.477   5.144  14.414 -0.7869  0.1830  0.1001
  627TIP3    H123296   1.503   5.079  14.349 -0.7729 -0.4284  0.7168
  627TIP3    H223297   1.458   5.223  14.362  1.0334  0.2777 -0.4816
  628TIP3   OH223298   3.808   0.274  16.277  0.2529 -0.2005  0.4251
  628TIP3    H123299   3.791   0.277  16.183  0.9388  4.1968  0.2456
  628TIP3    H223300   3.903   0.271  16.284  0.1859 -2.2013  1.0941
  629TIP3   OH223301   3.466   1.084   3.199 -0.1764 -0.8482 -0.1460
  629TIP3    H123302   3.443   1.051   3.286  2.3560 -0.8025  0.6226
  629TIP3    H223303   3.516   1.164   3.216  0.5467 -0.9491 -1.6268
  630TIP3   OH223304   3.728   2.448  11.304  0.1415  0.6531 -0.2700
  630TIP3    H123305   3.672   2.414  11.374  0.7137  0.4118  0.0750
  630TIP3    H223306   3.729   2.379  11.238  0.0992  0.6184 -0.2350
  631TIP3   OH223307   3.225   4.381  17.005  0.1224  0.1198 -0.1590
  631TIP3    H123308   3.132   4.361  16.987  0.4618  0.1287 -2.1258
  631TIP3    H223309   3.273   4.309  16.963  1.0424  0.3711  0.4334
  632TIP3   OH223310   4.088   2.292   6.037 -0.5972 -0.1557  0.3303
  632TIP3    H123311   4.008   2.344   6.031  0.1918  0.9276 -1.6448
  632TIP3    H223312   4.128   2.299   5.950  0.1849 -3.0616  0.3507
  633TIP3   OH223313   3.983   6.401   1.824 -0.0058  0.6641 -0.3132
  633TIP3    H123314   4.073   6.399   1.858 -0.6289  0.5356  1.4153
  633TIP3    H223315   3.937   6.462   1.882 -1.4804 -0.7129  0.0088
  634TIP3   OH223316   0.182   0.324  14.726 -0.3281  0.3606  0.3259
  634TIP3    H123317   0.181   0.271  14.806 -0.5989  1.6778  1.2204
  634TIP3    H223318   0.274   0.333  14.704 -0.0988  1.6959  1.6851
  635TIP3   OH223319   6.510   5.584  12.639  0.0818 -0.9180  0.2484
  635TIP3    H123320   6.522   5.601  12.546  0.3128  0.4953  0.5242
  635TIP3    H223321   6.419   5.553  12.646 -0.2866  0.0089 -0.3080
  636TIP3   OH223322   6.468   2.709  12.298  0.7686  0.4745 -0.1636
  636TIP3    H123323   6.534   2.678  12.236 -0.8592  1.6788 -2.7257
  636TIP3    H223324   6.424   2.630  12.328  1.3184 -0.1280 -0.9023
  637TIP3   OH223325   3.915   3.892   1.556 -0.3062 -0.3658 -0.3951
  637TIP3    H123326   3.854   3.852   1.495  0.5081  0.1925 -1.6262
  637TIP3    H223327   3.940   3.821   1.615 -1.8905 -0.6677 -0.0448
  638TIP3   OH223328   1.968   4.518  15.462 -0.7345  0.2114  0.2962
  638TIP3    H123329   2.030   4.455  15.501  0.3467  0.9479 -0.1845
  638TIP3    H223330   1.894   4.519  15.523 -1.2037 -2.1673 -0.1197
  639TIP3   OH223331   5.187   1.598   6.294  0.5396  0.1744  0.3384
  639TIP3    H123332   5.221   1.683   6.320 -0.2293  0.5169  0.2321
  639TIP3    H223333   5.261   1.556   6.250  0.8392  0.8926  0.1408
  640TIP3   OH223334   2.663   6.155   0.831 -0.0204  0.6808  0.0554
  640TIP3    H123335   2.672   6.060   0.827  1.4273  0.8041 -0.1584
  640TIP3    H223336   2.715   6.187   0.757  1.2039  1.7068  1.3052
  641TIP3   OH223337   4.323   2.019   2.208  0.0468  0.3226 -0.3204
  641TIP3    H123338   4.340   1.998   2.300 -1.1940  0.6428  0.0082
  641TIP3    H223339   4.387   1.968   2.159  2.2332  1.8161  0.7999
  642TIP3   OH223340   6.230   1.987  12.356 -0.3511 -0.0983  0.1245
  642TIP3    H123341   6.270   1.909  12.318 -1.2859 -0.0332 -1.0413
  642TIP3    H223342   6.154   1.955  12.404 -0.0208 -0.0196  0.7161
  643TIP3   OH223343   4.390   0.594  12.708 -0.0380  0.0107  0.6436
  643TIP3    H123344   4.310   0.642  12.688  0.5975  1.7942  2.0959
  643TIP3    H223345   4.367   0.539  12.783 -0.5448 -1.4256 -0.5192
  644TIP3   OH223346   6.638   4.059   0.533  0.0859 -1.1016  0.8360
  644TIP3    H123347   6.620   4.083   0.624 -2.1211 -0.1068  0.2325
  644TIP3    H223348   6.712   4.114   0.508  0.6265 -1.2826  1.9776
  645TIP3   OH223349   4.326   4.281  12.344  0.5090 -0.1782 -0.4445
  645TIP3    H123350   4.252   4.273  12.405  0.0424 -1.7332 -1.1556
  645TIP3    H223351   4.298   4.348  12.281 -0.8465 -1.5872 -1.4020
  646TIP3   OH223352   5.729   0.395   4.622  0.6478  0.5019 -0.2875
  646TIP3    H123353   5.726   0.487   4.599  0.9548  0.0636 -2.2310
  646TIP3    H223354   5.659   0.355   4.570  0.6542 -0.3879  0.3630
  647TIP3   OH223355   6.052   1.528  16.598 -0.1191 -0.3415 -0.0233
  647TIP3    H123356   5.977   1.551  16.542  0.7189  0.3362 -0.8931
  647TIP3    H223357   6.091   1.612  16.620  0.2164 -0.6788  0.6797
  648TIP3   OH223358   0.737   6.043  12.331  0.2515 -0.2254 -0.6353
  648TIP3    H123359   0.659   6.090  12.360  0.3959 -0.5596  0.3217
  648TIP3    H223360   0.806   6.070  12.392  0.5760 -0.8997 -0.6946
  649TIP3   OH223361   2.205   1.017   3.637  0.2491  0.2229 -0.0737
  649TIP3    H123362   2.221   0.942   3.579  0.6541 -0.5269  0.9727
  649TIP3    H223363   2.116   1.004   3.669  0.5405 -0.1527  0.5901
  650TIP3   OH223364   4.294   1.761  11.264  0.6753  0.5153  0.5332
  650TIP3    H123365   4.276   1.836  11.320 -0.5860  1.0677 -0.5541
  650TIP3    H223366   4.253   1.687  11.309 -0.7049  1.0282  0.1806
  651TIP3   OH223367   2.148   3.044   4.113 -0.4622 -0.6949 -0.2181
  651TIP3    H123368   2.117   2.965   4.157 -1.6196 -1.0651 -1.5999
  651TIP3    H223369   2.233   3.062   4.152 -0.7804 -1.8400  1.0820
  652TIP3   OH223370   5.453   4.904  15.693 -0.0119 -0.1667 -0.5229
  652TIP3    H123371   5.452   4.999  15.678 -3.2079  0.2744  1.4327
  652TIP3    H223372   5.514   4.891  15.765  1.6588  0.1224 -1.8299
  653TIP3   OH223373   1.986   4.758   0.842  0.5225  0.1735  0.1639
  653TIP3    H123374   1.949   4.696   0.905 -0.9038 -0.8712 -1.5888
  653TIP3    H223375   2.072   4.778   0.876 -0.0216 -0.6834  2.2067
  654TIP3   OH223376   1.718   5.594   3.315 -0.1137  0.2987  0.2890
  654TIP3    H123377   1.726   5.523   3.379  3.4608 -0.9455 -1.2520
  654TIP3    H223378   1.754   5.671   3.360  1.2406 -0.2726  0.2222
  655TIP3   OH223379   6.062   6.331   0.227 -0.3985 -0.2776  0.1942
  655TIP3    H123380   6.082   6.374   0.144 -0.3622  1.3712  1.0125
  655TIP3    H223381   5.967   6.334   0.234 -0.3537  0.5317  0.6559
  656TIP3   OH223382   5.307   1.178  11.832  0.6028  0.0497 -0.0804
  656TIP3    H123383   5.263   1.105  11.875  0.4436  0.0849 -0.1831
  656TIP3    H223384   5.259   1.191  11.750  0.3624  0.5388  0.1297
  657TIP3   OH223385   3.587   5.030   1.109 -0.7931  0.2887 -0.0470
  657TIP3    H123386   3.660   5.007   1.051 -2.9291  1.0913 -3.3485
  657TIP3    H223387   3.510   4.991   1.066 -2.4004 -0.7475  3.3826
  658TIP3   OH223388   5.416   5.584   0.299 -0.5295 -0.1643  0.0140
  658TIP3    H123389   5.477   5.520   0.335 -0.9902 -0.3934  0.4089
  658TIP3    H223390   5.450   5.605   0.212  0.2116 -0.1394  0.3045
  659TIP3   OH223391   5.105   0.202   5.370 -0.4309 -0.0670 -0.2929
  659TIP3    H123392   5.146   0.234   5.450 -0.1884  0.9926 -0.8232
  659TIP3    H223393   5.014   0.183   5.395  0.5771 -3.8230  1.2686
  660TIP3   OH223394   0.685   1.073   2.083  0.7242 -0.5095  0.6386
  660TIP3    H123395   0.748   1.058   2.013 -0.8402  0.2774 -1.0218
  660TIP3    H223396   0.613   1.120   2.041  0.4368  1.4890  3.1402
  661TIP3   OH223397   6.688   6.390   6.428  0.3045 -0.1113  0.5822
  661TIP3    H123398   6.783   6.383   6.441  0.6032  2.2520  0.1711
  661TIP3    H223399   6.669   6.325   6.360  1.8219  0.0771 -0.0798
  662TIP3   OH223400   0.704   5.736  12.216 -0.4778  0.2638  0.2236
  662TIP3    H123401   0.675   5.687  12.293  1.9371  1.4626  2.0198
  662TIP3    H223402   0.682   5.827  12.236  1.5512  0.7886  0.2738
  663TIP3   OH223403   0.466   5.815   5.456 -0.6798  0.0406 -0.2278
  663TIP3    H123404   0.450   5.744   5.518  2.0203  0.6421  1.3208
  663TIP3    H223405   0.496   5.772   5.377  0.2536 -0.6259  0.4666
  664TIP3   OH223406   4.954   3.103  11.873  0.4828 -0.3609 -0.2356
  664TIP3    H123407   4.965   3.186  11.920  0.2679 -0.6135  0.2694
  664TIP3    H223408   5.000   3.117  11.790  0.8022  0.1210  0.0113
  665TIP3   OH223409   6.678   3.366  14.041 -0.3789  0.1720  0.0776
  665TIP3    H123410   6.764   3.378  14.081  0.5389 -0.2528 -1.6513
  665TIP3    H223411   6.662   3.448  13.995 -1.6614  0.8617  1.6779
  666TIP3   OH223412   0.091   3.738   1.809  0.4582  0.2003  0.2697
  666TIP3    H123413   0.039   3.806   1.853 -0.1145  0.7097 -1.1204
  666TIP3    H223414   0.142   3.697   1.879 -2.3877 -0.8824  1.8757
  667TIP3   OH223415   5.700   0.301  14.136  0.4416  0.1450 -0.1166
  667TIP3    H123416   5.641   0.231  14.108 -0.4286  0.9632 -0.4143
  667TIP3    H223417   5.748   0.264  14.210  1.2373 -1.3315 -1.3158
  668TIP3   OH223418   3.751   0.321   1.699  0.2391  0.1162 -0.6383
  668TIP3    H123419   3.775   0.285   1.613 -1.1049 -1.8183 -0.2692
  668TIP3    H223420   3.655   0.325   1.698  0.2162  0.3902  0.6532
  669TIP3   OH223421   1.831   1.642   2.214 -0.5111 -0.0924  0.4316
  669TIP3    H123422   1.773   1.709   2.176 -1.6242  0.3878  2.7737
  669TIP3    H223423   1.885   1.691   2.276  0.3352 -1.0411  0.4608
  670TIP3   OH223424   1.183   3.161   0.605 -0.7723 -0.0192 -0.1729
  670TIP3    H123425   1.133   3.201   0.676 -2.3190  3.2504 -2.8224
  670TIP3    H223426   1.259   3.217   0.595 -0.9729  0.0522 -1.5136
  671TIP3   OH223427   0.313   1.890   0.184  0.3332  0.1261  0.1084
  671TIP3    H123428   0.271   1.844   0.258 -1.8739  1.5938 -0.1507
  671TIP3    H223429   0.399   1.849   0.177 -0.2629 -1.6480  2.0161
  672TIP3   OH223430   2.812   2.651  10.692  0.8241 -0.4184 -0.4623
  672TIP3    H123431   2.836   2.714  10.760  0.4123  0.7476 -1.3567
  672TIP3    H223432   2.873   2.578  10.704  1.9837  0.5857 -0.0224
  673TIP3   OH223433   1.445   3.866   4.934 -0.4275 -0.3665 -0.1276
  673TIP3    H123434   1.539   3.883   4.920 -0.0638 -0.9708  1.3883
  673TIP3    H223435   1.439   3.771   4.939 -0.9925 -0.2927  0.6394
  674TIP3   OH223436   4.125   4.645  12.561  0.1443  0.2102  0.0644
  674TIP3    H123437   4.144   4.673  12.472 -3.0208  1.7698 -0.2677
  674TIP3    H223438   4.195   4.684  12.614  2.4985 -1.3543 -1.6791
  675TIP3   OH223439   6.500   4.136  13.450 -0.1834 -0.3476  0.1534
  675TIP3    H123440   6.590   4.149  13.481 -0.5469  0.7767  0.8026
  675TIP3    H223441   6.509   4.102  13.362  0.9135  1.5385 -0.5265
  676TIP3   OH223442   5.151   4.902   1.570  0.0424  0.3836 -0.7334
  676TIP3    H123443   5.176   4.931   1.483 -1.1129  1.7487 -0.6365
  676TIP3    H223444   5.110   4.978   1.611 -0.9877 -0.7196  0.3811
  677TIP3   OH223445   2.301   6.740  11.435  0.0201  0.2335 -0.0421
  677TIP3    H123446   2.254   6.785  11.505 -0.1456  0.5388 -0.3451
  677TIP3    H223447   2.232   6.698  11.384  0.0290  1.0032 -0.7138
  678TIP3   OH223448   5.968   2.511   5.612  0.5033 -0.2258  0.1253
  678TIP3    H123449   5.995   2.567   5.684  1.1623  1.4872 -1.3805
  678TIP3    H223450   6.043   2.512   5.552 -0.0561 -1.5360 -0.6407
  679TIP3   OH223451   2.741   6.044  14.505 -0.0839  0.2307  0.1168
  679TIP3    H123452   2.682   5.981  14.544 -0.9925  0.9334 -0.0852
  679TIP3    H223453   2.787   5.996  14.437 -1.7102  0.1012 -0.9206
  680TIP3   OH223454   5.672   0.566   1.799  0.1963  0.4411  0.6622
  680TIP3    H123455   5.742   0.603   1.745 -1.1780  0.9676 -0.8593
  680TIP3    H223456   5.606   0.635   1.804 -1.4041 -0.9053 -0.2729
  681TIP3   OH223457   6.671   4.983   1.887 -0.5218 -0.3784 -0.4830
  681TIP3    H123458   6.626   4.904   1.918 -0.7965  0.2126  0.6921
  681TIP3    H223459   6.604   5.050   1.887  0.0437  0.1981 -0.0333
  682TIP3   OH223460   1.381   1.833  16.460 -0.4407 -0.0796 -0.1434
  682TIP3    H123461   1.339   1.746  16.460 -2.3151  0.7387  1.6851
  682TIP3    H223462   1.462   1.819  16.509  0.4334 -1.2380 -1.8266
  683TIP3   OH223463   3.435   1.246   6.672 -0.0816 -0.6134 -0.5632
  683TIP3    H123464   3.392   1.320   6.630 -1.0515 -0.4166  0.7167
  683TIP3    H223465   3.509   1.225   6.615 -0.9291  0.0924 -1.9599
  684TIP3   OH223466   5.856   1.877   4.177 -0.4710  0.3240  0.4142
  684TIP3    H123467   5.942   1.880   4.219  0.7388  0.9179 -1.9306
  684TIP3    H223468   5.860   1.799   4.121 -1.9340 -0.3088  1.1295
  685TIP3   OH223469   0.800   3.464  16.812  0.1466 -0.5602 -0.2836
  685TIP3    H123470   0.791   3.373  16.839  2.3229 -0.9850 -0.7491
  685TIP3    H223471   0.744   3.472  16.734 -0.3296 -1.3994 -0.0364
  686TIP3   OH223472   4.981   0.774  12.384  0.5968  0.4345  0.8975
  686TIP3    H123473   5.047   0.825  12.430  0.0808 -1.2554  3.7226
  686TIP3    H223474   5.017   0.686  12.380 -0.5089 -0.0206  0.3628
  687TIP3   OH223475   4.453   5.293  15.562 -0.1902  0.1888 -0.0288
  687TIP3    H123476   4.525   5.237  15.590  0.9630  0.7279 -1.7658
  687TIP3    H223477   4.386   5.233  15.531  1.2909 -0.3234 -2.4940
  688TIP3   OH223478   1.658   5.427  13.642 -0.2905  0.5138  0.5413
  688TIP3    H123479   1.690   5.469  13.722  1.4182 -2.4539  1.5788
  688TIP3    H223480   1.581   5.378  13.670  0.4799 -0.7692  0.4877
  689TIP3   OH223481   5.977   2.776  11.114  0.7266  0.1843  0.7668
  689TIP3    H123482   5.960   2.682  11.114 -0.4327  0.3634 -0.6608
  689TIP3    H223483   6.016   2.794  11.029 -1.4531  1.3487 -0.0591
  690TIP3   OH223484   0.968   4.672   1.781  0.5687  0.3955  0.0486
  690TIP3    H123485   0.989   4.596   1.727 -2.4230 -0.5267  0.0113
  690TIP3    H223486   0.987   4.644   1.870 -0.3318 -0.3613  0.0148
  691TIP3   OH223487   5.651   2.596  16.755 -0.1514 -0.0708  0.5974
  691TIP3    H123488   5.688   2.681  16.730  0.2181 -0.1003  1.0418
  691TIP3    H223489   5.585   2.578  16.688  0.3309  0.1833  0.0507
  692TIP3   OH223490   2.563   3.054  10.897 -0.3547  0.1964 -0.2627
  692TIP3    H123491   2.650   3.016  10.892  0.0491  0.9050  0.9873
  692TIP3    H223492   2.570   3.136  10.847 -1.0564 -0.9680 -2.4198
  693TIP3   OH223493   3.275   4.142   4.772 -0.4445  0.2599 -0.2604
  693TIP3    H123494   3.185   4.151   4.802 -0.1715  1.0000  0.3669
  693TIP3    H223495   3.309   4.231   4.769  0.0508  0.0619 -1.2080
  694TIP3   OH223496   2.810   2.312   2.939 -0.7796 -0.5753  0.0824
  694TIP3    H123497   2.769   2.225   2.940  0.6612 -1.3318 -1.6142
  694TIP3    H223498   2.752   2.365   2.884 -0.4165 -1.1722 -0.9105
  695TIP3   OH223499   3.778   1.262   6.013  0.3402  0.0107 -0.3359
  695TIP3    H123500   3.850   1.276   5.951  0.0428 -1.9340 -1.1895
  695TIP3    H223501   3.790   1.172   6.044 -1.1657 -0.0129  0.2657
  696TIP3   OH223502   4.429   1.282   5.499 -0.0561  0.0817 -0.1859
  696TIP3    H123503   4.478   1.319   5.572  1.1670 -1.4164 -0.1970
  696TIP3    H223504   4.427   1.188   5.516 -3.4783  0.0864  0.1037
  697TIP3   OH223505   1.030   0.613   4.642 -0.6308 -0.5130 -0.1725
  697TIP3    H123506   1.124   0.626   4.655 -0.5062 -0.7803 -0.7941
  697TIP3    H223507   1.007   0.672   4.570 -1.1642  0.3707  0.6866
  698TIP3   OH223508   5.839   2.394  15.652 -0.8632 -0.0156 -0.4914
  698TIP3    H123509   5.818   2.434  15.568  3.3587 -0.3373 -1.9514
  698TIP3    H223510   5.846   2.300  15.634 -1.1358 -0.2474  0.5176
  699TIP3   OH223511   4.130   1.321  16.841 -0.8151 -0.1944 -0.2565
  699TIP3    H123512   4.215   1.337  16.800 -0.8453  1.9416  0.4030
  699TIP3    H223513   4.115   1.227  16.829  0.4540 -0.1665 -2.5928
  700TIP3   OH223514   0.052   0.451  11.736  0.3886 -0.1791 -0.0920
  700TIP3    H123515   0.023   0.458  11.645 -2.2489 -0.4103  0.6432
  700TIP3    H223516   0.051   0.357  11.754  0.9608 -0.1374  0.1545
  701TIP3   OH223517   0.516   1.250   1.630 -0.0240 -0.0362  0.6344
  701TIP3    H123518   0.431   1.240   1.586  0.1023 -0.5642  0.4984
  701TIP3    H223519   0.543   1.340   1.611 -0.0047 -0.2307 -0.3143
  702TIP3   OH223520   4.076   0.590   0.804  0.1027 -0.2914 -0.3315
  702TIP3    H123521   4.139   0.600   0.733  1.3844  0.7551  0.8946
  702TIP3    H223522   4.082   0.497   0.829  1.3565 -0.1596 -0.0805
  703TIP3   OH223523   5.594   5.122  15.335 -0.1082 -0.3987 -0.0784
  703TIP3    H123524   5.639   5.038  15.337 -1.0143 -0.9372 -1.1267
  703TIP3    H223525   5.626   5.168  15.412  3.0130 -0.3248 -1.2419
  704TIP3   OH223526   1.320   2.684  14.784 -0.4056  0.1014  0.8572
  704TIP3    H123527   1.280   2.719  14.705 -1.4085 -3.3207 -0.3417
  704TIP3    H223528   1.249   2.635  14.826  0.8192 -0.3818  2.4373
  705TIP3   OH223529   5.487   6.291  12.463 -0.1003  0.2693 -0.6512
  705TIP3    H123530   5.430   6.297  12.539 -0.5860  1.5353 -1.0937
  705TIP3    H223531   5.574   6.314  12.497 -0.1851  0.1260 -0.3350
  706TIP3   OH223532   1.990   3.644  15.319 -0.0577  0.5826 -0.1717
  706TIP3    H123533   2.004   3.700  15.243  0.2020 -0.8297 -1.1823
  706TIP3    H223534   1.952   3.703  15.385  0.4200  1.9874 -1.1186
  707TIP3   OH223535   4.225   0.382   0.134 -0.2464  0.5937  0.6152
  707TIP3    H123536   4.133   0.399   0.117 -0.2043  0.5390  0.3154
  707TIP3    H223537   4.227   0.295   0.173 -0.0979 -0.8168 -2.2451
  708TIP3   OH223538   4.682   4.756   1.553  0.2944  0.2480 -0.0126
  708TIP3    H123539   4.687   4.698   1.629  1.0434 -2.2035 -1.8270
  708TIP3    H223540   4.768   4.749   1.512 -0.0703  1.5912 -1.0624
  709TIP3   OH223541   2.253   0.720   0.260  0.3576 -0.4863 -0.3248
  709TIP3    H123542   2.290   0.800   0.297  1.9194 -1.3393  0.0596
  709TIP3    H223543   2.212   0.748   0.178 -0.3286  0.9097  0.4658
  710TIP3   OH223544   4.026   4.445  14.059 -0.4848 -0.5944  0.0911
  710TIP3    H123545   3.942   4.475  14.094  0.2312  0.7450  0.7169
  710TIP3    H223546   4.076   4.419  14.136  0.1969  0.0021 -0.1448
  711TIP3   OH223547   3.875   3.628   4.296 -0.1785  0.7779  0.3279
  711TIP3    H123548   3.876   3.689   4.370  0.5069  1.3787 -0.1639
  711TIP3    H223549   3.904   3.545   4.333 -0.8692  0.7993  0.9505
  712TIP3   OH223550   0.409   1.670   5.139  0.1707  0.2670  0.0839
  712TIP3    H123551   0.452   1.748   5.104  0.6286 -0.0614 -0.1029
  712TIP3    H223552   0.336   1.653   5.079  0.3381  0.2970 -0.1272
  713TIP3   OH223553   6.648   2.783  15.382  0.3151  0.1582 -0.5417
  713TIP3    H123554   6.591   2.766  15.457  0.6271 -0.5643 -0.4562
  713TIP3    H223555   6.626   2.872  15.355  1.6130  1.2186  1.6518
  714TIP3   OH223556   2.065   2.655  11.357  0.0365  0.3717 -0.0268
  714TIP3    H123557   1.994   2.717  11.339  0.4669  2.0294  3.2331
  714TIP3    H223558   2.026   2.569  11.340 -3.1206  1.1477  2.3528
  715TIP3   OH223559   6.119   1.396  12.687 -0.4776 -0.0743  0.1851
  715TIP3    H123560   6.184   1.339  12.645  0.3862  0.9568  0.0937
  715TIP3    H223561   6.109   1.469  12.626 -2.1763 -0.4876 -0.0773
  716TIP3   OH223562   5.985   3.182  12.028  0.1591 -1.0066  0.0530
  716TIP3    H123563   5.915   3.241  11.999 -0.9093 -1.7989  0.9070
  716TIP3    H223564   6.027   3.229  12.100 -1.1679 -1.5352  1.2244
  717TIP3   OH223565   0.313   1.149  11.810  0.1540  1.0905 -0.6220
  717TIP3    H123566   0.283   1.104  11.889  1.8642  0.9224 -0.0212
  717TIP3    H223567   0.303   1.242  11.830 -1.1161  1.0294 -0.9258
  718TIP3   OH223568   4.873   4.680   2.133 -0.1900  0.2225  0.2491
  718TIP3    H123569   4.914   4.741   2.072 -1.6540  1.0320  0.0390
  718TIP3    H223570   4.863   4.730   2.214 -1.3075  0.2442  0.1078
  719TIP3   OH223571   6.002   0.669   1.266  0.3907 -0.6026  0.3208
  719TIP3    H123572   6.009   0.606   1.194  0.2120  0.7265 -0.8909
  719TIP3    H223573   5.910   0.666   1.291 -0.0383  0.4944 -1.0009
  720TIP3   OH223574   1.952   0.932   3.622 -0.3217  0.1353  0.1555
  720TIP3    H123575   1.869   0.894   3.651 -0.2355 -0.4075 -0.2924
  720TIP3    H223576   1.927   1.007   3.569 -0.5593 -0.5122 -0.6709
  721TIP3   OH223577   3.115   6.091   4.628  0.1107  0.0200  0.1129
  721TIP3    H123578   3.211   6.086   4.636  0.2104  0.3045 -0.7547
  721TIP3    H223579   3.094   6.183   4.642  0.2688  0.4881 -2.2481
  722TIP3   OH223580   6.576   0.357   5.007 -0.0568 -0.3274  0.1224
  722TIP3    H123581   6.607   0.367   4.917 -0.3954 -1.3922 -0.1243
  722TIP3    H223582   6.494   0.309   5.000 -1.6027  2.0309  0.8076
  723TIP3   OH223583   0.633   5.135  16.527 -0.3671  0.2683  0.1468
  723TIP3    H123584   0.602   5.110  16.614 -0.2583  0.8444  0.3567
  723TIP3    H223585   0.709   5.080  16.511  0.0052  0.6142  0.6971
  724TIP3   OH223586   1.686   1.022   1.552  0.5720 -0.1106 -0.0263
  724TIP3    H123587   1.739   1.085   1.601  0.7532 -0.5355  0.3265
  724TIP3    H223588   1.676   1.062   1.465  1.8176 -0.2150 -0.2409
  725TIP3   OH223589   2.026   3.515   0.289  0.2656  0.0736 -0.1258
  725TIP3    H123590   2.037   3.444   0.227 -1.4343  0.0287 -0.4139
  725TIP3    H223591   2.081   3.491   0.364  0.0314 -1.3141 -0.3914
  726TIP3   OH223592   0.635   2.521   4.030 -0.0953 -0.0701 -0.3352
  726TIP3    H123593   0.575   2.474   3.970  1.8863 -2.2499 -0.7775
  726TIP3    H223594   0.717   2.526   3.981  0.2511  2.5475  0.3888
  727TIP3   OH223595   4.016   0.984   0.941 -0.7528  0.0289  0.0841
  727TIP3    H123596   3.941   0.931   0.913 -1.1129  0.4909  0.1505
  727TIP3    H223597   4.083   0.969   0.874 -0.4929 -1.2488  0.5939
  728TIP3   OH223598   1.808   2.810   0.490  0.1894 -0.6006 -0.0151
  728TIP3    H123599   1.777   2.876   0.553  0.6710  0.5020 -0.9003
  728TIP3    H223600   1.869   2.857   0.434  0.3169 -1.7400 -0.8702
  729TIP3   OH223601   3.190   3.109  11.987  0.0019 -0.1844  0.4340
  729TIP3    H123602   3.183   3.039  11.922  0.5897  0.0226  0.1340
  729TIP3    H223603   3.198   3.064  12.071 -1.3968 -0.4471  0.4471
  730TIP3   OH223604   5.723   0.662   4.555  0.3617 -0.3334  0.0103
  730TIP3    H123605   5.767   0.746   4.545  0.6606 -0.7280 -2.8131
  730TIP3    H223606   5.667   0.654   4.478 -1.0375 -1.9740  1.0984
  731TIP3   OH223607   4.651   3.926  15.380 -0.0911  0.2788  0.5462
  731TIP3    H123608   4.578   3.976  15.344  0.0370  0.3264  0.3540
  731TIP3    H223609   4.708   3.992  15.418 -0.8912  0.1425  2.0672
  732TIP3   OH223610   6.324   4.411   4.760  0.4706 -0.3032  0.4142
  732TIP3    H123611   6.355   4.499   4.779  1.9681 -0.7436  0.1565
  732TIP3    H223612   6.404   4.361   4.741 -0.3206 -1.7729  0.8099
  733TIP3   OH223613   0.276   2.975   4.497  0.6369 -0.1360 -0.3319
  733TIP3    H123614   0.336   2.915   4.453  2.7024  1.6170 -0.0846
  733TIP3    H223615   0.259   2.934   4.582 -0.2395 -1.6469 -1.1863
  734TIP3   OH223616   2.264   2.889  12.158 -0.3346  0.2207  0.2137
  734TIP3    H123617   2.347   2.878  12.112 -1.2537 -1.4131 -1.1882
  734TIP3    H223618   2.259   2.814  12.217 -0.8792  0.1914  0.1386
  735TIP3   OH223619   5.419   6.047   5.437 -0.3553 -0.0665  0.0415
  735TIP3    H123620   5.502   6.018   5.474 -0.3739  0.5576  0.5949
  735TIP3    H223621   5.432   6.044   5.342  0.7796  1.3424  0.1147
  736TIP3   OH223622   4.167   2.557  14.559 -0.3848  0.0243 -0.5702
  736TIP3    H123623   4.124   2.480  14.522  0.3277 -0.6685 -0.0111
  736TIP3    H223624   4.096   2.611  14.592 -0.8606 -1.2872  0.7107
  737TIP3   OH223625   3.956   3.834   0.783 -0.1841 -0.1924  0.7128
  737TIP3    H123626   3.926   3.744   0.796 -1.2242  0.0422  0.0775
  737TIP3    H223627   4.049   3.826   0.764  0.0277 -1.0162  1.9636
  738TIP3   OH223628   3.297   0.205  11.478  0.1494  0.1734 -0.5281
  738TIP3    H123629   3.280   0.283  11.425 -1.3391  0.1220 -0.1559
  738TIP3    H223630   3.393   0.198  11.480  0.3492  2.2770 -0.1561
  739TIP3   OH223631   6.602   2.537   4.893 -0.1370  0.1006  0.4672
  739TIP3    H123632   6.594   2.617   4.841  0.4411  0.2014  0.5315
  739TIP3    H223633   6.618   2.567   4.982 -0.4519 -0.0809  0.5857
  740TIP3   OH223634   3.144   4.486  16.729  0.8747 -0.1027 -0.0814
  740TIP3    H123635   3.125   4.400  16.692 -0.6262  0.4534 -0.6840
  740TIP3    H223636   3.240   4.491  16.729  0.9780 -1.0977 -1.6456
  741TIP3   OH223637   6.395   1.362  16.613  0.1430 -0.5068 -0.3777
  741TIP3    H123638   6.413   1.455  16.629  1.8301 -0.5274 -1.9275
  741TIP3    H223639   6.313   1.361  16.565 -1.5437 -0.0735  2.2686
  742TIP3   OH223640   0.367   1.495  14.290 -0.3779 -0.3674  0.2475
  742TIP3    H123641   0.386   1.562  14.355 -0.0129 -1.8974  1.7757
  742TIP3    H223642   0.300   1.535  14.234 -0.6621  1.0236  1.5071
  743TIP3   OH223643   5.435   5.461  13.323  0.3175 -0.0589  0.0731
  743TIP3    H123644   5.530   5.452  13.317  0.5480 -4.2865  4.0545
  743TIP3    H223645   5.421   5.526  13.391  0.4472 -0.3660  0.3964
  744TIP3   OH223646   3.076   1.223  16.596  0.0841 -0.0618 -0.0730
  744TIP3    H123647   3.123   1.169  16.532  0.1938  0.2221 -0.2291
  744TIP3    H223648   2.983   1.208  16.576  0.1221  0.7587 -0.9097
  745TIP3   OH223649   6.083   3.137  11.508 -0.2153  0.6803  0.4410
  745TIP3    H123650   6.057   3.091  11.428  0.2440  0.5758  0.3489
  745TIP3    H223651   6.143   3.077  11.552 -0.2346  0.8626  0.7182
  746TIP3   OH223652   4.197   3.931   4.471 -0.2121 -0.8518 -0.1533
  746TIP3    H123653   4.112   3.937   4.515 -0.0582  0.2410  0.0128
  746TIP3    H223654   4.247   4.005   4.505  0.8226 -1.4960 -0.2403
  747TIP3   OH223655   1.328   6.063   5.280 -0.6608 -0.1984 -0.4500
  747TIP3    H123656   1.363   6.088   5.194 -0.1105  0.2452 -0.1027
  747TIP3    H223657   1.234   6.058   5.267 -0.9969  3.3894 -0.2303
  748TIP3   OH223658   4.509   3.110   5.776  0.3398  0.0419 -0.5142
  748TIP3    H123659   4.489   3.198   5.808  0.0965 -0.3000  0.2908
  748TIP3    H223660   4.538   3.124   5.685  1.8190  1.1003  0.0765
  749TIP3   OH223661   0.811   4.729  11.291 -0.3933  1.0491  0.3112
  749TIP3    H123662   0.878   4.766  11.349  1.4657 -0.5074 -0.7384
  749TIP3    H223663   0.760   4.804  11.262  1.1878  2.3579  0.7861
  750TIP3   OH223664   4.210   0.945   1.902 -0.0492  0.3568 -0.2820
  750TIP3    H123665   4.182   1.034   1.883 -0.4505  0.0614 -1.1261
  750TIP3    H223666   4.267   0.954   1.978  1.3974  1.5890 -1.4248
  751TIP3   OH223667   1.249   3.736  15.862 -0.1304  0.1147  0.4963
  751TIP3    H123668   1.328   3.788  15.878 -0.5771  0.5885  1.2411
  751TIP3    H223669   1.257   3.661  15.919  0.9398 -1.1581 -1.2213
  752TIP3   OH223670   6.348   4.775   4.310  0.7719 -0.1188  0.3828
  752TIP3    H123671   6.337   4.689   4.350  4.4864 -0.8909  0.1848
  752TIP3    H223672   6.333   4.760   4.216  0.8102 -0.4315  0.4239
  753TIP3   OH223673   2.257   3.812   0.042  0.0651 -0.1580 -0.1231
  753TIP3    H123674   2.288   3.889  -0.007 -1.6418  0.9573  0.4614
  753TIP3    H223675   2.337   3.774   0.078  1.0403  0.8883 -1.0589
  754TIP3   OH223676   4.889   4.177   5.075 -0.1723  0.0217  0.3713
  754TIP3    H123677   4.936   4.230   5.141  1.3165 -0.5618 -0.1802
  754TIP3    H223678   4.951   4.108   5.051  0.2288  1.3914 -3.1726
  755TIP3   OH223679   4.899   5.141   1.276 -0.2520 -0.2258  0.3874
  755TIP3    H123680   4.843   5.164   1.350 -0.5060  1.9010 -0.3920
  755TIP3    H223681   4.850   5.171   1.199  1.3579  0.4637 -0.4068
  756TIP3   OH223682   1.996   2.285   1.703  0.9267  0.3061  0.1313
  756TIP3    H123683   2.007   2.344   1.629  1.4355 -0.1708 -0.1858
  756TIP3    H223684   1.913   2.312   1.743  0.6785  0.6232 -0.5633
  757TIP3   OH223685   1.593   5.387   2.807 -0.4423  0.2538 -0.4576
  757TIP3    H123686   1.545   5.470   2.817 -0.4455  0.2115 -0.1246
  757TIP3    H223687   1.618   5.363   2.896 -0.8011 -0.3185 -0.5138
  758TIP3   OH223688   3.599   6.522  15.381 -0.1158 -0.4743  0.7331
  758TIP3    H123689   3.507   6.550  15.381 -0.3277 -1.1546  0.8343
  758TIP3    H223690   3.648   6.602  15.359 -0.6560  0.1086  1.5622
  759TIP3   OH223691   6.753   2.634  16.450  0.3239  0.0669  0.2936
  759TIP3    H123692   6.667   2.594  16.465 -0.3951  1.9793  1.6972
  759TIP3    H223693   6.735   2.728  16.444  2.3111  0.5025  0.5654
  760TIP3   OH223694   3.947   3.583   5.788  0.0517  0.0264  0.1623
  760TIP3    H123695   3.952   3.675   5.815 -1.8344  0.5015 -0.9371
  760TIP3    H223696   3.858   3.556   5.812 -0.1715 -0.8425 -1.5352
  761TIP3   OH223697   1.026   5.844  16.650  0.1151  0.4682 -0.0600
  761TIP3    H123698   1.089   5.775  16.626  0.4499  0.8346 -0.2490
  761TIP3    H223699   0.956   5.836  16.585  1.3438  1.9003 -1.6767
  762TIP3   OH223700   4.867   3.643   3.137 -0.0521 -0.8973  0.1934
  762TIP3    H123701   4.886   3.725   3.183  0.6628 -1.5474  1.1061
  762TIP3    H223702   4.925   3.644   3.061 -0.9518  0.0042 -0.5133
  763TIP3   OH223703   6.199   4.002  16.174  0.1974 -0.0547  0.3054
  763TIP3    H123704   6.248   3.942  16.118 -1.5349  0.4980 -1.9603
  763TIP3    H223705   6.141   4.049  16.114  1.2126  3.7215  1.9382
  764TIP3   OH223706   4.051   4.514   3.885  0.3017  0.0261  0.0918
  764TIP3    H123707   3.957   4.501   3.871 -0.0395  2.1016  0.2348
  764TIP3    H223708   4.074   4.586   3.827  2.3923 -2.0136 -1.8259
  765TIP3   OH223709   0.274   2.103   1.864  0.4528  0.8477 -0.1627
  765TIP3    H123710   0.305   2.155   1.938  3.0732 -0.2276 -0.3778
  765TIP3    H223711   0.311   2.016   1.879  0.0281  0.2757 -2.1029
  766TIP3   OH223712   4.530   5.378   1.350  0.2301 -0.1239 -0.4574
  766TIP3    H123713   4.498   5.468   1.363  2.3256  0.8691 -1.6652
  766TIP3    H223714   4.488   5.349   1.269  2.4715  1.3330 -2.2792
  767TIP3   OH223715   1.011   6.137  17.095 -0.4060 -0.6956 -0.3228
  767TIP3    H123716   0.919   6.114  17.096 -0.5827 -0.0119 -0.3302
  767TIP3    H223717   1.055   6.063  17.138 -0.9749 -0.9143 -0.1066
  768TIP3   OH223718   3.111   3.593   0.202 -0.2356  0.0565 -0.1657
  768TIP3    H123719   3.112   3.650   0.126 -0.6642 -0.2932 -0.4365
  768TIP3    H223720   3.169   3.521   0.179  0.1943  0.3013  0.1217
  769TIP3   OH223721   6.391   2.949  14.984 -0.4210 -0.9013 -0.4851
  769TIP3    H123722   6.377   2.988  14.897  0.4845 -1.6588 -0.9867
  769TIP3    H223723   6.474   2.985  15.014 -0.4979 -1.0067 -0.1395
  770TIP3   OH223724   6.779   0.667  11.440 -0.0911  0.0230 -0.2044
  770TIP3    H123725   6.852   0.619  11.402 -0.0780 -0.0129 -0.1333
  770TIP3    H223726   6.816   0.709  11.518 -0.2325 -0.2838  0.0311
  771TIP3   OH223727   4.446   2.695   0.317  0.3507 -0.2294 -0.4986
  771TIP3    H123728   4.439   2.637   0.393 -3.6179 -0.3255 -0.7026
  771TIP3    H223729   4.444   2.783   0.354 -3.4654 -0.2176 -0.2848
  772TIP3   OH223730   0.695   0.731   0.164 -0.3323 -0.1491  0.6393
  772TIP3    H123731   0.614   0.781   0.156 -1.3179 -1.7110  0.5260
  772TIP3    H223732   0.683   0.678   0.242  1.6700  1.4473  2.1467
  773TIP3   OH223733   3.308   6.530   6.639 -0.1220  0.6271  0.1504
  773TIP3    H123734   3.393   6.548   6.597 -0.6037  0.8783 -0.7381
  773TIP3    H223735   3.246   6.525   6.566 -0.1819 -4.0502  0.2010
  774TIP3   OH223736   6.352   3.949   4.349 -0.8269 -0.3139  0.5798
  774TIP3    H123737   6.271   3.985   4.314  0.2431  0.0654 -1.6823
  774TIP3    H223738   6.396   4.023   4.391 -1.1439 -0.2793  0.8541
  775TIP3   OH223739   4.293   3.961  15.810  0.2731 -0.1195 -0.3185
  775TIP3    H123740   4.212   3.932  15.852 -0.2464  0.9969 -0.5244
  775TIP3    H223741   4.329   3.882  15.770 -0.4707 -0.7140  0.1651
  776TIP3   OH223742   2.196   5.903  14.595  0.0486  0.3518 -0.0607
  776TIP3    H123743   2.222   5.814  14.573  0.0470 -0.0304  1.4100
  776TIP3    H223744   2.255   5.959  14.545  0.8683 -0.4781 -0.0332
  777TIP3   OH223745   1.625   6.294   3.519 -0.0797 -0.3075  0.4997
  777TIP3    H123746   1.542   6.247   3.511  0.6275 -1.4691 -0.5094
  777TIP3    H223747   1.656   6.304   3.429  1.4319 -1.0170  0.8928
  778TIP3   OH223748   0.430   3.010  15.507  0.1187  0.0750  0.0178
  778TIP3    H123749   0.476   2.973  15.583  0.3654  1.6509  0.6857
  778TIP3    H223750   0.492   3.073  15.470  0.6471 -1.7740 -2.5204
  779TIP3   OH223751   3.000   2.748   1.550  0.8836 -0.1116  0.4954
  779TIP3    H123752   3.094   2.732   1.556  1.1275  0.7700 -0.6261
  779TIP3    H223753   2.961   2.679   1.603  2.1779 -0.1664  1.4296
  780TIP3   OH223754   4.887   2.999   0.768 -0.1256 -0.0495 -0.3261
  780TIP3    H123755   4.956   2.946   0.806 -0.6008  0.1035  0.7877
  780TIP3    H223756   4.851   2.945   0.697  0.7535 -0.3531 -0.5489
  781TIP3   OH223757   5.973   2.981   5.701 -0.2156 -0.0606 -0.5357
  781TIP3    H123758   5.922   2.945   5.628  0.1973 -2.3798  0.2222
  781TIP3    H223759   5.909   3.025   5.756 -0.9963 -0.6957 -0.9110
  782TIP3   OH223760   5.122   2.975  15.921  0.2344  0.1179  0.5937
  782TIP3    H123761   5.081   3.008  16.001  0.1815  0.4736  0.4225
  782TIP3    H223762   5.186   2.911  15.951 -0.4572 -0.4676  0.8714
  783TIP3   OH223763   4.063   4.413   5.343  0.0267  0.3695 -0.3373
  783TIP3    H123764   4.024   4.493   5.308  1.4942  1.2778  0.0685
  783TIP3    H223765   4.130   4.389   5.279  0.2631 -0.0028  0.0462
  784TIP3   OH223766   4.379   4.497  14.580  0.1288 -0.7615  0.4445
  784TIP3    H123767   4.408   4.482  14.490  1.4502 -1.2755  0.9330
  784TIP3    H223768   4.341   4.414  14.607  0.6719 -0.9325  0.6937
  785TIP3   OH223769   1.527   2.796  12.164 -0.2940 -0.4910 -0.9460
  785TIP3    H123770   1.552   2.811  12.073  1.5743 -1.9119 -0.7262
  785TIP3    H223771   1.585   2.853  12.214 -1.7074  0.7195 -0.6295
  786TIP3   OH223772   3.162   1.223  12.178 -0.0728 -0.3743 -0.3677
  786TIP3    H123773   3.152   1.170  12.257  1.9124 -0.2683  0.0096
  786TIP3    H223774   3.140   1.312  12.205  1.9425 -0.0759  0.5114
  787TIP3   OH223775   3.175   6.078  15.328 -0.4241 -0.2444  0.0329
  787TIP3    H123776   3.209   6.001  15.283 -0.7931  0.1988 -1.0527
  787TIP3    H223777   3.198   6.065  15.420  2.8631  0.0972 -0.6043
  788TIP3   OH223778   1.682   0.541  13.685  0.3027 -0.0328  0.0731
  788TIP3    H123779   1.766   0.502  13.659 -0.0500 -0.2932 -0.7149
  788TIP3    H223780   1.626   0.466  13.705 -0.0399  0.1021 -0.3608
  789TIP3   OH223781   2.776   2.640  12.230  0.3341 -0.0661 -0.3178
  789TIP3    H123782   2.841   2.571  12.223 -0.0812 -0.4388 -0.5328
  789TIP3    H223783   2.787   2.692  12.151  0.6749  0.1481 -0.1359
  790TIP3   OH223784   4.168   0.138   2.362  0.3051  0.5033 -0.5454
  790TIP3    H123785   4.200   0.203   2.424 -1.0400  4.0388 -3.2351
  790TIP3    H223786   4.116   0.077   2.415  2.1585  1.1300  2.2076
  791TIP3   OH223787   0.555   4.948   0.511  0.2169 -0.6623 -0.4597
  791TIP3    H123788   0.636   4.923   0.468 -0.0404 -1.4196 -0.5085
  791TIP3    H223789   0.491   4.883   0.482 -0.4044 -0.0824 -0.4112
  792TIP3   OH223790   2.958   5.841   3.824  0.2635  0.1566 -0.1175
  792TIP3    H123791   2.980   5.869   3.735 -0.0748 -0.5135 -0.4181
  792TIP3    H223792   2.863   5.847   3.828  0.2768  0.1576  0.1924
  793TIP3   OH223793   1.811   6.557   1.879  0.0019 -0.4125  0.1504
  793TIP3    H123794   1.836   6.499   1.951 -0.7131 -2.0774 -0.8871
  793TIP3    H223795   1.833   6.645   1.910  1.4449 -1.2501  1.6407
  794TIP3   OH223796   5.338   1.360   3.369  0.2016 -0.2696 -0.2506
  794TIP3    H123797   5.250   1.383   3.339 -0.6496 -2.0639  0.6763
  794TIP3    H223798   5.337   1.264   3.375  3.0201 -0.6038 -2.5410
  795TIP3   OH223799   5.996   2.795  12.167  0.1727 -0.0171 -0.0737
  795TIP3    H123800   5.915   2.836  12.137 -1.0296 -2.6770 -0.7557
  795TIP3    H223801   6.055   2.800  12.092 -0.1621 -0.0455 -0.3414
  796TIP3   OH223802   5.207   4.279  12.149 -0.2987 -0.5951  0.0922
  796TIP3    H123803   5.147   4.211  12.179 -0.6420 -1.4954 -2.4780
  796TIP3    H223804   5.226   4.257  12.058  0.2956  2.2359 -0.5639
  797TIP3   OH223805   5.526   0.793   1.813  0.0703  1.2503 -0.0695
  797TIP3    H123806   5.481   0.763   1.892 -1.2788  0.3495 -1.1228
  797TIP3    H223807   5.563   0.877   1.837 -0.3333  1.0147  1.5120
  798TIP3   OH223808   0.667   4.745  14.254 -0.0322 -0.0558  0.3252
  798TIP3    H123809   0.584   4.698  14.247 -0.3069  0.3567  0.7231
  798TIP3    H223810   0.732   4.687  14.214 -0.5975 -0.1669 -0.4439
  799TIP3   OH223811   1.358   2.771   4.543  0.0262  0.2324  0.0417
  799TIP3    H123812   1.291   2.736   4.485 -0.4629  1.9008 -0.4451
  799TIP3    H223813   1.319   2.851   4.580  1.2385  0.5113  0.7809
  800TIP3   OH223814   6.417   1.748  11.835 -0.3357 -0.3032 -0.6274
  800TIP3    H123815   6.446   1.826  11.883 -0.5177 -0.5593 -0.0840
  800TIP3    H223816   6.358   1.782  11.768 -1.6704 -0.0928  0.6089
  801TIP3   OH223817   4.965   1.518  14.238  0.2225  0.1331 -0.0926
  801TIP3    H123818   4.880   1.527  14.195 -0.2607 -1.5906  0.4515
  801TIP3    H223819   5.027   1.556  14.175 -0.6293 -0.9854 -1.6921
  802TIP3   OH223820   0.669   5.317   1.621 -0.6569 -0.5064  0.0454
  802TIP3    H123821   0.616   5.351   1.549  1.7353  0.0004 -1.5644
  802TIP3    H223822   0.668   5.222   1.610  0.4895 -0.3872 -1.3008
  803TIP3   OH223823   6.382   0.114   1.155 -0.0641  0.3746 -0.3342
  803TIP3    H123824   6.335   0.098   1.238  0.3159 -0.2941 -0.2392
  803TIP3    H223825   6.439   0.038   1.145 -0.6385  0.0855 -1.5938
  804TIP3   OH223826   6.094   0.404   4.155  0.6296 -0.3309  0.0642
  804TIP3    H123827   6.125   0.476   4.100  0.0757  1.1743  1.6322
  804TIP3    H223828   6.052   0.343   4.093  1.1157  0.6688 -1.3113
  805TIP3   OH223829   1.969   4.532  12.464 -0.7089 -0.9519  0.0768
  805TIP3    H123830   2.025   4.592  12.513  0.0823 -1.0781 -0.6446
  805TIP3    H223831   1.929   4.586  12.396 -1.4115 -0.8790  0.5449
  806TIP3   OH223832   2.446   2.419   1.368 -0.8388  0.3172  0.1977
  806TIP3    H123833   2.417   2.349   1.425 -1.4556 -0.0073 -0.5018
  806TIP3    H223834   2.483   2.375   1.292 -1.5940  0.7408 -0.4284
  807TIP3   OH223835   3.943   4.581   2.726 -0.5700 -0.2060  0.0335
  807TIP3    H123836   3.849   4.598   2.718 -0.6251 -0.0748  0.8663
  807TIP3    H223837   3.973   4.567   2.636 -1.3784 -0.2109 -0.2399
  808TIP3   OH223838   3.169   2.270  13.514  0.5889  0.4899 -0.4131
  808TIP3    H123839   3.246   2.324  13.495  0.7666  0.3103 -0.2055
  808TIP3    H223840   3.125   2.260  13.430  1.2497 -0.1242 -0.6858
  809TIP3   OH223841   2.083   2.497  15.973  0.4386  0.1248 -0.0894
  809TIP3    H123842   2.064   2.469  15.883  2.1375 -1.7306  0.0414
  809TIP3    H223843   1.997   2.518  16.011 -0.3802  0.2040 -1.9065
  810TIP3   OH223844   4.505   4.963   1.570  0.0557 -0.4376 -0.0624
  810TIP3    H123845   4.431   4.908   1.594 -0.4849 -0.4511 -1.6468
  810TIP3    H223846   4.581   4.904   1.573 -0.4865 -1.2808 -1.5305
  811TIP3   OH223847   3.952   0.782   4.516 -0.0754 -0.1652  0.5000
  811TIP3    H123848   4.036   0.820   4.543 -0.2529 -0.4243  1.4319
  811TIP3    H223849   3.967   0.688   4.516 -0.4925 -0.2361  1.1121
  812TIP3   OH223850   0.468   5.176  13.401  0.1720 -0.2679  0.0342
  812TIP3    H123851   0.558   5.158  13.370 -0.0094  1.2375 -1.5634
  812TIP3    H223852   0.458   5.120  13.478  2.2150 -1.0525 -0.1790
  813TIP3   OH223853   2.875   4.670  13.569  0.3006 -0.2200 -0.3163
  813TIP3    H123854   2.874   4.646  13.662 -0.3408 -1.2239 -0.5640
  813TIP3    H223855   2.911   4.759  13.567  0.7770 -0.3744  0.8417
  814TIP3   OH223856   5.682   1.399   4.238 -0.1110  0.5416 -0.6018
  814TIP3    H123857   5.735   1.400   4.158  1.2779  0.3941  0.2874
  814TIP3    H223858   5.591   1.400   4.207  0.4040  0.8346 -2.1663
  815TIP3   OH223859   2.844   5.471  13.465 -0.8162 -0.1143 -0.1293
  815TIP3    H123860   2.824   5.385  13.427 -0.7076 -1.1086  1.9302
  815TIP3    H223861   2.939   5.473  13.469 -0.8388 -0.4928  1.0221
  816TIP3   OH223862   1.544   5.038  11.869  0.5364  0.0974 -0.1283
  816TIP3    H123863   1.450   5.033  11.883  0.6984  0.7440  1.2698
  816TIP3    H223864   1.580   5.075  11.949  2.2384 -2.2043  0.3109
  817TIP3   OH223865   4.058   2.444   4.934 -0.1729 -0.2637  0.5763
  817TIP3    H123866   4.112   2.505   4.983 -0.2015 -0.7816  1.2693
  817TIP3    H223867   4.014   2.498   4.868 -1.0252  0.6623  1.8437
  818TIP3   OH223868   1.149   0.392  13.801  0.7504 -0.4154 -0.1601
  818TIP3    H123869   1.071   0.353  13.763 -0.3109  0.7159  0.7487
  818TIP3    H223870   1.141   0.485  13.781  1.3257 -0.1396  0.8177
  819TIP3   OH223871   4.628   0.923   0.696 -0.2801 -0.4511  0.3081
  819TIP3    H123872   4.587   0.957   0.617 -0.5471  2.8078  1.6687
  819TIP3    H223873   4.555   0.910   0.757  0.1322 -0.3351  0.8369
  820TIP3   OH223874   0.335   1.065   3.704 -0.2011 -0.4102  0.2245
  820TIP3    H123875   0.249   1.105   3.697 -0.5718 -0.8659  1.7101
  820TIP3    H223876   0.395   1.130   3.667 -1.0548  0.4049  0.2398
  821TIP3   OH223877   2.623   4.792   5.283  0.2812  0.1145 -0.3317
  821TIP3    H123878   2.657   4.796   5.373 -0.9082 -1.7425  0.2476
  821TIP3    H223879   2.650   4.876   5.244  1.1985  0.7860  1.6016
  822TIP3   OH223880   4.573   5.930   5.389  0.6510 -0.1150 -0.0796
  822TIP3    H123881   4.529   5.963   5.467 -0.8589  1.5782 -1.5431
  822TIP3    H223882   4.643   5.993   5.373  0.1604  0.2762 -0.7580
  823TIP3   OH223883   1.578   4.667  13.908  0.0860 -0.2997  0.0240
  823TIP3    H123884   1.560   4.761  13.905  0.6533 -0.1913 -0.2575
  823TIP3    H223885   1.495   4.625  13.888  0.5700  0.1934 -3.6660
  824TIP3   OH223886   6.571   5.795   4.921  0.1121  0.0407  0.4231
  824TIP3    H123887   6.634   5.850   4.874  1.9109 -0.9726  1.5269
  824TIP3    H223888   6.520   5.753   4.851  0.9517  0.5569 -0.5293
  825TIP3   OH223889   4.178   3.933   3.912 -0.1142  0.2519  0.0552
  825TIP3    H123890   4.084   3.914   3.913 -0.4734  1.8431  0.8329
  825TIP3    H223891   4.207   3.914   4.001  0.6548 -1.6559 -0.5655
  826TIP3   OH223892   5.687   6.456   5.883 -0.2078  0.8544  0.4593
  826TIP3    H123893   5.594   6.439   5.868 -0.3191  1.5871  0.2619
  826TIP3    H223894   5.702   6.542   5.844  0.8284  0.2385 -0.5970
  827TIP3   OH223895   4.976   1.307   5.142  0.1322  0.3072  0.2265
  827TIP3    H123896   4.935   1.232   5.099 -0.7237  0.9652 -0.1561
  827TIP3    H223897   5.038   1.269   5.205  0.0714 -0.6975 -0.3029
  828TIP3   OH223898   6.530   6.468   4.752  0.8241 -0.2926 -0.4977
  828TIP3    H123899   6.441   6.478   4.719  1.2362 -0.6342 -1.7718
  828TIP3    H223900   6.526   6.392   4.810 -0.4323  1.7512  2.3163
  829TIP3   OH223901   0.557   4.954  16.077  0.0950 -0.1375 -0.6362
  829TIP3    H123902   0.562   4.973  15.983  0.0126 -0.5488 -0.7250
  829TIP3    H223903   0.644   4.925  16.101  0.0603 -0.2340 -0.6278
  830TIP3   OH223904   4.579   4.177  11.854 -0.1270  0.3921  0.1839
  830TIP3    H123905   4.493   4.200  11.888 -0.0174  0.3751  0.4777
  830TIP3    H223906   4.633   4.255  11.872  0.0065  0.2691  0.3244
  831TIP3   OH223907   4.892   5.702   2.883  0.0077  0.2586 -0.1488
  831TIP3    H123908   4.884   5.789   2.844 -0.4386 -0.1529 -1.0070
  831TIP3    H223909   4.802   5.679   2.909 -0.0827 -0.4064 -0.9843
  832TIP3   OH223910   2.058   1.846  16.071  0.0664 -0.2797  0.7121
  832TIP3    H123911   1.974   1.814  16.105 -1.6047  3.2188  0.3471
  832TIP3    H223912   2.089   1.907  16.138  0.8018  0.7017 -0.4777
  833TIP3   OH223913   0.897   6.574   5.169  0.2856  0.6677  0.6446
  833TIP3    H123914   0.823   6.617   5.212 -0.6567 -1.3544  1.1667
  833TIP3    H223915   0.877   6.580   5.076 -1.1571 -0.7601  0.8041
  834TIP3   OH223916   0.644   0.339   1.983 -0.0396  0.4293  0.4582
  834TIP3    H123917   0.648   0.407   1.916 -0.2862 -0.4252 -0.4514
  834TIP3    H223918   0.726   0.290   1.972 -1.3217 -1.5265 -1.2513
  835TIP3   OH223919   2.935   0.869  15.381 -0.4402  0.2217  0.3023
  835TIP3    H123920   2.971   0.941  15.330 -0.2735 -0.3193 -0.3632
  835TIP3    H223921   2.841   0.886  15.384 -0.6249 -0.3695 -1.2497
  836TIP3   OH223922   2.605   1.925   4.933 -0.1722  0.2351  0.0189
  836TIP3    H123923   2.666   1.870   4.884  0.2395  0.6499  0.0622
  836TIP3    H223924   2.644   2.012   4.930  0.8991 -0.0468  2.7261
  837TIP3   OH223925   3.929   3.460   4.954 -0.0688 -0.5155  0.6108
  837TIP3    H123926   3.877   3.379   4.961  0.5138 -0.8889  0.7197
  837TIP3    H223927   4.002   3.447   5.015  0.3770 -0.1726  0.1595
  838TIP3   OH223928   2.275   6.314  14.153  0.5564 -0.1264  0.1173
  838TIP3    H123929   2.329   6.318  14.074  1.2405 -0.4647  0.5595
  838TIP3    H223930   2.319   6.372  14.215  0.6374 -0.7161  0.6167
  839TIP3   OH223931   2.128   0.167   6.196  0.0398  0.0997 -0.3769
  839TIP3    H123932   2.099   0.210   6.276 -3.6028  0.5450 -1.7052
  839TIP3    H223933   2.204   0.115   6.222  0.2741  1.8149  2.8407
  840TIP3   OH223934   4.611   2.782  14.145  0.1842 -0.3167 -0.5168
  840TIP3    H123935   4.677   2.713  14.151  0.6324 -0.2277 -3.2144
  840TIP3    H223936   4.530   2.736  14.121  0.4046  0.0244 -1.9710
  841TIP3   OH223937   6.243   6.636   5.152  0.0152  0.1567 -0.0181
  841TIP3    H123938   6.244   6.690   5.073 -0.5115  0.1862 -0.0057
  841TIP3    H223939   6.314   6.671   5.206 -0.4839  0.9901  0.0998
  842TIP3   OH223940   6.034   3.654   2.257 -0.0650  0.4992 -0.3155
  842TIP3    H123941   6.062   3.568   2.228  2.2738  1.0180  0.2361
  842TIP3    H223942   6.016   3.644   2.350  0.9803  0.7552 -0.0755
  843TIP3   OH223943   1.988   3.265   0.137  0.5335 -1.0230  0.3143
  843TIP3    H123944   1.905   3.237   0.098  0.9488 -0.7548 -0.7898
  843TIP3    H223945   2.055   3.217   0.089  1.0518 -0.9081  0.9049
  844TIP3   OH223946   6.021   2.993   2.217 -0.4482  0.4329  0.0160
  844TIP3    H123947   6.012   2.910   2.263 -0.2092 -0.1985 -1.0434
  844TIP3    H223948   5.932   3.028   2.212 -1.0738 -1.1922 -2.0712
  845TIP3   OH223949   4.821   1.379  16.681  0.5172 -0.2299  0.6366
  845TIP3    H123950   4.789   1.319  16.614  1.0193 -1.2397  1.2897
  845TIP3    H223951   4.894   1.425  16.639 -1.2617  1.6617 -0.6634
  846TIP3   OH223952   3.324   6.424  11.845 -0.0500  0.7729  0.3957
  846TIP3    H123953   3.371   6.498  11.807 -0.2780  0.3473 -0.7582
  846TIP3    H223954   3.271   6.390  11.773  1.4318 -1.6360  0.3456
  847TIP3   OH223955   5.242   3.407   1.367  0.3511 -0.1649 -0.4498
  847TIP3    H123956   5.160   3.441   1.333 -0.4411 -0.3323  1.1809
  847TIP3    H223957   5.307   3.475   1.347 -0.1522 -0.0408 -1.7575
  848TIP3   OH223958   6.066   4.822  12.226  0.0004  0.6935  0.0426
  848TIP3    H123959   6.000   4.880  12.189 -0.5541 -0.2882 -0.5380
  848TIP3    H223960   6.148   4.848  12.184 -0.1683  1.3074  0.0854
  849TIP3   OH223961   6.713   5.501  17.021 -0.3874  0.6047 -0.2405
  849TIP3    H123962   6.755   5.481  17.104 -1.7956  3.3800  1.2842
  849TIP3    H223963   6.643   5.437  17.012 -0.0857  0.1563  0.5894
  850TIP3   OH223964   5.603   2.245  13.399 -0.1306  0.5787 -0.0184
  850TIP3    H123965   5.558   2.201  13.472 -0.7260  0.9886 -0.1336
  850TIP3    H223966   5.533   2.275  13.342  0.3350  0.3479 -0.7175
  851TIP3   OH223967   5.173   5.775   1.403 -0.5395  0.4930  0.4413
  851TIP3    H123968   5.194   5.868   1.398  0.5501  0.3095  1.3685
  851TIP3    H223969   5.085   5.768   1.364 -0.5206  1.8546  0.1233
  852TIP3   OH223970   4.221   0.256   4.003 -0.6426  0.6090  0.6598
  852TIP3    H123971   4.301   0.308   3.997  0.8450 -1.6711 -0.4719
  852TIP3    H223972   4.183   0.261   3.915 -1.0241  0.5462  0.8188
  853TIP3   OH223973   1.026   4.886  15.157 -0.1963 -0.4959  0.6584
  853TIP3    H123974   1.093   4.821  15.135  0.3810  0.4216 -0.4228
  853TIP3    H223975   1.070   4.945  15.219  1.2983  2.0767 -2.5174
  854TIP3   OH223976   0.060   1.805  12.928 -0.4517  0.1594  0.1027
  854TIP3    H123977  -0.031   1.786  12.908  0.3330 -1.1936 -2.6887
  854TIP3    H223978   0.074   1.894  12.894 -0.4507 -0.0554 -0.4531
  855TIP3   OH223979   5.229   2.327  12.068  0.0763  0.7765  0.0523
  855TIP3    H123980   5.154   2.353  12.014  0.1564  2.8702  0.8649
  855TIP3    H223981   5.222   2.381  12.146  1.5553 -0.1609  0.8683
  856TIP3   OH223982   3.645   2.089   0.648  0.2203  0.1306  0.1882
  856TIP3    H123983   3.616   2.163   0.701  2.4562  0.6290  0.7837
  856TIP3    H223984   3.569   2.031   0.646 -1.8506  2.6464 -0.8125
  857TIP3   OH223985   0.331   6.239   4.174 -0.3736  0.5619 -0.2901
  857TIP3    H123986   0.401   6.304   4.183 -0.9990  1.3561 -0.9658
  857TIP3    H223987   0.270   6.259   4.245  0.1964 -0.3008  0.4642
  858TIP3   OH223988   0.359   5.342   2.643 -0.2712  0.5617  0.0333
  858TIP3    H123989   0.394   5.393   2.716  0.6615 -1.4025  1.0228
  858TIP3    H223990   0.436   5.310   2.597 -0.7823 -1.0475  0.2488
  859TIP3   OH223991   0.741   6.349  15.780 -0.5532 -0.1494  0.4137
  859TIP3    H123992   0.760   6.443  15.783 -1.4927  0.0303  1.1284
  859TIP3    H223993   0.809   6.313  15.722  1.5714  0.5288  2.3194
  860TIP3   OH223994   4.901   0.559  15.597  0.2550 -0.6989 -0.0848
  860TIP3    H123995   4.921   0.574  15.505  1.6750  1.2999  0.4833
  860TIP3    H223996   4.928   0.468  15.613  0.8888 -0.7688 -1.4071
  861TIP3   OH223997   1.499   1.125  16.407  0.0381  0.0458  0.0624
  861TIP3    H123998   1.418   1.083  16.436  0.9057  0.0065  2.5823
  861TIP3    H223999   1.472   1.173  16.328 -2.4534  0.0399  0.7963
  862TIP3   OH224000   2.087   0.899   4.121  0.2906 -0.7562  0.0676
  862TIP3    H124001   2.151   0.932   4.058 -0.0970  3.1946  1.5004
  862TIP3    H224002   2.002   0.910   4.078  0.1866 -0.3625  0.3717
  863TIP3   OH224003   1.948   3.082   4.991 -0.4645  0.2332  0.0395
  863TIP3    H124004   1.937   2.992   4.963  1.7271 -0.0123 -0.1871
  863TIP3    H224005   1.944   3.079   5.086  0.0959 -0.1968  0.0538
  864TIP3   OH224006   6.070   0.882   2.921  0.0852  0.0540 -0.6560
  864TIP3    H124007   6.122   0.844   2.850  1.2744  0.0426  0.1827
  864TIP3    H224008   6.061   0.812   2.985  0.3982  0.5154 -0.0933
  865TIP3   OH224009   5.038   4.066   2.691  0.0611 -0.3741 -0.2794
  865TIP3    H124010   5.073   4.153   2.670 -1.0219 -0.0312 -0.7059
  865TIP3    H224011   5.024   4.024   2.606 -0.1530 -0.6741 -0.0989
  866TIP3   OH224012   5.318   1.255  10.739 -0.1807 -0.6171 -0.5487
  866TIP3    H124013   5.381   1.189  10.709  0.4638 -0.5418  0.5545
  866TIP3    H224014   5.332   1.330  10.681  0.4520 -0.7609 -0.5963
  867TIP3   OH224015   2.711   6.503   0.439 -0.4730  0.6223 -0.5926
  867TIP3    H124016   2.686   6.418   0.402 -1.7425 -0.9603  3.3571
  867TIP3    H224017   2.805   6.510   0.422 -0.6783 -0.6277 -2.5703
  868TIP3   OH224018   2.505   0.261   1.552 -0.0636 -0.0603 -0.1751
  868TIP3    H124019   2.576   0.224   1.604 -1.2241 -1.7289  0.3187
  868TIP3    H224020   2.432   0.201   1.565 -1.6405  1.6859 -0.5308
  869TIP3   OH224021   2.873   1.306   4.960 -0.0303  0.3236  0.2432
  869TIP3    H124022   2.866   1.401   4.973 -0.1278  0.4666 -0.7490
  869TIP3    H224023   2.947   1.296   4.899 -0.2814 -0.2044  0.0198
  870TIP3   OH224024   3.705   0.685   5.104  0.0726  0.0979 -0.5915
  870TIP3    H124025   3.762   0.751   5.066 -0.1058  0.0336 -0.9717
  870TIP3    H224026   3.624   0.731   5.125 -0.4268 -0.1949 -1.7793
  871TIP3   OH224027   1.601   0.033  11.367 -0.5453 -0.4340 -0.0763
  871TIP3    H124028   1.521   0.072  11.403 -1.1690 -1.6346 -0.1224
  871TIP3    H224029   1.600   0.058  11.275  0.7901  2.2145  0.5070
  872TIP3   OH224030   0.085   1.671   1.069  0.4772  0.2676  0.1358
  872TIP3    H124031   0.086   1.688   0.975 -1.5438 -0.6637 -0.1060
  872TIP3    H224032   0.120   1.751   1.108  1.4074  0.6551 -1.3766
  873TIP3   OH224033   0.800   0.954   6.503 -0.1509 -0.2629  0.1589
  873TIP3    H124034   0.725   0.957   6.562  0.3123  0.5913  0.7100
  873TIP3    H224035   0.808   0.861   6.480 -0.4360 -0.5889  1.3148
  874TIP3   OH224036   4.606   4.701   4.141 -0.2470 -0.3809 -0.5116
  874TIP3    H124037   4.640   4.711   4.230 -0.1465 -2.5583 -0.2367
  874TIP3    H224038   4.511   4.711   4.150 -0.3320 -1.5035  0.0444
  875TIP3   OH224039   5.276   0.868   2.780 -0.1179 -0.5673  0.9852
  875TIP3    H124040   5.205   0.932   2.790 -0.4170 -1.2176  4.5442
  875TIP3    H224041   5.294   0.866   2.686 -2.0568  2.5631  0.4020
  876TIP3   OH224042   1.456   2.156  13.999  0.2787 -0.0439  0.8053
  876TIP3    H124043   1.544   2.122  14.008 -0.1154 -1.1338  0.7108
  876TIP3    H224044   1.441   2.207  14.078  0.5677 -0.8414  1.3823
  877TIP3   OH224045   1.779   4.618  14.101  0.7473 -1.1384 -0.1129
  877TIP3    H124046   1.808   4.709  14.102  0.1925 -0.9592  0.3076
  877TIP3    H224047   1.733   4.609  14.017 -0.5389 -0.5817  0.5037
  878TIP3   OH224048   5.699   6.013  13.251  0.0749  0.6475  0.0670
  878TIP3    H124049   5.728   5.926  13.277 -0.3676  0.7726  1.0650
  878TIP3    H224050   5.722   6.069  13.326 -0.7764  1.1428 -0.0221
  879TIP3   OH224051   1.716   2.810   3.713  0.2198  0.4040 -0.3847
  879TIP3    H124052   1.735   2.746   3.645  1.4958 -0.8300  1.0493
  879TIP3    H224053   1.739   2.766   3.795 -1.0930  1.8851  0.8525
  880TIP3   OH224054   2.462   6.152   2.827  0.0632 -0.0299  0.1771
  880TIP3    H124055   2.467   6.077   2.888 -0.1880 -0.8883 -0.8221
  880TIP3    H224056   2.488   6.115   2.743  1.2465  1.3507 -0.0834
  881TIP3   OH224057   5.929   3.110   0.219 -0.2289  0.5496 -0.7184
  881TIP3    H124058   5.948   3.074   0.133  0.1321  0.2128 -0.5012
  881TIP3    H224059   6.015   3.135   0.254 -0.1108 -1.3301  0.4346
  882TIP3   OH224060   3.438   1.290   0.156  0.6088  0.1456 -0.2824
  882TIP3    H124061   3.441   1.381   0.126 -0.8836  1.3476  2.7429
  882TIP3    H224062   3.506   1.285   0.224 -2.1374  0.4994  2.7725
  883TIP3   OH224063   6.630   4.027   5.206  0.5797  0.0291  0.3333
  883TIP3    H124064   6.670   3.940   5.200  2.8701  0.9667  0.6822
  883TIP3    H224065   6.691   4.077   5.261 -0.7854  1.8022  0.3156
  884TIP3   OH224066   0.420   4.872  15.526  0.0309  0.4082 -0.3628
  884TIP3    H124067   0.342   4.927  15.536 -0.8461 -0.6863 -1.0844
  884TIP3    H224068   0.491   4.926  15.561 -1.6651 -0.4149  5.4011
  885TIP3   OH224069   5.383   3.268   1.120 -0.2840  0.1896  0.3454
  885TIP3    H124070   5.319   3.338   1.113 -0.6511 -0.3149 -1.7569
  885TIP3    H224071   5.352   3.215   1.194 -2.4779 -0.1951 -0.7802
  886TIP3   OH224072   2.681   3.907  13.030 -0.0623  0.1040 -0.3434
  886TIP3    H124073   2.738   3.984  13.022  0.1625 -0.1574 -1.4080
  886TIP3    H224074   2.697   3.857  12.950 -0.8521 -0.6197 -0.0610
  887TIP3   OH224075   0.086   4.978  16.281 -0.5827  0.2705  0.2461
  887TIP3    H124076  -0.001   5.010  16.305  0.9841  3.3720  2.4682
  887TIP3    H224077   0.116   5.040  16.214  0.0425 -0.5827 -0.2761
  888TIP3   OH224078   1.360   1.279  10.818  0.0831 -0.2567 -0.6603
  888TIP3    H124079   1.399   1.366  10.806  1.1866 -0.2409  2.2229
  888TIP3    H224080   1.429   1.228  10.861 -1.6558 -1.5580  0.7083
  889TIP3   OH224081   2.224   4.875  14.813 -0.0286 -0.6638  0.1349
  889TIP3    H124082   2.138   4.916  14.802  0.9494  0.9298 -3.0850
  889TIP3    H224083   2.286   4.948  14.808  1.6053 -2.0506 -1.1145
  890TIP3   OH224084   4.156   2.897  14.429  0.5896 -0.2167  0.5031
  890TIP3    H124085   4.120   2.824  14.378 -0.1177 -0.5037  1.3792
  890TIP3    H224086   4.093   2.968  14.416  0.8291 -0.0367  0.3345
  891TIP3   OH224087   4.697   6.036   3.450  0.3794 -0.0715  0.2858
  891TIP3    H124088   4.650   5.958   3.420  0.3263 -0.2357  0.7867
  891TIP3    H224089   4.726   6.079   3.369  0.8506 -0.8741  0.0162
  892TIP3   OH224090   6.233   6.273   4.752 -0.1683  0.0886 -0.1915
  892TIP3    H124091   6.253   6.313   4.837  0.5561 -0.6084 -0.0197
  892TIP3    H224092   6.149   6.230   4.765 -1.2229  1.9191 -0.5245
  893TIP3   OH224093   5.150   3.131   0.126 -0.0032 -0.1786  0.1725
  893TIP3    H124094   5.128   3.224   0.119 -1.3743 -0.3822  1.2497
  893TIP3    H224095   5.080   3.094   0.180  0.2575 -1.9344 -0.6182
  894TIP3   OH224096   1.570   1.232   5.339  0.0034  0.3491  0.0567
  894TIP3    H124097   1.581   1.151   5.290  1.7046 -0.0209  0.9696
  894TIP3    H224098   1.613   1.299   5.285  0.1870  0.2969  0.1362
  895TIP3   OH224099   1.923   6.766  12.796 -0.5768  0.1078 -0.4608
  895TIP3    H124100   1.881   6.846  12.827  0.2365  0.3286  0.0894
  895TIP3    H224101   1.857   6.697  12.810 -1.6254  0.7930 -1.7714
  896TIP3   OH224102   6.639   6.518  12.863  0.0732  0.0139 -0.6266
  896TIP3    H124103   6.554   6.490  12.829  1.1663 -2.3496 -1.6835
  896TIP3    H224104   6.626   6.523  12.958 -1.1179 -0.9211 -0.7072
  897TIP3   OH224105   5.133   0.836   1.553  0.0579  0.4788  0.2800
  897TIP3    H124106   5.136   0.760   1.611 -1.0424  0.2287  0.0248
  897TIP3    H224107   5.171   0.804   1.470 -0.6994  0.1010  0.0687
  898TIP3   OH224108   4.860   2.337  10.284 -0.7983 -0.3495 -0.0167
  898TIP3    H124109   4.940   2.287  10.293  0.1876  0.6062 -2.5090
  898TIP3    H224110   4.793   2.272  10.263  0.0982 -0.8512 -1.4793
  899TIP3   OH224111   2.569   2.071   5.545 -0.1300 -0.0509 -0.4900
  899TIP3    H124112   2.624   2.014   5.492 -1.7287 -0.7744 -1.4490
  899TIP3    H224113   2.484   2.028   5.545 -0.8015  1.2132  0.6365
  900TIP3   OH224114   2.709   0.456  11.515 -0.0508 -0.3420 -0.2476
  900TIP3    H124115   2.660   0.410  11.447 -0.6597  0.0249 -0.0673
  900TIP3    H224116   2.769   0.513  11.468  0.5305 -1.1336 -0.4731
  901TIP3   OH224117   1.487   3.415   2.855 -0.4281  0.0845 -0.0762
  901TIP3    H124118   1.500   3.385   2.946  1.8546  0.6080 -0.1594
  901TIP3    H224119   1.393   3.427   2.847 -0.7648 -0.6911  1.9995
  902TIP3   OH224120   1.476   1.586   0.415 -0.5013 -0.6868  0.4852
  902TIP3    H124121   1.426   1.621   0.342 -0.3825 -2.4110 -0.4919
  902TIP3    H224122   1.413   1.578   0.486 -0.9466 -0.2534  0.1481
  903TIP3   OH224123   4.978   0.802   3.931  0.2835 -0.6459 -0.2529
  903TIP3    H124124   4.952   0.808   4.023 -0.7687  2.0444 -0.6296
  903TIP3    H224125   5.065   0.763   3.933 -0.4676 -2.4047  1.6976
  904TIP3   OH224126   0.647   2.887  11.618 -0.4594 -0.2996 -0.3735
  904TIP3    H124127   0.607   2.840  11.691 -1.0076  0.3651 -0.2354
  904TIP3    H224128   0.573   2.925  11.570 -0.0843 -0.4088 -1.0512
  905TIP3   OH224129   1.322   0.542  15.147 -0.3036 -0.2492  0.2997
  905TIP3    H124130   1.308   0.451  15.172 -0.6847 -0.3667 -0.3173
  905TIP3    H224131   1.354   0.537  15.057 -0.1533  0.2188  0.3278
  906TIP3   OH224132   6.513   5.447   0.243 -0.3058  0.8961  0.1474
  906TIP3    H124133   6.454   5.511   0.204  0.9628  1.1501 -1.4862
  906TIP3    H224134   6.463   5.365   0.244 -0.3871  0.8327 -2.2553
  907TIP3   OH224135   1.315   6.431  13.858 -0.2158  0.6957  0.4547
  907TIP3    H124136   1.337   6.354  13.805  0.6241 -1.4418  3.6130
  907TIP3    H224137   1.370   6.422  13.936 -2.1671  2.9826  2.2200
  908TIP3   OH224138   3.002   1.060  13.947 -0.3429 -0.9336  0.1890
  908TIP3    H124139   3.065   1.131  13.955 -1.0531  0.0602 -2.1965
  908TIP3    H224140   2.949   1.066  14.026 -1.2338  2.1213 -0.4975
  909TIP3   OH224141   0.488   4.696   0.989  0.5127  0.0435 -0.5087
  909TIP3    H124142   0.413   4.751   0.968  1.1730  1.9148  1.6104
  909TIP3    H224143   0.560   4.733   0.938  0.5898  0.0417 -0.4023
  910TIP3   OH224144   4.880   3.305   2.287 -0.3027  0.0809 -0.1391
  910TIP3    H124145   4.884   3.387   2.336 -0.6309  1.5351 -2.3952
  910TIP3    H224146   4.970   3.273   2.285  0.1036  1.2280 -0.5531
  911TIP3   OH224147   0.306   3.770  13.913  0.1459  0.6244  0.4844
  911TIP3    H124148   0.243   3.719  13.862  1.4454 -0.5777  0.0253
  911TIP3    H224149   0.305   3.856  13.872  0.7945 -0.1711 -1.3102
  912TIP3   OH224150   0.006   3.052  12.563  0.3184  0.0064  0.0911
  912TIP3    H124151   0.016   3.029  12.655  0.1863  2.8965  0.9074
  912TIP3    H224152  -0.064   2.995  12.531  0.2110 -0.8795  1.8245
  913TIP3   OH224153   1.114   6.503  15.796  0.1023  0.2010  0.5493
  913TIP3    H124154   1.136   6.417  15.758 -0.7599  0.3214 -0.2444
  913TIP3    H224155   1.193   6.555  15.783 -0.2690  0.3542 -1.4690
  914TIP3   OH224156   0.395   2.600   1.461  0.4667  0.0003  0.2161
  914TIP3    H124157   0.381   2.693   1.479 -3.8289 -0.1693 -1.2042
  914TIP3    H224158   0.410   2.561   1.547 -1.3699  1.5667  1.3290
  915TIP3   OH224159   5.915   1.587  11.952 -0.8400  0.0100 -0.0688
  915TIP3    H124160   5.961   1.661  11.911 -2.0105  0.3396 -0.8298
  915TIP3    H224161   5.970   1.512  11.931  0.6628  0.7096  1.1931
  916TIP3   OH224162   5.555   1.594  10.925  0.6378  0.1535 -0.1787
  916TIP3    H124163   5.637   1.631  10.958  0.1218  0.2275  1.0941
  916TIP3    H224164   5.576   1.503  10.905  0.9970  0.1302  0.2843
  917TIP3   OH224165   3.837   6.481  13.094  0.5192 -0.0598  0.5291
  917TIP3    H124166   3.776   6.476  13.020  1.1091 -1.9129  0.1085
  917TIP3    H224167   3.788   6.446  13.168  0.3142  0.7195  0.7805
  918TIP3   OH224168   4.706   1.465  14.180  0.1014  0.4552 -0.0792
  918TIP3    H124169   4.660   1.549  14.183 -0.8091 -0.0328 -0.2766
  918TIP3    H224170   4.641   1.400  14.206  1.0187 -0.1207  0.8856
  919TIP3   OH224171   5.065   6.636   3.539 -0.1246 -0.2928 -0.0189
  919TIP3    H124172   5.042   6.611   3.450 -1.1726  0.3813  0.0480
  919TIP3    H224173   4.983   6.634   3.587  0.6537 -2.1950  1.3511
  920TIP3   OH224174   4.743   3.710  13.080 -0.1147  0.0860 -0.3397
  920TIP3    H124175   4.819   3.658  13.055 -0.9554 -2.6403  2.1650
  920TIP3    H224176   4.673   3.680  13.022  0.2469  1.3864 -1.5158
  921TIP3   OH224177   1.077   4.326  13.194 -0.7688 -0.0012 -0.2990
  921TIP3    H124178   1.135   4.251  13.187 -0.5675  0.2599 -1.6148
  921TIP3    H224179   1.115   4.391  13.135 -0.9303  1.1471  0.8144
  922TIP3   OH224180   6.042   1.338  16.157 -0.1506  0.1283 -0.9103
  922TIP3    H124181   6.029   1.267  16.220 -0.4942  2.5158  1.9537
  922TIP3    H224182   6.122   1.314  16.110 -0.0997 -1.9726  0.1279
  923TIP3   OH224183   4.992   3.341  11.997  0.5365  0.3296 -0.0963
  923TIP3    H124184   4.910   3.373  12.035 -0.0644  0.2869 -1.3307
  923TIP3    H224185   5.035   3.419  11.963  0.4193  0.2045 -0.5430
  924TIP3   OH224186   5.251   1.009  13.061  0.1153  0.4231  0.0483
  924TIP3    H124187   5.310   1.081  13.079 -0.0680 -0.0666  3.0934
  924TIP3    H224188   5.300   0.930  13.085  0.1891 -0.5619 -2.8445
  925TIP3   OH224189   0.982   5.895   1.605 -0.0285  0.1654 -0.6121
  925TIP3    H124190   1.061   5.945   1.584 -0.6903  0.7091 -1.9223
  925TIP3    H224191   1.013   5.806   1.622  0.7024 -0.1415 -3.1603
  926TIP3   OH224192   4.819   6.607  14.437 -0.0921  0.7158  0.3806
  926TIP3    H124193   4.826   6.537  14.372  0.6151  1.3228 -0.2284
  926TIP3    H224194   4.731   6.642  14.426  0.2462  1.2586 -0.7494
  927TIP3   OH224195   6.772   4.920   3.571  0.2682 -0.2961 -0.6218
  927TIP3    H124196   6.725   4.859   3.514 -1.0824  0.6837 -0.6311
  927TIP3    H224197   6.713   4.933   3.645  0.2695  1.3654 -0.8683
  928TIP3   OH224198   1.752   1.655  14.173  0.5599  0.3426 -0.1202
  928TIP3    H124199   1.708   1.590  14.228  1.2223  1.8466  2.2955
  928TIP3    H224200   1.845   1.645  14.192  1.1975 -1.0865 -3.2952
  929TIP3   OH224201   4.885   3.424  16.611 -0.9068 -0.4111  0.0820
  929TIP3    H124202   4.864   3.331  16.624 -0.7543 -0.4029  0.3900
  929TIP3    H224203   4.801   3.464  16.589 -1.1059 -0.4947  0.6720
  930TIP3   OH224204   1.659   0.005  14.771  0.3232 -0.6733  0.3532
  930TIP3    H124205   1.635  -0.001  14.864  0.9964  0.6981  0.6301
  930TIP3    H224206   1.633  -0.080  14.735  1.7171 -1.9532  2.1745
  931TIP3   OH224207   2.504   3.193  10.510  0.4351 -0.3688  0.0548
  931TIP3    H124208   2.420   3.187  10.555  0.6504  0.8285  0.6560
  931TIP3    H224209   2.538   3.103  10.509 -1.2497 -1.0501 -1.0337
  932TIP3   OH224210   4.439   5.069  13.480 -1.3965 -0.6512 -0.2249
  932TIP3    H124211   4.394   5.092  13.561 -1.0909  1.8095 -0.7019
  932TIP3    H224212   4.390   5.113  13.411 -0.1229 -0.5458 -1.0940
  933TIP3   OH224213   5.860   2.020  11.796 -0.7278 -0.4141 -0.5276
  933TIP3    H124214   5.833   1.954  11.732 -2.9866 -0.2101  0.1250
  933TIP3    H224215   5.785   2.028  11.855  0.5533  0.7726  1.0342
  934TIP3   OH224216   5.171   1.559   1.231  0.2199 -0.5839 -0.0127
  934TIP3    H124217   5.082   1.530   1.254  0.8275 -1.9241  0.7950
  934TIP3    H224218   5.223   1.542   1.310  1.3568 -0.5675 -0.7337
  935TIP3   OH224219   5.046   0.449  14.319 -0.5058  0.1595 -0.2818
  935TIP3    H124220   4.952   0.464  14.314 -0.1330  2.5773 -3.1321
  935TIP3    H224221   5.073   0.435  14.228  2.3672  3.9334 -0.2771
  936TIP3   OH224222   5.287   1.184  14.399  0.1437 -0.3180  0.2878
  936TIP3    H124223   5.257   1.142  14.318  1.1067  0.3246 -0.4279
  936TIP3    H224224   5.305   1.275  14.373  3.0460 -0.7217  0.5369
  937TIP3   OH224225   3.264   4.481   4.185  0.6326  0.3945  0.3348
  937TIP3    H124226   3.256   4.391   4.216 -2.6820 -0.2590 -1.8502
  937TIP3    H224227   3.295   4.473   4.095  0.8482  1.4963  0.2897
  938TIP3   OH224228   6.626   6.331   0.892  0.4250 -0.2626 -0.9541
  938TIP3    H124229   6.596   6.252   0.847 -1.0357 -0.1052 -0.3473
  938TIP3    H224230   6.704   6.358   0.845  1.4311 -2.4987 -0.7034
  939TIP3   OH224231   6.179   2.749   3.540 -0.6713 -0.3272  0.1775
  939TIP3    H124232   6.196   2.687   3.610 -1.8753  1.8993  2.6016
  939TIP3    H224233   6.090   2.781   3.556 -0.1427  1.9620 -0.9614
  940TIP3   OH224234   3.030   4.301   0.623 -0.5318  0.6225 -0.1257
  940TIP3    H124235   3.110   4.252   0.644  0.9118  2.6994 -0.3951
  940TIP3    H224236   2.959   4.246   0.653  1.0007 -1.4030 -0.0212
  941TIP3   OH224237   3.924   5.422  14.357 -0.2705  0.5879  0.4804
  941TIP3    H124238   3.912   5.445  14.265 -0.4074  1.4753  0.7118
  941TIP3    H224239   3.891   5.498  14.405 -1.6159 -0.4579  1.2989
  942TIP3   OH224240   1.510   6.131   1.743  0.2576  0.7566  0.5933
  942TIP3    H124241   1.493   6.201   1.680  1.2273  2.1136  1.7849
  942TIP3    H224242   1.605   6.126   1.749  0.1954 -0.4341  0.7966
  943TIP3   OH224243   4.340   4.443   2.258  0.0516  0.4754 -0.2523
  943TIP3    H124244   4.343   4.519   2.317  0.6850 -0.9767  1.6909
  943TIP3    H224245   4.258   4.400   2.279 -1.6704  1.9633 -3.2696
  944TIP3   OH224246   4.223   0.570  12.340  0.1693  0.1681  0.2608
  944TIP3    H124247   4.312   0.538  12.354 -0.0811 -1.6740 -1.8315
  944TIP3    H224248   4.222   0.598  12.249 -1.5312 -0.3249  0.1039
  945TIP3   OH224249   1.781   3.069  15.348  0.0504  0.2443  0.3795
  945TIP3    H124250   1.870   3.061  15.382  0.2304  0.3844 -0.0498
  945TIP3    H224251   1.738   3.131  15.407 -0.5491 -1.7480  2.1352
  946TIP3   OH224252   5.846   5.965   1.782 -0.0990 -0.4415  0.8202
  946TIP3    H124253   5.875   5.972   1.873 -1.2526  1.2473  1.1048
  946TIP3    H224254   5.859   6.053   1.746 -3.1204 -0.0191  0.4867
  947TIP3   OH224255   1.622   4.163  15.847 -0.0831 -0.3577  0.3361
  947TIP3    H124256   1.590   4.227  15.911 -0.2485 -0.7747  0.6813
  947TIP3    H224257   1.554   4.094  15.846  0.7858 -1.2538  1.0726
  948TIP3   OH224258   4.017   3.670   0.147 -0.1245 -0.2369  0.4969
  948TIP3    H124259   3.947   3.712   0.197  0.0295  1.5413 -0.7011
  948TIP3    H224260   4.039   3.733   0.079  1.9228 -1.2171  0.1858
  949TIP3   OH224261   2.632   0.197   2.923 -0.7504  0.3266  0.3838
  949TIP3    H124262   2.719   0.235   2.939 -1.3053  2.2184 -0.7303
  949TIP3    H224263   2.639   0.159   2.835 -0.7426 -0.4991  0.7391
  950TIP3   OH224264   4.766   3.801   6.091 -0.2534  0.2672 -0.1891
  950TIP3    H124265   4.710   3.838   6.023 -0.4372  1.4330  0.5726
  950TIP3    H224266   4.714   3.808   6.171  0.0057 -0.9770  0.1184
  951TIP3   OH224267   3.432   4.380  13.222 -0.0089  0.1296  0.2887
  951TIP3    H124268   3.422   4.475  13.216 -2.0602  0.0584  1.4993
  951TIP3    H224269   3.520   4.363  13.189 -1.2511  1.9066 -4.8164
  952TIP3   OH224270   2.570   4.783  13.653 -0.4936  0.2551 -0.0699
  952TIP3    H124271   2.647   4.838  13.639  1.6585 -2.6621 -0.9366
  952TIP3    H224272   2.562   4.733  13.571 -0.0428 -3.1396  1.7716
  953TIP3   OH224273   1.786   0.924  13.278 -0.1656 -0.6654  0.5612
  953TIP3    H124274   1.743   0.865  13.216  0.3626 -2.2027  1.5979
  953TIP3    H224275   1.719   0.943  13.343 -0.2709 -0.3123  0.3477
  954TIP3   OH224276   0.967   3.988   5.225 -0.3909 -0.0180  0.0485
  954TIP3    H124277   0.956   3.995   5.319  0.0310  1.0208  0.0278
  954TIP3    H224278   0.929   3.903   5.203  0.9763 -1.0383  1.3756
  955TIP3   OH224279   4.148   3.198  15.438 -0.0613 -0.2182  0.1069
  955TIP3    H124280   4.094   3.178  15.361  0.2496 -0.1251 -0.1385
  955TIP3    H224281   4.186   3.284  15.419 -1.5879  0.7563  1.2736
  956TIP3   OH224282   2.852   2.493   5.814  1.2957 -0.4264  0.0170
  956TIP3    H124283   2.785   2.552   5.847  1.5937 -0.2646  0.3400
  956TIP3    H224284   2.827   2.406   5.845  0.5867 -0.5564 -0.8734
  957TIP3   OH224285   4.719   0.742  15.643  0.3879  0.1496  0.1539
  957TIP3    H124286   4.700   0.712  15.732  2.2848  0.5474  0.7361
  957TIP3    H224287   4.783   0.678  15.610 -0.1914  0.0906 -0.8756
  958TIP3   OH224288   4.036   3.982   2.804  1.0812  0.0194 -0.3043
  958TIP3    H124289   4.125   3.948   2.811  1.4283  0.0520 -3.5114
  958TIP3    H224290   3.987   3.911   2.762 -1.1731 -1.0419  3.5629
  959TIP3   OH224291   0.195   6.692   3.607  0.5639  0.0074  0.3390
  959TIP3    H124292   0.161   6.627   3.669 -1.8994  0.3743 -0.5555
  959TIP3    H224293   0.166   6.776   3.641  0.9788  0.3899 -0.2365
  960TIP3   OH224294   6.428   0.553   1.733  0.3575  0.2540 -0.3472
  960TIP3    H124295   6.423   0.571   1.639 -3.1449  3.5690  0.2107
  960TIP3    H224296   6.413   0.459   1.740  1.9351 -0.3075 -3.0790
  961TIP3   OH224297   2.685   0.971  14.969 -0.1303  0.6707  0.6339
  961TIP3    H124298   2.661   1.013  14.886  0.5497  0.1806  0.1819
  961TIP3    H224299   2.664   0.879  14.957 -0.2213  0.6276  1.0871
  962TIP3   OH224300   0.002   5.949  14.459 -0.3683 -0.1836 -0.4863
  962TIP3    H124301  -0.028   5.858  14.469 -0.5443 -0.3881 -2.5057
  962TIP3    H224302  -0.079   6.000  14.456 -0.2802  0.0126  0.1654
  963TIP3   OH224303   6.209   0.579   6.019  0.1742 -0.0205  0.6295
  963TIP3    H124304   6.236   0.513   6.082  0.5899  0.0342  0.5131
  963TIP3    H224305   6.127   0.614   6.054 -0.2947 -0.9051  0.4684
  964TIP3   OH224306   4.607   2.354   6.139 -0.0265 -0.2583 -0.1349
  964TIP3    H124307   4.635   2.384   6.226  0.7522  0.0507 -0.4787
  964TIP3    H224308   4.625   2.260   6.139  1.1308 -0.0572 -0.3700
  965TIP3   OH224309   5.926   4.832  17.172 -0.4507  0.6865 -0.1238
  965TIP3    H124310   5.844   4.828  17.222  0.5533  1.0440  1.6490
  965TIP3    H224311   5.913   4.770  17.100 -3.1337  2.4296 -1.3115
  966TIP3   OH224312   6.707   4.491  10.767 -0.8186 -0.1756 -0.3855
  966TIP3    H124313   6.785   4.533  10.730 -0.0170 -0.7056  0.6714
  966TIP3    H224314   6.734   4.401  10.784 -0.5846  0.3947  2.9651
  967TIP3   OH224315   3.774   3.884   4.814  0.6959 -0.0299  0.0960
  967TIP3    H124316   3.846   3.822   4.828  1.1675  0.0727 -1.6592
  967TIP3    H224317   3.801   3.936   4.739 -0.3276  1.3789  0.6684
  968TIP3   OH224318   1.748   2.998   2.609 -0.3526 -0.1718  0.3055
  968TIP3    H124319   1.780   3.088   2.612  0.8879 -0.6115  0.7552
  968TIP3    H224320   1.824   2.944   2.630 -0.5291 -1.4739 -2.0474
  969TIP3   OH224321   5.272   3.555  10.601 -0.1226 -0.7524  0.0059
  969TIP3    H124322   5.311   3.485  10.549 -1.0401 -1.9674  0.8920
  969TIP3    H224323   5.195   3.515  10.642 -0.1502  0.5195  1.2919
  970TIP3   OH224324   2.299   4.669   5.823  0.2240 -0.6007 -0.0143
  970TIP3    H124325   2.287   4.574   5.814 -0.1168 -0.5580 -0.0225
  970TIP3    H224326   2.394   4.681   5.829  0.2485 -0.9773  0.4011
  971TIP3   OH224327   6.607   0.530  16.603 -0.7044  0.4727 -0.1679
  971TIP3    H124328   6.658   0.609  16.586  0.8851 -0.7432 -1.3809
  971TIP3    H224329   6.540   0.528  16.535  0.3393 -0.0789 -1.1993
  972TIP3   OH224330   2.496   6.633  13.114 -0.2185 -0.3099 -0.5127
  972TIP3    H124331   2.521   6.701  13.177  1.4824 -1.6054  0.2855
  972TIP3    H224332   2.461   6.682  13.039  1.0453  1.4399 -0.0315
  973TIP3   OH224333   6.231   4.151   5.412 -0.2779  0.7090  0.1030
  973TIP3    H124334   6.187   4.229   5.375  0.3695  0.0608 -2.2158
  973TIP3    H224335   6.292   4.124   5.344  1.4386 -0.3049  1.9600
  974TIP3   OH224336   3.447   0.689   1.634 -0.0539 -1.2110 -0.0925
  974TIP3    H124337   3.411   0.617   1.685  1.0472 -1.2691  0.6494
  974TIP3    H224338   3.410   0.768   1.674 -0.0486 -1.3002  0.0871
  975TIP3   OH224339   5.345   4.935   4.203 -0.5353  0.1905 -0.1926
  975TIP3    H124340   5.292   4.917   4.281 -1.6720  3.6394  0.0207
  975TIP3    H224341   5.300   5.008   4.161  1.8387  0.5382 -2.3252
  976TIP3   OH224342   3.015   5.792  15.484  0.0972  0.0280 -0.9572
  976TIP3    H124343   2.972   5.774  15.401  0.7853 -0.0222 -1.3110
  976TIP3    H224344   3.021   5.888  15.488  0.5885  0.0124 -1.2439
  977TIP3   OH224345   3.858   3.700   3.508 -0.0481  0.7010 -0.0652
  977TIP3    H124346   3.935   3.745   3.544 -0.0596 -0.6363  1.7948
  977TIP3    H224347   3.785   3.757   3.530  0.0109  0.1768  1.6968
  978TIP3   OH224348   2.631   4.098   4.375 -0.0014 -0.0591 -0.5061
  978TIP3    H124349   2.708   4.042   4.372  0.8877  1.1623 -1.1693
  978TIP3    H224350   2.619   4.127   4.285 -1.0987 -0.0276 -0.3627
  979TIP3   OH224351   3.247   0.192  13.497  0.2473 -0.1666  0.3403
  979TIP3    H124352   3.250   0.120  13.434  1.0026 -0.5199  0.7574
  979TIP3    H224353   3.194   0.159  13.569 -1.0415  0.4232 -0.3162
  980TIP3   OH224354   2.527   0.259  12.839  0.4423 -0.7610  0.2480
  980TIP3    H124355   2.434   0.244  12.822  0.3334 -0.2541  0.3895
  980TIP3    H224356   2.533   0.350  12.866  1.0987 -0.5294 -0.6146
  981TIP3   OH224357   3.037   1.848   4.610  0.2111  0.0516 -0.3584
  981TIP3    H124358   3.039   1.932   4.657  2.2056  0.1084 -0.4583
  981TIP3    H224359   3.078   1.786   4.670  1.8256 -0.1038 -1.5540
  982TIP3   OH224360   2.705   4.796   2.251 -0.4831  0.6452  0.4149
  982TIP3    H124361   2.729   4.748   2.172 -2.1244 -0.9757  0.8329
  982TIP3    H224362   2.619   4.832   2.231 -0.8276  0.3761  1.3949
  983TIP3   OH224363   3.039   5.902  17.187 -0.0954 -0.7560 -0.0144
  983TIP3    H124364   3.131   5.896  17.163  0.3754  1.9109  0.7440
  983TIP3    H224365   2.995   5.937  17.109 -0.5784 -2.3884 -0.5074
  984TIP3   OH224366   5.922   6.074   6.258 -0.0200  0.0505 -0.3549
  984TIP3    H124367   5.943   6.026   6.339 -1.7463 -3.2293 -1.6609
  984TIP3    H224368   5.995   6.057   6.200  1.0796  2.1684  0.2945
  985TIP3   OH224369   0.876   1.015  16.218  0.1145  0.0231  0.3564
  985TIP3    H124370   0.898   0.929  16.184  0.0614 -0.3411  1.2010
  985TIP3    H224371   0.783   1.008  16.241  0.0337  0.3989  0.1378
  986TIP3   OH224372   0.057   3.053  12.841  0.0084 -0.4111 -0.3847
  986TIP3    H124373   0.096   2.965  12.846 -0.8490 -0.7463  1.0062
  986TIP3    H224374   0.127   3.111  12.871  0.5128 -0.6276 -1.1034
  987TIP3   OH224375   0.885   5.695  15.345 -0.0029 -0.3593 -0.8553
  987TIP3    H124376   0.804   5.713  15.392 -0.6498 -1.2129 -1.5936
  987TIP3    H224377   0.859   5.634  15.276  1.1741 -0.2303 -1.4379
  988TIP3   OH224378   3.533   4.968  12.251 -0.1535 -0.5791  0.0408
  988TIP3    H124379   3.558   4.974  12.159  2.0844 -0.7057  0.5904
  988TIP3    H224380   3.571   4.885  12.281 -0.0628 -0.1060  1.2999
  989TIP3   OH224381   1.881   4.481   3.056 -1.0558 -0.1181 -0.5896
  989TIP3    H124382   1.857   4.419   3.125  1.5247 -1.2857 -0.6415
  989TIP3    H224383   1.920   4.555   3.102 -0.2616 -0.4436 -0.7305
  990TIP3   OH224384   1.509   3.226  13.705  0.0968  0.6578  0.1815
  990TIP3    H124385   1.465   3.239  13.621 -0.5633 -0.0897  0.3999
  990TIP3    H224386   1.590   3.181  13.684 -0.7204 -0.8137  0.0573
  991TIP3   OH224387   6.653   3.103   3.387 -0.7668  0.5309 -0.4998
  991TIP3    H124388   6.745   3.104   3.358 -0.2384 -1.5747  0.8540
  991TIP3    H224389   6.639   3.189   3.427  0.6899  0.8294 -0.5811
  992TIP3   OH224390   6.270   1.748  14.627 -0.2528  0.0852  0.0746
  992TIP3    H124391   6.346   1.694  14.606 -1.0657 -1.0941  0.0618
  992TIP3    H224392   6.268   1.750  14.723  0.4833  1.1486  0.0836
  993TIP3   OH224393   1.653   4.905   4.141 -0.4717 -0.4637  0.1628
  993TIP3    H124394   1.742   4.911   4.175 -0.4401 -0.8821  0.1682
  993TIP3    H224395   1.636   4.810   4.136 -1.0741 -0.3830  0.5755
  994TIP3   OH224396   0.804   1.620   3.826 -0.9520  0.3106 -0.1599
  994TIP3    H124397   0.823   1.551   3.890 -0.8808  0.4155 -0.0679
  994TIP3    H224398   0.882   1.675   3.826 -1.0153  0.4000 -0.2214
  995TIP3   OH224399   0.988   0.037  12.888  0.1377 -0.4657 -0.3233
  995TIP3    H124400   0.934  -0.028  12.841 -0.7403  0.2906 -0.3891
  995TIP3    H224401   1.059   0.057  12.828  0.0877 -0.9220 -0.5427
  996TIP3   OH224402   4.492   3.554  12.007  0.7182  0.3910  0.2340
  996TIP3    H124403   4.414   3.551  11.950  0.4626  0.2331  0.5871
  996TIP3    H224404   4.560   3.509  11.957  0.5526  0.4386 -0.0355
  997TIP3   OH224405   6.735   1.508   2.543  0.0681  0.6372  0.1299
  997TIP3    H124406   6.826   1.521   2.517 -0.4370  1.9912 -1.0897
  997TIP3    H224407   6.738   1.494   2.638  1.3619  2.9305  0.4895
  998TIP3   OH224408   0.017   2.803   4.252 -0.1859  0.3553 -0.1770
  998TIP3    H124409  -0.050   2.872   4.249  0.4618  1.0018 -0.2360
  998TIP3    H224410   0.095   2.844   4.214  0.5516 -0.0279  0.8726
  999TIP3   OH224411   5.707   3.157  15.402 -0.1855  0.0182  0.3408
  999TIP3    H124412   5.791   3.183  15.364 -0.4995 -0.1117 -0.4495
  999TIP3    H224413   5.731   3.093  15.470  0.2792 -0.9735 -0.7332
 1000TIP3   OH224414   4.763   5.362  11.747 -0.1597 -0.2061  0.0057
 1000TIP3    H124415   4.816   5.338  11.822  1.0428 -0.7902 -0.9966
 1000TIP3    H224416   4.799   5.446  11.719  0.8212 -0.9727 -1.1505
 1001TIP3   OH224417   4.288   4.200   3.960  0.9841 -0.6306 -0.1589
 1001TIP3    H124418   4.369   4.187   3.911  0.8586 -0.5822 -0.3814
 1001TIP3    H224419   4.225   4.144   3.916  0.5405  0.3959 -0.8672
 1002TIP3   OH224420   2.371   4.520  13.141 -0.1825 -0.7430 -0.1229
 1002TIP3    H124421   2.336   4.607  13.118  1.3981  0.6147  2.1812
 1002TIP3    H224422   2.308   4.485  13.204  1.3654  0.8217  2.4621
 1003TIP3   OH224423   5.457   6.762  12.738 -0.2594 -0.1150  0.9223
 1003TIP3    H124424   5.522   6.830  12.757 -1.4585  1.5540 -0.5312
 1003TIP3    H224425   5.374   6.801  12.765 -1.0202 -0.8076 -0.3538
 1004TIP3   OH224426   6.648   2.816  11.420  0.5619  0.7496  0.1176
 1004TIP3    H124427   6.662   2.766  11.340 -0.7679  1.9440 -0.8919
 1004TIP3    H224428   6.736   2.845  11.446  1.3759 -1.8676  0.6568
 1005TIP3   OH224429   5.051   1.223   3.458  0.1837 -0.4026 -0.4192
 1005TIP3    H124430   4.989   1.156   3.431  0.0880 -0.0737 -1.0189
 1005TIP3    H224431   5.134   1.176   3.469 -0.7464 -1.4848  3.4173
 1006TIP3   OH224432   6.219   2.443  11.499 -0.1861 -0.1669  0.1333
 1006TIP3    H124433   6.266   2.524  11.482  0.2638 -0.5700 -0.5998
 1006TIP3    H224434   6.133   2.455  11.459 -0.4401  0.2760  0.7975
 1007TIP3   OH224435   4.456   5.973   0.140 -0.2681  0.5354 -0.0506
 1007TIP3    H124436   4.483   6.040   0.202 -1.3042  1.0213 -0.0923
 1007TIP3    H224437   4.360   5.974   0.144 -0.3222 -1.3609  0.3899
 1008TIP3   OH224438   1.471   4.267   5.382  0.1664  0.2478  0.3834
 1008TIP3    H124439   1.555   4.268   5.337  1.8744  0.1169  3.2808
 1008TIP3    H224440   1.415   4.325   5.332  2.0676  0.5708 -1.4850
 1009TIP3   OH224441   0.040   3.634  12.456 -0.2776 -0.5043 -0.1657
 1009TIP3    H124442   0.107   3.616  12.522 -0.3272  0.5811  0.2115
 1009TIP3    H224443  -0.018   3.558  12.458 -2.7756  1.1729  4.1222
 1010TIP3   OH224444   2.593   3.579   1.168 -0.3170 -0.5758  0.2146
 1010TIP3    H124445   2.542   3.652   1.202 -0.6064 -0.5417 -0.2872
 1010TIP3    H224446   2.633   3.540   1.246 -0.8718 -0.4249  0.5828
 1011TIP3   OH224447   6.439   2.821   0.854  0.3126 -0.4886  0.5095
 1011TIP3    H124448   6.486   2.876   0.917 -0.2806 -0.9066  1.3410
 1011TIP3    H224449   6.431   2.736   0.898 -2.4319 -0.0555  1.0337
 1012TIP3   OH224450   0.620   1.971  11.868 -0.0351 -0.4974  0.0890
 1012TIP3    H124451   0.705   1.974  11.910 -0.4482  0.8008  0.8950
 1012TIP3    H224452   0.583   1.887  11.895 -0.7313  0.6953  3.3217
 1013TIP3   OH224453   2.387   4.315   3.907  0.0347 -0.5455 -0.2900
 1013TIP3    H124454   2.317   4.364   3.863 -0.3967 -1.8181 -1.0691
 1013TIP3    H224455   2.451   4.298   3.838  0.2717 -0.9183  0.0196
 1014TIP3   OH224456   2.536   5.499  16.629  0.6849 -0.4516 -0.5590
 1014TIP3    H124457   2.504   5.414  16.660  1.4119 -1.1933 -1.7712
 1014TIP3    H224458   2.471   5.527  16.565  2.2140 -1.8382 -2.8329
 1015TIP3   OH224459   1.419   4.250   3.019 -0.0818 -0.3735  0.1048
 1015TIP3    H124460   1.405   4.159   3.045  0.1987 -0.3321  0.4130
 1015TIP3    H224461   1.515   4.260   3.019 -0.0218 -0.5988 -1.7493
 1016TIP3   OH224462   1.176   6.024   6.043  0.1513  0.5130  0.1020
 1016TIP3    H124463   1.260   6.048   6.082  0.4419 -0.2366 -0.0559
 1016TIP3    H224464   1.195   5.948   5.989 -1.1199 -1.4867  2.2723
 1017TIP3   OH224465   0.664   0.128   3.810  0.1038  0.1510 -0.0780
 1017TIP3    H124466   0.750   0.130   3.769 -0.1126 -2.3833 -0.8680
 1017TIP3    H224467   0.602   0.128   3.737 -0.4569 -0.3008  0.3779
 1018TIP3   OH224468   4.684   4.424  11.989 -0.0243  0.3370 -0.5810
 1018TIP3    H124469   4.641   4.419  12.074 -0.3777  2.1971 -0.6086
 1018TIP3    H224470   4.776   4.406  12.008  0.0619  1.6158  0.3777
 1019TIP3   OH224471   5.520   3.045  16.935  0.1780  0.1451 -0.4572
 1019TIP3    H124472   5.588   2.989  16.974  1.3571  2.2953  0.7888
 1019TIP3    H224473   5.448   3.043  16.999 -0.2748 -0.8322 -0.9812
 1020TIP3   OH224474   0.802   1.798  15.891 -0.4765 -0.3398 -0.2331
 1020TIP3    H124475   0.867   1.787  15.961 -0.3549  0.6258 -0.1766
 1020TIP3    H224476   0.829   1.737  15.823  2.3400  2.1196 -1.5314
 1021TIP3   OH224477   4.646   3.213   1.461 -0.2234 -0.3662 -0.1146
 1021TIP3    H124478   4.713   3.146   1.449  0.3879  0.4745 -1.8239
 1021TIP3    H224479   4.693   3.287   1.499 -0.4470 -0.1921 -0.1751
 1022TIP3   OH224480   3.949   0.770  13.214  0.6345 -0.6050  0.7507
 1022TIP3    H124481   4.042   0.775  13.233  1.0672  0.4482 -1.3568
 1022TIP3    H224482   3.919   0.693  13.262  3.0109 -2.1784 -0.1065
 1023TIP3   OH224483   2.981   4.921   2.764  0.6404 -0.2049  0.2481
 1023TIP3    H124484   3.060   4.974   2.755  1.2525 -1.1600 -0.1814
 1023TIP3    H224485   2.930   4.940   2.685  0.5059  0.2886  0.4488
 1024TIP3   OH224486   0.288   2.421   4.625 -0.5097 -0.5838  0.1456
 1024TIP3    H124487   0.366   2.375   4.595 -0.2680  0.6688 -1.2471
 1024TIP3    H224488   0.277   2.492   4.563 -2.1801 -0.1202  0.9245
 1025TIP3   OH224489   4.439   6.528   2.502  0.0453  0.4726  0.0017
 1025TIP3    H124490   4.519   6.575   2.476 -0.0839  0.2708 -0.7859
 1025TIP3    H224491   4.410   6.485   2.421 -0.6337  0.2141  0.3839
 1026TIP3   OH224492   5.650   0.285   0.349  0.2884 -0.1047  0.4611
 1026TIP3    H124493   5.577   0.347   0.347 -0.0673 -0.5372 -0.2637
 1026TIP3    H224494   5.616   0.209   0.395  0.2817 -0.2969  0.1438
 1027TIP3   OH224495   0.730   3.352   3.474 -0.6486 -0.5124 -0.3597
 1027TIP3    H124496   0.648   3.398   3.494 -0.7654 -1.8615  2.8598
 1027TIP3    H224497   0.716   3.263   3.506  2.6841 -0.2608  2.3982
 1028TIP3   OH224498   3.249   5.402   0.210  0.3618  0.2169  0.7771
 1028TIP3    H124499   3.190   5.429   0.140  1.9117  1.0772 -0.2611
 1028TIP3    H224500   3.253   5.478   0.268  0.0222 -0.0511  1.1569
 1029TIP3   OH224501   2.698   3.574   2.959 -0.5477 -0.0889 -0.0543
 1029TIP3    H124502   2.670   3.660   2.991  1.8362  0.2467  1.3950
 1029TIP3    H224503   2.622   3.517   2.972 -2.2355  1.7838 -1.2019
 1030TIP3   OH224504   2.214   2.143  12.314 -0.5006  0.2419 -0.0276
 1030TIP3    H124505   2.213   2.049  12.328 -0.6736  0.4370  1.4055
 1030TIP3    H224506   2.136   2.175  12.359  1.0118  1.3686  1.9403
 1031TIP3   OH224507   2.427   2.121   0.682  0.1461  0.8731 -0.3969
 1031TIP3    H124508   2.344   2.078   0.664 -0.2344  1.0610  0.8068
 1031TIP3    H224509   2.478   2.110   0.601  0.0854 -1.8352 -0.1634
 1032TIP3   OH224510   5.093   4.252   5.246 -0.3164  0.4779 -0.0885
 1032TIP3    H124511   5.163   4.197   5.212 -0.0015  0.6401  0.2913
 1032TIP3    H224512   5.124   4.280   5.332 -1.7491 -1.1595  1.0227
 1033TIP3   OH224513   4.954   5.476  13.323  0.2202 -0.2396  0.0108
 1033TIP3    H124514   4.968   5.567  13.349 -1.6472  0.4535 -1.1946
 1033TIP3    H224515   4.998   5.468  13.238 -0.9663  0.0255 -0.6428
 1034TIP3   OH224516   1.038   2.948   2.494  0.0567 -0.3406 -0.2193
 1034TIP3    H124517   0.973   2.984   2.555 -0.6961  1.8317 -2.1779
 1034TIP3    H224518   1.036   2.854   2.511 -1.9346 -0.0900  1.3776
 1035TIP3   OH224519   6.278   6.729   4.888 -0.3505 -0.6492 -0.5159
 1035TIP3    H124520   6.326   6.699   4.811  2.0619 -2.3982  1.4737
 1035TIP3    H224521   6.311   6.817   4.905 -0.8062 -0.3061 -1.3893
 1036TIP3   OH224522   2.090   6.190   2.907 -0.0113  0.1686  0.6873
 1036TIP3    H124523   2.123   6.230   2.826 -1.5736 -2.3035 -1.3181
 1036TIP3    H224524   2.121   6.249   2.976  0.7153  2.8770 -1.7142
 1037TIP3   OH224525   3.473   6.338  12.242 -0.3403  0.0715 -0.3559
 1037TIP3    H124526   3.551   6.332  12.186  0.1486 -0.7707  0.3748
 1037TIP3    H224527   3.401   6.309  12.186 -0.2147  1.2882 -1.1760
 1038TIP3   OH224528   4.513   3.198   1.903 -0.5851  0.0500  0.7927
 1038TIP3    H124529   4.490   3.283   1.866  1.1133 -0.2514 -1.1707
 1038TIP3    H224530   4.584   3.216   1.964 -0.1821  0.0659  0.3292
 1039TIP3   OH224531   5.632   2.720  13.961  0.7136  0.7666 -0.0333
 1039TIP3    H124532   5.555   2.665  13.953  1.5710 -0.6766  0.9887
 1039TIP3    H224533   5.629   2.779  13.886 -2.0871  1.7278  0.7087
 1040TIP3   OH224534   6.396   2.370  12.697  0.0969 -0.2539  0.1286
 1040TIP3    H124535   6.374   2.324  12.616  0.1382 -1.2961  0.6993
 1040TIP3    H224536   6.401   2.302  12.763 -2.1151  0.7947  1.4839
 1041TIP3   OH224537   0.844   4.612   2.759  0.1055 -0.3291 -0.4727
 1041TIP3    H124538   0.850   4.520   2.787  0.5921 -0.1702 -0.0312
 1041TIP3    H224539   0.854   4.662   2.840  0.1721  0.1183 -0.7554
 1042TIP3   OH224540   0.636   3.095  12.485 -0.2113  0.1768  0.1987
 1042TIP3    H124541   0.594   3.145  12.414 -1.6134 -3.3559 -1.7266
 1042TIP3    H224542   0.573   3.100  12.557  0.0393  1.7251  0.3514
 1043TIP3   OH224543   5.559   2.457  16.133 -0.0589 -0.0230  0.2459
 1043TIP3    H124544   5.600   2.435  16.049  1.8493  2.7640  0.3251
 1043TIP3    H224545   5.471   2.486  16.109  0.2429  0.1406 -0.7172
 1044TIP3   OH224546   0.774   4.981  11.925 -0.6390 -0.5208 -0.6209
 1044TIP3    H124547   0.829   4.951  11.853  1.6060  0.5483  0.5507
 1044TIP3    H224548   0.765   5.076  11.910 -2.0196 -0.6409 -0.6683
 1045TIP3   OH224549   3.815   3.281  12.090  0.2701 -0.4169  0.3922
 1045TIP3    H124550   3.794   3.374  12.095  0.2673 -0.4246  0.5291
 1045TIP3    H224551   3.731   3.238  12.077  0.4320 -0.2803 -1.3352
 1046TIP3   OH224552   1.769   5.610  13.831 -0.4465 -0.0092  0.0453
 1046TIP3    H124553   1.748   5.576  13.918  2.6572 -1.4730  0.3538
 1046TIP3    H224554   1.824   5.687  13.848  2.7964 -2.0175 -0.3732
 1047TIP3   OH224555   6.228   3.237   1.384 -0.3279 -0.2584 -0.2482
 1047TIP3    H124556   6.191   3.220   1.470 -1.5426 -1.0964 -0.9091
 1047TIP3    H224557   6.269   3.324   1.392  0.1517 -0.6015  1.3329
 1048TIP3   OH224558   6.438   0.873   1.818  0.2117 -0.2052 -0.4121
 1048TIP3    H124559   6.407   0.894   1.730  1.8979  2.3921 -0.4964
 1048TIP3    H224560   6.527   0.841   1.806  0.8962  1.2921  0.3677
 1049TIP3   OH224561   4.198   6.154   2.838  0.2437  0.0291 -0.3445
 1049TIP3    H124562   4.149   6.186   2.762 -0.9024  0.5939  0.5999
 1049TIP3    H224563   4.252   6.229   2.865  0.0556  0.0854 -0.1259
 1050TIP3   OH224564   5.625   6.358   1.194  0.2180 -0.6302  0.3656
 1050TIP3    H124565   5.683   6.414   1.143 -1.7841  2.0890  0.8295
 1050TIP3    H224566   5.621   6.276   1.144  4.5421 -1.1601  0.4947
 1051TIP3   OH224567   3.253   2.201  14.016 -0.8857 -0.0049 -0.4035
 1051TIP3    H124568   3.291   2.192  13.928 -1.8011 -1.4854 -0.6834
 1051TIP3    H224569   3.329   2.201  14.075 -0.3495 -1.4391 -1.0470
 1052TIP3   OH224570   6.384   4.093  11.651  0.5247  0.0211 -0.4830
 1052TIP3    H124571   6.430   4.077  11.569  1.5010  0.8522 -0.1311
 1052TIP3    H224572   6.411   4.182  11.676 -0.7151  0.2515  0.1196
 1053TIP3   OH224573   3.639   2.184  16.958 -0.1592  0.0029 -0.1058
 1053TIP3    H124574   3.689   2.256  16.996  1.0457 -1.9987  2.4060
 1053TIP3    H224575   3.680   2.170  16.872  0.8826  1.0231  0.1935
 1054TIP3   OH224576   1.564   4.412   2.548  0.2004  0.8176  0.3205
 1054TIP3    H124577   1.519   4.495   2.560  0.4197  0.9836  0.0039
 1054TIP3    H224578   1.507   4.347   2.589  0.1502  1.1563  0.7961
 1055TIP3   OH224579   6.548   1.625  16.125  0.1904 -0.4439 -0.1022
 1055TIP3    H124580   6.601   1.693  16.083 -0.3428  0.1827  0.2296
 1055TIP3    H224581   6.487   1.597  16.057 -0.9041  0.8144  0.3242
 1056TIP3   OH224582   3.445   3.466   5.688  0.1447 -0.4272 -0.0937
 1056TIP3    H124583   3.386   3.411   5.636  0.9449 -1.8262  0.4185
 1056TIP3    H224584   3.414   3.455   5.778  0.6137 -0.4171  0.0687
 1057TIP3   OH224585   5.339   6.437   3.078 -0.5206  0.0281  0.4255
 1057TIP3    H124586   5.431   6.424   3.102 -0.2819  1.3330  0.2753
 1057TIP3    H224587   5.295   6.458   3.161 -0.7673 -0.9686  0.5569
 1058TIP3   OH224588   5.395   6.175  15.959 -0.1880 -0.6464  0.3501
 1058TIP3    H124589   5.452   6.237  15.914 -1.6224  0.2965 -0.2428
 1058TIP3    H224590   5.343   6.135  15.889  0.3325 -2.1521  0.7854
 1059TIP3   OH224591   2.493   1.548  13.803 -0.3604 -0.2875 -0.0836
 1059TIP3    H124592   2.545   1.628  13.812  0.2991 -0.8252  1.1773
 1059TIP3    H224593   2.407   1.578  13.773  0.1644  0.7802 -0.5813
 1060TIP3   OH224594   4.481   5.748   5.622 -0.1567  0.1762  0.0759
 1060TIP3    H124595   4.468   5.842   5.630 -0.4442  0.2365 -0.9876
 1060TIP3    H224596   4.444   5.725   5.537 -1.3136 -1.1272  0.8908
 1061TIP3   OH224597   2.842   1.928   5.983 -0.2112  0.3196 -0.5239
 1061TIP3    H124598   2.816   1.933   6.075  0.0341 -0.6819 -0.3823
 1061TIP3    H224599   2.928   1.887   5.985 -0.6770 -0.7413 -1.2526
 1062TIP3   OH224600   6.097   2.814  14.714  0.3759  0.0839  0.0157
 1062TIP3    H124601   6.110   2.731  14.760 -1.0054 -0.5367 -0.6143
 1062TIP3    H224602   6.071   2.876  14.781  0.5317 -0.2414  0.3765
 1063TIP3   OH224603   5.718   3.391   6.561 -0.5884  0.5257 -0.4312
 1063TIP3    H124604   5.632   3.398   6.602 -0.0855 -0.9598  0.9610
 1063TIP3    H224605   5.765   3.469   6.590 -0.3597 -0.3176  1.6739
 1064TIP3   OH224606   4.412   5.625   3.754 -0.0134 -0.1821  0.1024
 1064TIP3    H124607   4.428   5.595   3.665  0.4100 -0.3960  0.2464
 1064TIP3    H224608   4.444   5.554   3.809  1.4720  0.7272  0.4594
 1065TIP3   OH224609   1.890   4.657  11.003  0.3988  0.0523  0.2151
 1065TIP3    H124610   1.822   4.600  11.037  0.3107  0.3521  0.5474
 1065TIP3    H224611   1.934   4.605  10.935  1.0879 -0.8461  1.3249
 1066TIP3   OH224612   6.531   0.953   6.123  0.3665 -0.6277  0.4359
 1066TIP3    H124613   6.486   1.000   6.052  0.3392  0.6561  1.2718
 1066TIP3    H224614   6.520   0.861   6.100  0.3845 -0.2545 -1.2428
 1067TIP3   OH224615   4.653   3.511  16.186  0.6300 -0.7241 -0.2022
 1067TIP3    H124616   4.564   3.520  16.219  0.0148 -0.6709 -1.8172
 1067TIP3    H224617   4.685   3.430  16.227 -0.6513 -1.4865 -0.6664
 1068TIP3   OH224618   0.071   2.039   0.202 -0.5628 -0.2065  0.3607
 1068TIP3    H124619   0.164   2.020   0.215 -0.3315 -0.4720 -1.3661
 1068TIP3    H224620   0.052   2.112   0.261  1.0473  0.6197 -0.0827
 1069TIP3   OH224621   5.974   1.591  13.539  0.3586 -0.9450  0.2419
 1069TIP3    H124622   6.004   1.637  13.618 -0.5885  0.2423 -0.0512
 1069TIP3    H224623   5.984   1.656  13.469 -1.1563 -1.1184 -0.1618
 1070TIP3   OH224624   0.848   3.388   1.844 -0.5151 -0.1378 -0.4999
 1070TIP3    H124625   0.766   3.426   1.876 -0.6610 -0.0606 -0.9589
 1070TIP3    H224626   0.912   3.411   1.911 -0.3527  1.9048 -1.2949
 1071TIP3   OH224627   5.752   4.202  14.403  0.1193 -0.1834 -0.2991
 1071TIP3    H124628   5.702   4.192  14.322  1.3433  1.6010 -1.3598
 1071TIP3    H224629   5.817   4.269  14.382  1.1248 -0.4041  1.8774
 1072TIP3   OH224630   3.972   1.233  16.444  0.2270  0.8424  0.0137
 1072TIP3    H124631   3.998   1.304  16.503  1.7652  1.1350 -0.9733
 1072TIP3    H224632   4.050   1.213  16.393 -0.1934 -1.4687  0.1249
 1073TIP3   OH224633   6.209   1.182  11.456  0.0391 -0.2771 -0.2078
 1073TIP3    H124634   6.133   1.239  11.468  1.0039  1.4604 -1.8650
 1073TIP3    H224635   6.174   1.104  11.412 -0.9891 -0.1126  0.2961
 1074TIP3   OH224636   3.993   3.531  12.626 -0.2154  0.2824 -0.3161
 1074TIP3    H124637   3.982   3.515  12.719  1.5107  1.5736  0.1645
 1074TIP3    H224638   3.934   3.469  12.583 -0.8730 -0.4792  1.6163
 1075TIP3   OH224639   1.476   0.717  11.832 -0.0881 -0.0877 -0.3434
 1075TIP3    H124640   1.463   0.688  11.741  0.0071  0.4707 -0.5407
 1075TIP3    H224641   1.532   0.649  11.870 -0.1764 -0.3593 -0.6853
 1076TIP3   OH224642   5.646   1.963  13.472  0.0972  1.5125 -0.5432
 1076TIP3    H124643   5.607   1.913  13.401 -0.7859  0.6150  0.5412
 1076TIP3    H224644   5.659   2.051  13.435 -0.7463  1.1846 -1.6702
 1077TIP3   OH224645   6.003   1.311   1.635 -0.2321  0.9640 -0.2148
 1077TIP3    H124646   6.069   1.347   1.694  0.2472 -0.7830  0.3916
 1077TIP3    H224647   6.039   1.324   1.548  0.1026  1.5926  0.0127
 1078TIP3   OH224648   1.342   3.044   0.204  0.2119  0.1179 -0.7953
 1078TIP3    H124649   1.402   3.092   0.262 -1.7620  1.4401  0.2719
 1078TIP3    H224650   1.281   3.110   0.173 -1.9671 -1.4828 -0.1561
 1079TIP3   OH224651   1.138   6.028  13.764 -0.1105  0.0598 -0.2404
 1079TIP3    H124652   1.197   6.073  13.825  0.0621  0.9377 -1.0376
 1079TIP3    H224653   1.055   6.075  13.772  0.0454  0.4878 -1.0136
 1080TIP3   OH224654   2.327   2.728   3.354  0.3100 -0.4240 -0.0298
 1080TIP3    H124655   2.317   2.641   3.391 -0.1369 -0.2706  0.2084
 1080TIP3    H224656   2.238   2.762   3.346  0.2594 -0.9032 -2.3237
 1081TIP3   OH224657   3.832   5.037   0.891  0.4895  0.1827 -0.3791
 1081TIP3    H124658   3.760   4.994   0.846 -0.9122  0.4177  1.5324
 1081TIP3    H224659   3.830   5.127   0.857 -0.9642  0.5363  0.5452
 1082TIP3   OH224660   4.575   1.298  13.486 -0.0358 -0.0201  0.2547
 1082TIP3    H124661   4.517   1.228  13.516  1.9443 -1.2467  1.4488
 1082TIP3    H224662   4.538   1.378  13.525 -0.9297 -0.7550  0.9701
 1083TIP3   OH224663   0.712   1.593   4.655 -0.5591 -0.0656  0.0991
 1083TIP3    H124664   0.795   1.554   4.629  0.0940  0.8239  0.7749
 1083TIP3    H224665   0.671   1.621   4.573  0.0172 -0.0876 -0.1969
 1084TIP3   OH224666   6.088   4.259  13.136 -0.1266  0.1297  0.2422
 1084TIP3    H124667   6.159   4.194  13.134 -0.4793 -0.3482  1.8463
 1084TIP3    H224668   6.060   4.261  13.227 -1.4312  1.1484 -0.1519
 1085TIP3   OH224669   1.987   3.170  11.086 -0.0928  0.7068 -0.0055
 1085TIP3    H124670   1.904   3.150  11.044 -0.6075  0.2465  1.1921
 1085TIP3    H224671   1.976   3.142  11.177  0.6370  2.5399  0.7015
 1086TIP3   OH224672   3.331   5.439   1.678  0.0207  0.5597 -0.1513
 1086TIP3    H124673   3.284   5.356   1.686 -0.2576  0.8455  1.6638
 1086TIP3    H224674   3.275   5.492   1.621  0.8595 -0.8927 -2.4373
 1087TIP3   OH224675   3.188   1.746  13.300 -0.0132 -0.3526  0.3269
 1087TIP3    H124676   3.185   1.695  13.381  1.3497 -1.6616 -0.3894
 1087TIP3    H224677   3.186   1.680  13.230  0.9431  0.5956 -0.6449
 1088TIP3   OH224678   4.637   6.615   5.626  0.2362 -0.2631 -0.0209
 1088TIP3    H124679   4.634   6.657   5.540  0.1575 -1.6051 -0.7046
 1088TIP3    H224680   4.707   6.659   5.673  0.7536  0.0134 -1.0412
 1089TIP3   OH224681   2.350   4.733   3.305  0.2707  0.0312 -0.0392
 1089TIP3    H124682   2.365   4.709   3.397 -0.7774  0.2502  0.1992
 1089TIP3    H224683   2.434   4.770   3.276  1.0063 -1.2077  0.4400
 1090TIP3   OH224684   3.276   3.140  15.977  0.6232 -0.6234 -0.3107
 1090TIP3    H124685   3.210   3.110  16.039  1.2679 -0.9277  0.2389
 1090TIP3    H224686   3.359   3.115  16.017  1.2186  2.0156  0.2488
 1091TIP3   OH224687   4.559   0.925   1.989  0.1538 -0.2996  0.4512
 1091TIP3    H124688   4.616   0.887   2.055 -1.2942  1.5716  2.9477
 1091TIP3    H224689   4.501   0.983   2.038  0.0944  2.5609 -2.6700
 1092TIP3   OH224690   6.282   4.513  13.517  0.0737 -0.1464  0.1246
 1092TIP3    H124691   6.368   4.516  13.560 -0.1650  0.8194  0.5733
 1092TIP3    H224692   6.299   4.473  13.432  1.0388  0.3301  0.0743
 1093TIP3   OH224693   6.370   6.331   2.853  0.4585  0.5680  0.2182
 1093TIP3    H124694   6.324   6.328   2.769  0.5534 -1.4719  0.1951
 1093TIP3    H224695   6.340   6.412   2.894 -1.4717  0.3788 -0.7324
 1094TIP3   OH224696   1.318   1.000   2.204  0.3270  0.9954 -0.4160
 1094TIP3    H124697   1.388   1.066   2.205  1.8875 -0.5667 -1.2137
 1094TIP3    H224698   1.333   0.952   2.123 -1.0936 -0.0316 -0.0957
 1095TIP3   OH224699   1.246   2.360  13.720 -0.3123  0.1627  0.2289
 1095TIP3    H124700   1.271   2.377  13.629  0.8863 -1.5914  0.1892
 1095TIP3    H224701   1.261   2.443  13.765 -2.1417  1.4614 -1.3730
 1096TIP3   OH224702   0.727   4.247  14.588 -0.1640  0.0008  0.0885
 1096TIP3    H124703   0.751   4.191  14.514 -0.7728  0.5970 -0.5727
 1096TIP3    H224704   0.778   4.327  14.576  1.9255 -0.9626  1.9042
 1097TIP3   OH224705   0.782   6.057   4.295  0.2370  0.0592  0.3427
 1097TIP3    H124706   0.826   5.977   4.323  0.2651 -0.2993 -0.6889
 1097TIP3    H224707   0.690   6.032   4.289  0.5909 -0.8555 -3.0468
 1098TIP3   OH224708   6.037   1.746  14.300  0.0082  0.0227  0.0885
 1098TIP3    H124709   5.941   1.741  14.301 -0.1980  2.7730  0.0639
 1098TIP3    H224710   6.060   1.732  14.208 -0.3579 -0.5562  0.0750
 1099TIP3   OH224711   3.823   4.610  16.060 -0.7465  0.3096 -0.0026
 1099TIP3    H124712   3.809   4.520  16.030  1.2453  0.6821 -2.3638
 1099TIP3    H224713   3.743   4.632  16.109 -2.3872 -1.8968 -1.4987
 1100TIP3   OH224714   1.756   0.778  14.381  0.2103  0.1101 -0.1849
 1100TIP3    H124715   1.807   0.793  14.301  0.2039 -0.8664 -0.3811
 1100TIP3    H224716   1.804   0.710  14.427 -0.5567 -0.3446 -0.0518
 1101TIP3   OH224717   1.520   2.162  13.086  0.0769  0.1368  0.4195
 1101TIP3    H124718   1.431   2.195  13.100 -1.7559 -2.9412 -2.4390
 1101TIP3    H224719   1.525   2.085  13.142  1.9066  1.4692  2.2236
 1102TIP3   OH224720   2.530   0.538  13.006  0.1006 -0.2694 -0.2720
 1102TIP3    H124721   2.496   0.593  12.936 -1.0242 -0.1381  0.3511
 1102TIP3    H224722   2.538   0.597  13.081 -1.5695 -0.9961  0.5413
 1103TIP3   OH224723   0.797   3.797   0.845  0.7668  0.7030  0.0703
 1103TIP3    H124724   0.782   3.814   0.752 -0.0619  0.5307  0.1714
 1103TIP3    H224725   0.807   3.702   0.851  1.8253  0.8001  0.0213
 1104TIP3   OH224726   5.458   1.246   0.118  0.1303 -0.3690 -0.3836
 1104TIP3    H124727   5.382   1.191   0.099  0.9770 -1.2340 -1.4348
 1104TIP3    H224728   5.493   1.211   0.200  0.9148 -1.7596 -1.2616
 1105TIP3   OH224729   4.718   2.486  12.214 -0.5790  0.3563  0.3478
 1105TIP3    H124730   4.791   2.536  12.179 -0.5785 -1.2762 -2.2772
 1105TIP3    H224731   4.756   2.402  12.240 -1.3825 -0.3881 -0.7484
 1106TIP3   OH224732   1.296   0.587   3.397  0.3724  0.5047  0.0032
 1106TIP3    H124733   1.301   0.505   3.446  1.1487  0.7408  0.3294
 1106TIP3    H224734   1.244   0.645   3.453 -0.1343  0.2596 -0.2050
 1107TIP3   OH224735   0.304   0.636  13.400 -0.3501  0.8438 -0.0981
 1107TIP3    H124736   0.236   0.581  13.361  0.3727  0.2131 -0.4958
 1107TIP3    H224737   0.276   0.648  13.490 -1.0156  0.6304 -0.2682
 1108TIP3   OH224738   0.506   5.864   1.104 -0.4473  0.2377  0.4319
 1108TIP3    H124739   0.575   5.815   1.060 -1.4485  0.8858 -2.1047
 1108TIP3    H224740   0.519   5.955   1.074 -3.8439  0.0165 -2.4969
 1109TIP3   OH224741   4.338   0.854  15.511 -0.7428 -0.4594  0.4246
 1109TIP3    H124742   4.351   0.909  15.434 -0.0606 -0.9315  0.1995
 1109TIP3    H224743   4.246   0.828  15.507 -0.9486  0.2665  0.2753
 1110TIP3   OH224744   6.433   3.019   6.362 -0.0136  0.0004 -0.5976
 1110TIP3    H124745   6.338   3.024   6.355  0.0727  1.1470 -1.1126
 1110TIP3    H224746   6.450   3.021   6.456 -0.5117 -0.6179 -0.4875
 1111TIP3   OH224747   2.627   3.894  15.902  0.1257  0.2760 -0.0872
 1111TIP3    H124748   2.541   3.912  15.864  0.5156  0.6099 -0.8402
 1111TIP3    H224749   2.685   3.957  15.858  1.3139 -1.8822 -1.7954
 1112TIP3   OH224750   4.910   6.493   5.739  0.1533  0.2348  0.3489
 1112TIP3    H124751   4.888   6.584   5.757 -0.1090  0.0420  1.0137
 1112TIP3    H224752   4.989   6.497   5.686  0.1887  0.8453  0.4513
 1113TIP3   OH224753   4.851   2.037  16.366 -0.8833  0.0360  0.5555
 1113TIP3    H124754   4.784   2.097  16.398 -0.0214  0.5610  1.4773
 1113TIP3    H224755   4.907   2.022  16.443 -1.3606 -2.3851  0.5066
 1114TIP3   OH224756   0.284   5.868   2.074 -0.0916 -0.4763  0.3678
 1114TIP3    H124757   0.310   5.925   2.147 -0.7328 -0.0285  0.2542
 1114TIP3    H224758   0.363   5.818   2.054  1.0614  1.6273 -0.6782
 1115TIP3   OH224759   2.281   3.304  14.844 -0.3697  0.3347 -0.2923
 1115TIP3    H124760   2.282   3.274  14.935  1.3021  0.5935 -0.1982
 1115TIP3    H224761   2.203   3.263  14.807  0.2956 -1.8906  0.5814
 1116TIP3   OH224762   3.516   2.815  12.913  0.0026 -1.0448 -0.0193
 1116TIP3    H124763   3.610   2.800  12.918  0.1583  0.1284  1.1603
 1116TIP3    H224764   3.497   2.819  12.819  1.0186 -1.8211 -0.2767
 1117TIP3   OH224765   6.481   3.238   4.493  0.2442 -0.0615  0.0506
 1117TIP3    H124766   6.401   3.202   4.454  0.1069  0.2216  0.0644
 1117TIP3    H224767   6.449   3.307   4.552  0.3264 -1.5113  1.8719
 1118TIP3   OH224768   0.887   6.357  11.158  0.0869  0.3984  0.0727
 1118TIP3    H124769   0.974   6.391  11.138  0.6620 -1.6374 -1.1795
 1118TIP3    H224770   0.893   6.326  11.248  0.0088  2.0622  0.6899
 1119TIP3   OH224771   3.596   2.342  13.175  0.5726 -0.1270  0.2697
 1119TIP3    H124772   3.579   2.430  13.143  0.8273  0.6483  2.1309
 1119TIP3    H224773   3.663   2.307  13.116  0.0402  0.6907 -0.8404
 1120TIP3   OH224774   2.832   5.672   4.398  0.3054  0.3432  0.0341
 1120TIP3    H124775   2.871   5.592   4.433  1.0484  0.2580 -0.9523
 1120TIP3    H224776   2.873   5.742   4.449 -1.9718  0.0588  2.4510
 1121TIP3   OH224777   2.144   4.434  11.683 -0.4449  0.4594 -0.0294
 1121TIP3    H124778   2.185   4.362  11.636 -1.0753  1.2672 -1.9175
 1121TIP3    H224779   2.057   4.401  11.707 -0.9458  0.7297 -1.3791
 1122TIP3   OH224780   6.213   4.501  11.362 -0.7305  0.4953  0.2376
 1122TIP3    H124781   6.304   4.527  11.375 -1.0987  1.1881  1.6013
 1122TIP3    H224782   6.177   4.571  11.308 -0.0942 -0.5763 -1.6631
 1123TIP3   OH224783   2.881   2.959   5.576  0.3584  0.6782  0.0007
 1123TIP3    H124784   2.921   3.001   5.652 -2.0100 -2.3589  3.2545
 1123TIP3    H224785   2.917   2.870   5.575 -0.0705  0.4577 -2.1955
 1124TIP3   OH224786   0.764   6.616   5.846 -0.0533  0.6579  0.4425
 1124TIP3    H124787   0.728   6.689   5.795  0.8371  1.9488  1.6082
 1124TIP3    H224788   0.696   6.595   5.910 -0.2194  0.5884  0.2458
 1125TIP3   OH224789   2.735   4.352  14.738  0.2034  0.1929  0.2252
 1125TIP3    H124790   2.766   4.414  14.804  1.3284  0.4681 -0.5263
 1125TIP3    H224791   2.814   4.306  14.710 -0.1624  0.3955 -1.2286
 1126TIP3   OH224792   2.620   2.152  13.263  0.1222 -0.3568  0.3440
 1126TIP3    H124793   2.660   2.197  13.337 -2.5549  0.5358  1.3966
 1126TIP3    H224794   2.605   2.222  13.199 -0.2973 -0.5393  0.2408
 1127TIP3   OH224795   1.930   6.065   5.507  0.3913  0.3462  0.3760
 1127TIP3    H124796   1.870   6.138   5.492  0.1250 -0.0291 -0.4437
 1127TIP3    H224797   1.873   5.988   5.514  0.7859 -0.1857 -1.5026
 1128TIP3   OH224798   2.431   4.197   4.551 -0.1107  0.2825  0.0918
 1128TIP3    H124799   2.499   4.163   4.494 -0.9432  0.2172 -0.8824
 1128TIP3    H224800   2.458   4.170   4.639  0.5083 -0.7453 -0.3955
 1129TIP3   OH224801   5.355   6.489  12.894 -0.1982  0.0784 -0.1064
 1129TIP3    H124802   5.409   6.564  12.920  0.4257 -0.8160  1.2421
 1129TIP3    H224803   5.279   6.492  12.952  0.4560 -1.0558  0.8358
 1130TIP3   OH224804   2.886   0.965   4.778 -0.1560 -0.4520  0.3671
 1130TIP3    H124805   2.832   0.988   4.854  0.3426  1.1516  0.2820
 1130TIP3    H224806   2.824   0.961   4.705 -0.4818 -0.9394  0.6637
 1131TIP3   OH224807   2.542   6.504  13.904 -1.1930 -0.2585  0.0599
 1131TIP3    H124808   2.459   6.534  13.868 -1.3853  0.7953  1.2996
 1131TIP3    H224809   2.609   6.551  13.854 -1.3992  0.0627  0.0867
 1132TIP3   OH224810   6.487   0.075  11.080  0.0067 -0.3964  0.0709
 1132TIP3    H124811   6.440   0.159  11.083  0.9470  0.1161  1.5356
 1132TIP3    H224812   6.486   0.050  10.988 -0.3342  1.2035 -0.3875
 1133TIP3   OH224813   2.567   6.177  13.235 -0.3079  0.2054  0.6553
 1133TIP3    H124814   2.551   6.104  13.296 -1.7823 -0.1616 -0.1185
 1133TIP3    H224815   2.481   6.217  13.224 -0.3807 -0.5468 -2.1870
 1134TIP3   OH224816   6.521   4.157   4.687  0.4269  0.0109 -0.1091
 1134TIP3    H124817   6.519   4.109   4.770  1.7878 -0.5017 -0.3601
 1134TIP3    H224818   6.540   4.090   4.621 -0.2664  0.4774 -0.7956
 1135TIP3   OH224819   4.388   3.700  17.019  0.0819  0.0876 -0.1127
 1135TIP3    H124820   4.433   3.616  17.019  0.6675  0.3723 -1.4345
 1135TIP3    H224821   4.448   3.760  17.061 -0.2362 -0.0913  0.6132
 1136TIP3   OH224822   3.423   3.224   2.128 -0.1915 -0.5997  0.2328
 1136TIP3    H124823   3.342   3.241   2.081  0.8093  2.2426 -0.6640
 1136TIP3    H224824   3.398   3.164   2.198 -3.3225  1.0700  0.7081
 1137TIP3   OH224825   1.066   5.903   0.348 -0.5431 -0.0871 -1.0988
 1137TIP3    H124826   1.031   5.986   0.316  1.3261  0.9462 -0.6158
 1137TIP3    H224827   1.031   5.837   0.288 -0.0010  1.3618 -3.1152
 1138TIP3   OH224828   2.513   5.323  15.698 -0.0458  0.0836  0.0277
 1138TIP3    H124829   2.494   5.238  15.659 -0.6093  0.4443 -0.5012
 1138TIP3    H224830   2.603   5.316  15.729  0.9983  0.2647 -2.6814
 1139TIP3   OH224831   5.061   1.531  10.594  0.0286  0.1697 -0.0366
 1139TIP3    H124832   5.156   1.531  10.605 -0.1891  1.5223  2.4566
 1139TIP3    H224833   5.031   1.607  10.642 -2.1737  1.4000 -3.0217
 1140TIP3   OH224834   6.755   6.496  13.172 -0.4634  0.9150 -0.3549
 1140TIP3    H124835   6.715   6.419  13.212 -1.8160  1.7330 -0.0533
 1140TIP3    H224836   6.810   6.461  13.101 -0.1958 -0.3758  0.4604
 1141TIP3   OH224837   2.332   2.654  14.559 -0.1953  0.0067  0.0327
 1141TIP3    H124838   2.256   2.706  14.530  1.0659  1.3001 -1.1148
 1141TIP3    H224839   2.295   2.568  14.580 -2.5435  1.5316  2.9167
 1142TIP3   OH224840   0.257   2.280  16.108  0.0060  0.4046  0.4330
 1142TIP3    H124841   0.171   2.239  16.110  0.2502 -0.1622 -0.3615
 1142TIP3    H224842   0.315   2.214  16.069  0.4983  1.3275 -0.4606
 1143TIP3   OH224843   3.583   2.443  15.749  0.3121 -0.3683  0.2858
 1143TIP3    H124844   3.534   2.384  15.806 -1.7298  2.0395  1.1851
 1143TIP3    H224845   3.522   2.514  15.728  1.5998 -0.1384 -3.4074
 1144TIP3   OH224846   5.298   1.759  11.926 -0.5002 -0.1978  0.3071
 1144TIP3    H124847   5.297   1.838  11.872 -0.0683  0.0309  0.6265
 1144TIP3    H224848   5.232   1.702  11.887  0.7937 -0.6337 -1.3531
 1145TIP3   OH224849   6.510   4.551  16.176  0.1048  0.0777  0.1878
 1145TIP3    H124850   6.507   4.579  16.267 -0.6979  0.7423 -0.0307
 1145TIP3    H224851   6.457   4.471  16.174 -1.3579  1.0072  0.0083
 1146TIP3   OH224852   3.756   4.754  14.890 -0.0568 -0.3489 -0.4349
 1146TIP3    H124853   3.754   4.787  14.980 -2.6303 -0.3182 -0.4235
 1146TIP3    H224854   3.741   4.831  14.836 -1.1403 -0.7349 -0.7068
 1147TIP3   OH224855   0.352   4.622   5.396  0.1906 -0.2275  0.2816
 1147TIP3    H124856   0.391   4.681   5.461  0.3548 -0.5505  0.4800
 1147TIP3    H224857   0.271   4.666   5.370  0.1911 -0.0262  0.6038
 1148TIP3   OH224858   0.094   3.276   2.762 -0.0580  0.1336  0.1087
 1148TIP3    H124859   0.176   3.246   2.800  0.4978  1.3540 -0.0713
 1148TIP3    H224860   0.098   3.247   2.670  1.4566  2.4545 -0.6607
 1149TIP3   OH224861   6.314   0.706   0.764  0.0005  0.0258  0.6247
 1149TIP3    H124862   6.322   0.787   0.815  1.2388 -0.2695  0.9332
 1149TIP3    H224863   6.260   0.731   0.689 -1.6686  0.5286  1.9305
 1150TIP3   OH224864   6.465   4.414  11.447  0.2269 -0.8166  0.0999
 1150TIP3    H124865   6.430   4.326  11.431  0.6029 -0.8201 -0.7887
 1150TIP3    H224866   6.495   4.412  11.538  2.2926 -2.3552 -0.5127
 1151TIP3   OH224867   1.271   3.821  12.847 -0.0086  0.1571  0.3119
 1151TIP3    H124868   1.350   3.862  12.811 -0.3160  0.2320 -0.2745
 1151TIP3    H224869   1.235   3.770  12.775  0.1018 -0.7647  0.9009
 1152TIP3   OH224870   2.031   4.419   4.386  0.8205 -0.2229 -0.8088
 1152TIP3    H124871   2.022   4.427   4.291  2.4698  0.6363 -0.9430
 1152TIP3    H224872   2.124   4.403   4.399  0.7364  0.3769  0.6974
 1153TIP3   OH224873   5.968   5.584   3.382 -0.1582 -0.5941 -0.7850
 1153TIP3    H124874   5.950   5.490   3.379 -1.1463 -0.4200 -0.7030
 1153TIP3    H224875   5.881   5.625   3.390  0.1299  0.3921 -2.2982
 1154TIP3   OH224876   6.682   2.907   3.592  0.1806  0.3491  0.6997
 1154TIP3    H124877   6.689   2.988   3.543  0.6600 -0.2676 -0.2819
 1154TIP3    H224878   6.650   2.933   3.679  1.3519  1.6960  0.7495
 1155TIP3   OH224879   4.649   5.294   3.236  0.5465 -0.8489  0.2494
 1155TIP3    H124880   4.683   5.359   3.297 -0.7466 -0.7543  0.9031
 1155TIP3    H224881   4.557   5.285   3.260 -0.4245  0.2777 -2.6288
 1156TIP3   OH224882   3.990   4.937  16.783  0.0906 -1.3113 -0.3098
 1156TIP3    H124883   3.945   4.907  16.862  0.6577 -2.8241 -0.5158
 1156TIP3    H224884   3.920   4.957  16.722 -0.3435 -0.7894  0.3455
 1157TIP3   OH224885   0.307   5.473   2.350 -0.5648  0.2154 -0.4555
 1157TIP3    H124886   0.344   5.484   2.262  0.7069  3.7147  0.3521
 1157TIP3    H224887   0.355   5.399   2.387 -0.0098 -0.3197 -2.1451
 1158TIP3   OH224888   4.886   6.703   3.174  0.5412 -0.4327 -0.6357
 1158TIP3    H124889   4.965   6.733   3.129  0.2242  2.4234  0.5245
 1158TIP3    H224890   4.828   6.778   3.174 -1.2183 -1.7030  0.6915
 1159TIP3   OH224891   5.303   4.865   2.238 -0.0303 -0.0132  0.6541
 1159TIP3    H124892   5.386   4.821   2.220 -0.8561 -1.2453 -0.3395
 1159TIP3    H224893   5.327   4.941   2.291  1.7425 -0.2289  0.2250
 1160TIP3   OH224894   0.626   5.330  16.342 -0.4533  0.5812 -0.0026
 1160TIP3    H124895   0.658   5.262  16.401 -0.5878  0.7926  0.3191
 1160TIP3    H224896   0.539   5.353  16.377  0.6060  2.7352  1.4549
 1161TIP3   OH224897   3.915   4.746  17.041 -0.3621  0.6786  0.0603
 1161TIP3    H124898   3.956   4.728  17.126 -1.3938 -0.8582  0.2760
 1161TIP3    H224899   3.823   4.759  17.062 -0.6871 -0.0634 -0.8565
 1162TIP3   OH224900   1.793   1.797   3.605 -0.0634  0.1692 -0.1594
 1162TIP3    H124901   1.781   1.740   3.530  2.9932 -1.5300  0.4848
 1162TIP3    H224902   1.787   1.739   3.681  2.5253  0.6962  0.5497
 1163TIP3   OH224903   6.438   3.169   1.723  0.2575 -0.3324  0.5898
 1163TIP3    H124904   6.470   3.098   1.778 -1.6171  0.0245  2.2285
 1163TIP3    H224905   6.486   3.246   1.753  1.6694 -0.6972 -0.6134
 1164TIP3   OH224906   4.075   5.872   0.746  0.4490  0.2827 -0.1896
 1164TIP3    H124907   4.071   5.781   0.715  1.8136  0.2556 -0.3218
 1164TIP3    H224908   4.038   5.868   0.835 -0.1510 -0.2601 -0.4487
 1165TIP3   OH224909   2.336   0.175   2.614  0.3044  0.4989 -0.0121
 1165TIP3    H124910   2.368   0.243   2.555 -1.1873  0.3183 -1.0572
 1165TIP3    H224911   2.241   0.177   2.604  0.2169 -1.6029  0.1012
 1166TIP3   OH224912   5.821   3.653   4.392 -0.0142  0.2742  0.1941
 1166TIP3    H124913   5.851   3.562   4.385  1.5984  0.6673  1.5567
 1166TIP3    H224914   5.852   3.694   4.311 -1.1309 -0.4565 -0.6349
 1167TIP3   OH224915   4.846   1.057   2.287 -0.1098  0.0943 -0.2869
 1167TIP3    H124916   4.834   1.083   2.379 -1.9933  1.6359 -0.8930
 1167TIP3    H224917   4.811   0.968   2.282 -2.1210  0.8180  0.0932
 1168TIP3   OH224918   1.690   0.730  15.323  0.0091  0.7044 -0.3328
 1168TIP3    H124919   1.697   0.657  15.262 -0.2160 -0.9650  1.5291
 1168TIP3    H224920   1.772   0.728  15.372 -0.8632  0.3034  1.1733
 1169TIP3   OH224921   6.756   1.293   4.576  0.3414 -0.2209 -0.2620
 1169TIP3    H124922   6.687   1.314   4.639  1.4927  1.5277  0.5082
 1169TIP3    H224923   6.710   1.258   4.500 -1.4226  1.2056  0.0914
 1170TIP3   OH224924   3.705   1.630   2.692 -0.1817 -0.2576  0.3399
 1170TIP3    H124925   3.772   1.649   2.758 -0.5181  0.5296  0.4625
 1170TIP3    H224926   3.622   1.656   2.733 -0.2614  1.5689 -0.8710
 1171TIP3   OH224927   4.662   6.591   5.199 -0.4493 -0.0014  0.2103
 1171TIP3    H124928   4.755   6.601   5.177 -0.4596 -2.2369 -1.1610
 1171TIP3    H224929   4.656   6.505   5.242 -2.3078 -1.6961 -3.0740
 1172TIP3   OH224930   3.067   1.929  16.073  0.4700  0.0151  0.2610
 1172TIP3    H124931   3.158   1.929  16.043  0.2861  1.3502 -0.3807
 1172TIP3    H224932   3.022   1.870  16.013  0.1934  2.3113 -1.9635
 1173TIP3   OH224933   3.194   0.171   3.267 -0.2280  0.5087  0.2858
 1173TIP3    H124934   3.108   0.138   3.293  0.2236 -0.5874  0.4487
 1173TIP3    H224935   3.232   0.205   3.348  0.3155 -0.9332  0.6633
 1174TIP3   OH224936   3.203   5.395   6.643 -0.0975 -0.4593  0.0421
 1174TIP3    H124937   3.109   5.413   6.637 -0.3810 -1.6124  0.8481
 1174TIP3    H224938   3.213   5.304   6.614  0.7396 -0.4407  0.2361
 1175TIP3   OH224939   0.511   5.853   0.379 -0.8084 -0.2736  0.1708
 1175TIP3    H124940   0.449   5.822   0.313 -2.0214  0.6000  0.8706
 1175TIP3    H224941   0.597   5.830   0.344 -1.5000 -1.0828 -1.0438
 1176TIP3   OH224942   0.545   4.407   1.755 -0.3754  0.5752  0.2732
 1176TIP3    H124943   0.601   4.361   1.817 -0.4194  0.2376  0.0686
 1176TIP3    H224944   0.573   4.374   1.669 -1.1097  0.1403  0.1853
 1177TIP3   OH224945   2.753   3.135   2.568 -0.3720  0.0186 -0.1714
 1177TIP3    H124946   2.661   3.109   2.557 -0.5739  0.2294  0.9394
 1177TIP3    H224947   2.791   3.066   2.622 -0.2382  0.6612  0.5641
 1178TIP3   OH224948   5.604   0.800  11.284  0.2599 -0.3130  0.5923
 1178TIP3    H124949   5.608   0.708  11.310 -1.0910 -0.3505  0.7695
 1178TIP3    H224950   5.520   0.808  11.239  0.6472  0.6997  0.0096
 1179TIP3   OH224951   5.140   3.899   1.120 -0.9202 -0.6340  0.0766
 1179TIP3    H124952   5.229   3.872   1.097 -0.4282  0.4538  0.6898
 1179TIP3    H224953   5.146   3.992   1.137 -2.4954 -0.1986 -1.4291
 1180TIP3   OH224954   5.458   4.058   2.094  0.3328 -0.2573  0.0515
 1180TIP3    H124955   5.372   4.016   2.098  0.2773 -0.0465  1.6689
 1180TIP3    H224956   5.471   4.094   2.181  1.4971  0.8780 -0.5618
 1181TIP3   OH224957   0.416   0.752   3.144  0.2463  0.1396  0.1738
 1181TIP3    H124958   0.497   0.798   3.120  0.8417 -0.8381  0.2604
 1181TIP3    H224959   0.388   0.794   3.225  2.4556 -1.5725  1.9698
 1182TIP3   OH224960   1.314   5.570   4.451  0.0028 -0.0374  0.6167
 1182TIP3    H124961   1.306   5.509   4.524 -0.7589 -1.4248 -0.5751
 1182TIP3    H224962   1.288   5.655   4.488  0.5825 -0.4962  2.1751
 1183TIP3   OH224963   2.519   5.598  14.682  0.5142 -0.1079  0.3514
 1183TIP3    H124964   2.460   5.582  14.609  0.5646 -2.3112  0.7293
 1183TIP3    H224965   2.461   5.619  14.755 -0.1014 -3.9764  1.1741
 1184TIP3   OH224966   3.880   3.062   3.741  0.0439  0.1365 -0.1746
 1184TIP3    H124967   3.794   3.051   3.781 -0.1584  2.2525  0.0985
 1184TIP3    H224968   3.862   3.068   3.647 -0.1707  0.8498 -0.0980
 1185TIP3   OH224969   0.430   4.778  17.122 -0.0633  0.4725 -0.4611
 1185TIP3    H124970   0.351   4.771  17.175  2.0660 -0.7049  2.8832
 1185TIP3    H224971   0.456   4.687  17.107  1.0063  0.8549 -0.9984
 1186TIP3   OH224972   2.557   4.099  13.704 -0.2571  0.3083 -0.1033
 1186TIP3    H124973   2.524   4.093  13.614 -0.3082  0.4799 -0.0966
 1186TIP3    H224974   2.524   4.020  13.747 -1.6044  1.0160  0.2094
 1187TIP3   OH224975   0.125   6.110   2.270  0.4843 -0.4258  0.1142
 1187TIP3    H124976   0.109   6.111   2.364  2.3122  3.2846  0.5750
 1187TIP3    H224977   0.212   6.147   2.260 -0.7212  2.0599 -3.1062
 1188TIP3   OH224978   0.129   4.506   5.988  0.6638  0.0531  0.1926
 1188TIP3    H124979   0.092   4.441   5.929  1.3992  0.3569 -0.6179
 1188TIP3    H224980   0.087   4.488   6.072  0.1130 -0.8211 -0.2531
 1189TIP3   OH224981   6.607   6.367  11.450 -0.2957  0.0780 -0.7673
 1189TIP3    H124982   6.686   6.386  11.400  0.0689  0.2367 -0.1334
 1189TIP3    H224983   6.637   6.355  11.540 -1.0872  1.0612 -0.3502
 1190TIP3   OH224984   1.969   0.077  14.977 -0.2311  0.3921 -0.6939
 1190TIP3    H124985   1.925   0.131  14.911 -0.8367  0.3787 -0.3054
 1190TIP3    H224986   1.901   0.018  15.008  0.0905  0.3021 -0.1602
 1191TIP3   OH224987   4.633   3.954   0.847 -0.4162  0.4910  0.4304
 1191TIP3    H124988   4.632   3.965   0.942 -0.1020  0.8658  0.3941
 1191TIP3    H224989   4.583   3.874   0.831  0.6759 -0.3516  1.0225
 1192TIP3   OH224990   3.789   4.173  17.138 -0.2022 -0.1572  0.6088
 1192TIP3    H124991   3.748   4.157  17.224 -0.8508 -1.5665  0.0778
 1192TIP3    H224992   3.796   4.086  17.099 -1.4337  0.5915 -1.4474
 1193TIP3   OH224993   6.737   6.099  11.923 -0.0954 -0.5364 -0.0277
 1193TIP3    H124994   6.751   6.025  11.864 -0.6637 -0.3401 -0.4230
 1193TIP3    H224995   6.800   6.166  11.894 -2.5624  0.8519 -2.6616
 1194TIP3   OH224996   5.351   1.924  15.176  0.3563 -0.5909  0.7930
 1194TIP3    H124997   5.398   1.897  15.097 -1.1672 -1.7321  0.2392
 1194TIP3    H224998   5.353   2.020  15.173  1.8796 -0.6079  0.3490
 1195TIP3   OH224999   0.706   3.448  11.817  0.2851  0.0113  0.2557
 1195TIP3    H125000   0.630   3.419  11.767  0.1310  0.6319  0.1227
 1195TIP3    H225001   0.761   3.370  11.824 -0.1172 -0.3100 -0.0957
 1196TIP3   OH225002   3.700   1.647   4.687 -0.3667  0.4826 -0.1397
 1196TIP3    H125003   3.745   1.730   4.673 -0.5280  0.8397  1.2967
 1196TIP3    H225004   3.719   1.596   4.609  0.5466  1.5106 -0.6151
 1197TIP3   OH225005   6.095   0.398   0.400 -0.0577 -0.2944  0.1045
 1197TIP3    H125006   6.061   0.316   0.363  1.1792 -0.3001 -1.0904
 1197TIP3    H225007   6.174   0.372   0.447 -0.8724 -0.0797  1.6559
 1198TIP3   OH225008   3.903   1.014  12.139  0.0823  0.1597 -0.9337
 1198TIP3    H125009   3.859   1.025  12.223  2.5640 -0.3056  0.5232
 1198TIP3    H225010   3.907   1.103  12.103  0.3342  0.6213  0.1750
 1199TIP3   OH225011   1.351   5.391   4.211  0.9291 -0.1811 -0.2346
 1199TIP3    H125012   1.297   5.315   4.235 -0.2943  0.1971 -1.6501
 1199TIP3    H225013   1.355   5.443   4.292 -0.2324 -0.5858  0.1074
 1200TIP3   OH225014   6.571   0.848   4.386  0.2135  0.1471 -0.0802
 1200TIP3    H125015   6.491   0.815   4.345  0.5380 -0.7356 -0.0172
 1200TIP3    H225016   6.577   0.939   4.356 -1.3280  0.5386  0.6946
 1201TIP3   OH225017   3.249   4.469   6.422 -0.2545 -0.2438  0.5182
 1201TIP3    H125018   3.320   4.405   6.427 -2.0940 -2.2831  2.9287
 1201TIP3    H225019   3.258   4.521   6.502 -1.5523 -0.6671  0.9635
 1202TIP3   OH225020   3.685   0.756   4.755 -0.2934  0.3027  0.0029
 1202TIP3    H125021   3.685   0.728   4.663  0.5182 -0.7795  0.3122
 1202TIP3    H225022   3.592   0.769   4.775 -0.7404 -1.9263 -0.2818
 1203TIP3   OH225023   1.302   2.193  14.459  0.1651  0.3579 -0.4182
 1203TIP3    H125024   1.331   2.270  14.508 -0.3823  0.8631 -0.8730
 1203TIP3    H225025   1.383   2.154  14.426  0.4556  0.6571 -0.0767
 1204TIP3   OH225026   6.538   6.605  16.143 -0.4114  0.0662 -0.0058
 1204TIP3    H125027   6.523   6.678  16.083 -1.8373 -0.7891 -0.7579
 1204TIP3    H225028   6.631   6.586  16.135 -0.3952  0.5718 -1.2763
 1205TIP3   OH225029   5.439   0.807   0.844 -0.8841 -0.0006  0.5884
 1205TIP3    H125030   5.392   0.869   0.901 -0.6577 -0.3462  1.1541
 1205TIP3    H225031   5.370   0.770   0.788 -0.7943  2.1149 -1.0877
 1206TIP3   OH225032   2.924   1.759  15.916 -0.0543  0.0901  0.4480
 1206TIP3    H125033   2.850   1.789  15.969 -1.2062  1.2238 -1.6512
 1206TIP3    H225034   2.898   1.778  15.826  3.2050  1.4829 -0.3688
 1207TIP3   OH225035   5.174   5.561  10.803  0.6175  0.2103 -0.3446
 1207TIP3    H125036   5.138   5.549  10.891 -1.2827  0.4156 -1.0495
 1207TIP3    H225037   5.103   5.537  10.745  1.8218  0.1471 -1.8514
 1208TIP3   OH225038   3.548   0.579  16.023 -0.5595  0.1821  0.0518
 1208TIP3    H125039   3.591   0.508  15.975 -1.3527  0.0052 -0.4094
 1208TIP3    H225040   3.458   0.549  16.035 -0.7143  0.8023  0.4816
 1209TIP3   OH225041   0.189   5.755   1.062 -0.3310  0.5123 -0.5292
 1209TIP3    H125042   0.265   5.802   1.030 -0.8487  0.9581 -1.1306
 1209TIP3    H225043   0.150   5.814   1.127  0.5042 -0.2291  0.6888
 1210TIP3   OH225044   0.235   3.569  12.659  0.3044  0.4970  0.1510
 1210TIP3    H125045   0.262   3.479  12.643  1.3440  0.8465 -0.1193
 1210TIP3    H225046   0.192   3.566  12.745 -1.0799 -0.5159 -0.5340
 1211TIP3   OH225047   2.834   5.812   3.555  0.1713 -0.0226 -0.0083
 1211TIP3    H125048   2.767   5.848   3.614  0.6825  0.9593 -0.0115
 1211TIP3    H225049   2.794   5.732   3.520  0.1311 -1.0624  2.2375
 1212TIP3   OH225050   5.373   1.716  14.457 -0.4005 -0.1693  0.0240
 1212TIP3    H125051   5.442   1.688  14.518  0.3118  0.9534 -0.2477
 1212TIP3    H225052   5.404   1.798  14.421 -1.3566 -0.2284 -0.9976
 1213TIP3   OH225053   2.023   2.702  12.750  0.7022 -0.3656  0.6601
 1213TIP3    H125054   2.082   2.741  12.685  0.1008 -0.0059  0.3188
 1213TIP3    H225055   2.074   2.702  12.832  0.7040  1.2271  0.6941
 1214TIP3   OH225056   1.105   4.392  14.353 -0.5755 -0.0903  0.0485
 1214TIP3    H125057   1.176   4.357  14.299 -1.0628  0.7069 -1.1429
 1214TIP3    H225058   1.058   4.315  14.385 -0.5683 -0.5730 -1.0659
 1215TIP3   OH225059   0.015   1.803  11.340  0.3626  0.4546 -0.5881
 1215TIP3    H125060  -0.066   1.846  11.313 -0.7421 -0.3261  1.2676
 1215TIP3    H225061   0.012   1.717  11.298  0.2579  0.4563 -0.5853
 1216TIP3   OH225062   2.947   6.601  16.916 -0.3521  0.3457 -0.1286
 1216TIP3    H125063   2.907   6.612  16.830 -1.3607  2.4167  0.5160
 1216TIP3    H225064   2.976   6.689  16.940  2.5537 -0.6653  0.4744
 1217TIP3   OH225065   0.774   3.579  12.056  0.8536 -0.0525 -0.0153
 1217TIP3    H125066   0.821   3.621  11.983  0.0488  0.0470 -0.4824
 1217TIP3    H225067   0.722   3.510  12.014  0.2500  0.1233  0.4394
 1218TIP3   OH225068   3.819   4.695   0.650  0.2510 -0.3485 -0.2407
 1218TIP3    H125069   3.864   4.662   0.728  0.2165 -0.3442 -0.2187
 1218TIP3    H225070   3.787   4.782   0.675 -0.6881 -0.7756  0.1047
 1219TIP3   OH225071   1.825   0.752   2.170 -0.1943 -0.0956 -0.3460
 1219TIP3    H125072   1.798   0.661   2.183 -0.1963 -0.2676 -1.4866
 1219TIP3    H225073   1.879   0.771   2.246  0.3082 -1.2488 -0.3877
 1220TIP3   OH225074   5.187   6.024  16.873  0.4982  0.4935 -0.0490
 1220TIP3    H125075   5.245   5.956  16.837  2.0304  1.3042  0.7666
 1220TIP3    H225076   5.148   6.065  16.796 -0.4063 -1.2274 -0.5660
 1221TIP3   OH225077   5.305   2.194  15.116  0.6176  0.1364 -0.7662
 1221TIP3    H125078   5.299   2.240  15.032  0.0675  1.0111 -0.2712
 1221TIP3    H225079   5.257   2.250  15.177 -0.0068 -1.0746 -0.1132
 1222TIP3   OH225080   3.090   3.435   4.740 -0.2086 -0.3049 -0.2961
 1222TIP3    H125081   3.163   3.489   4.710 -1.1712  0.4015 -1.5078
 1222TIP3    H225082   3.114   3.408   4.828  1.3392  0.1996 -0.5293
 1223TIP3   OH225083   0.788   2.256   1.283  0.0252 -0.0441  0.7284
 1223TIP3    H125084   0.804   2.325   1.220  0.6355  1.0385  2.0147
 1223TIP3    H225085   0.868   2.203   1.283  0.2825  0.3422  1.0559
 1224TIP3   OH225086   0.873   2.463  17.209 -0.3587  0.1383 -0.2278
 1224TIP3    H125087   0.966   2.482  17.202 -0.4989  1.1482  0.4029
 1224TIP3    H225088   0.854   2.475  17.302 -1.0896 -0.2329 -0.3227
 1225TIP3   OH225089   0.037   5.665  14.908  0.2941  0.1116 -0.3422
 1225TIP3    H125090  -0.046   5.648  14.953 -1.2271  0.8186 -2.7352
 1225TIP3    H225091   0.089   5.714  14.972 -0.2312 -2.1154  1.9811
 1226TIP3   OH225092   1.966   6.756  14.163 -0.8714  0.2923 -0.5183
 1226TIP3    H125093   1.940   6.726  14.076  1.8943  0.2832 -1.4388
 1226TIP3    H225094   1.900   6.822  14.186 -2.4319 -0.6596 -1.9915
 1227TIP3   OH225095   4.189   4.877  15.437 -0.4264  0.1179 -0.6231
 1227TIP3    H125096   4.272   4.841  15.405 -1.8253 -1.4417 -2.7594
 1227TIP3    H225097   4.131   4.801  15.445 -1.6617  1.1517  0.9414
 1228TIP3   OH225098   3.584   0.570  12.889  0.1515 -0.0144  0.6747
 1228TIP3    H125099   3.667   0.616  12.898  1.4328 -1.6848 -1.5556
 1228TIP3    H225100   3.557   0.584  12.798 -1.1502 -0.8494  0.8916
 1229TIP3   OH225101   3.137   3.832   1.083 -0.0933  0.0299 -0.3388
 1229TIP3    H125102   3.088   3.752   1.097 -0.7090  0.4179 -0.2405
 1229TIP3    H225103   3.071   3.902   1.085  0.2756  0.4348 -1.5915
 1230TIP3   OH225104   1.547   5.392   3.777 -0.0874  0.1453 -0.0589
 1230TIP3    H125105   1.561   5.388   3.872  0.3292 -2.5555 -0.1601
 1230TIP3    H225106   1.452   5.381   3.766 -0.0834  0.0163  0.0357
 1231TIP3   OH225107   1.044   0.430  16.853 -0.6360 -0.1842  0.4567
 1231TIP3    H125108   1.085   0.381  16.782 -0.3081 -0.9052  1.1284
 1231TIP3    H225109   1.116   0.449  16.914 -0.4428  2.4566 -0.4823
 1232TIP3   OH225110   0.892   0.963  11.120 -0.5029  0.7002 -0.2531
 1232TIP3    H125111   0.969   0.999  11.163 -0.7176 -2.6601  3.5813
 1232TIP3    H225112   0.927   0.900  11.057 -0.0197 -0.3258  0.9955
 1233TIP3   OH225113   3.643   5.135   4.496  0.0563 -0.1124  0.0226
 1233TIP3    H125114   3.586   5.129   4.419  0.1253  1.2169 -0.1642
 1233TIP3    H225115   3.709   5.068   4.483 -1.6270 -1.9231  0.3931
 1234TIP3   OH225116   6.719   3.088  16.055 -0.1018 -0.1202  0.3491
 1234TIP3    H125117   6.670   3.034  15.993  0.3125  0.4520 -0.4830
 1234TIP3    H225118   6.691   3.178  16.037  1.1311  0.2020 -0.0417
 1235TIP3   OH225119   3.617   1.178   6.485 -0.2834  0.1641 -0.5552
 1235TIP3    H125120   3.701   1.190   6.440  0.2221 -0.8714  0.0531
 1235TIP3    H225121   3.584   1.094   6.452 -0.0952 -0.4187  0.6653
 1236TIP3   OH225122   5.377   6.765  17.050  0.4267 -0.2870 -0.4847
 1236TIP3    H125123   5.459   6.786  17.095  1.4207 -0.3892 -2.1504
 1236TIP3    H225124   5.400   6.764  16.957 -1.5950  0.2268 -1.0529
 1237TIP3   OH225125   0.866   3.704   1.247  0.3401  0.0107  0.6752
 1237TIP3    H125126   0.960   3.708   1.227  0.0470  1.6892 -0.6569
 1237TIP3    H225127   0.824   3.725   1.163 -1.2533 -1.3469  1.0999
 1238TIP3   OH225128   1.869   6.464   0.200  0.1549  0.0084  0.5657
 1238TIP3    H125129   1.851   6.540   0.256  0.0636  0.3693  0.0604
 1238TIP3    H225130   1.787   6.447   0.155  0.5900  0.6037 -0.4924
 1239TIP3   OH225131   6.272   3.520   0.212 -0.0957  0.0612  0.0954
 1239TIP3    H125132   6.237   3.482   0.132 -1.1599 -0.3935  0.7400
 1239TIP3    H225133   6.360   3.484   0.220  1.3261  2.5536 -2.4701
 1240TIP3   OH225134   5.987   1.860  12.437  0.0376 -0.5190  0.1858
 1240TIP3    H125135   5.975   1.810  12.356 -1.7303  0.6345 -0.3178
 1240TIP3    H225136   6.015   1.794  12.501  0.3569 -1.6631 -1.0736
 1241TIP3   OH225137   5.932   1.821  16.210  0.3233 -0.2524  0.2835
 1241TIP3    H125138   5.854   1.832  16.154  0.9385 -0.4174 -0.6232
 1241TIP3    H225139   5.896   1.795  16.295 -0.6846  0.7831  0.2140
 1242TIP3   OH225140   2.453   3.804  15.382  0.7267 -0.1577  0.4212
 1242TIP3    H125141   2.541   3.840  15.395  0.1586  1.0108  1.1761
 1242TIP3    H225142   2.401   3.879  15.352  0.5596 -1.4051 -2.7790
 1243TIP3   OH225143   2.745   5.166  11.740  0.0331  0.3785 -0.4111
 1243TIP3    H125144   2.803   5.117  11.798 -0.6800  0.8805  0.7626
 1243TIP3    H225145   2.685   5.099  11.704 -0.2492  0.2257  0.3350
 1244TIP3   OH225146   2.712   5.682   3.907 -0.4192 -0.0061  0.3532
 1244TIP3    H125147   2.781   5.701   3.970 -0.7494 -0.2124  0.7814
 1244TIP3    H225148   2.701   5.587   3.912  1.6446 -0.4909 -2.1947
 1245TIP3   OH225149   3.626   5.951  16.682  0.2970  0.3002 -0.0108
 1245TIP3    H125150   3.680   5.898  16.624  0.5858 -0.2959  0.7961
 1245TIP3    H225151   3.540   5.953  16.639  1.0636  1.7958 -1.6436
 1246TIP3   OH225152   3.339   3.789  17.216  0.2347 -0.0170  0.2403
 1246TIP3    H125153   3.368   3.716  17.161  0.1661 -1.3052  1.8106
 1246TIP3    H225154   3.372   3.867  17.172  0.8920 -1.0338 -1.1643
 1247TIP3   OH225155   6.045   1.089  11.771  0.0241  0.2944  0.2840
 1247TIP3    H125156   5.985   1.024  11.734 -0.7102  1.8217 -1.3712
 1247TIP3    H225157   6.060   1.151  11.700  1.1860  1.6108  1.6093
 1248TIP3   OH225158   6.584   4.591  13.181 -0.0240 -0.6422 -0.1784
 1248TIP3    H125159   6.628   4.544  13.252 -1.5802 -0.8259  0.6957
 1248TIP3    H225160   6.650   4.596  13.112  1.0978 -1.6240  0.7779
 1249TIP3   OH225161   5.827   2.286   1.675  0.2154  0.0664 -0.3716
 1249TIP3    H125162   5.867   2.224   1.735 -0.7070 -0.2553 -0.0716
 1249TIP3    H225163   5.892   2.357   1.666  1.1484 -0.7847 -0.4865
 1250TIP3   OH225164   3.130   3.896  16.934 -0.2007  0.5746 -0.3922
 1250TIP3    H125165   3.055   3.894  16.875 -2.3919  0.7502  2.1738
 1250TIP3    H225166   3.094   3.928  17.017  2.4917 -0.4454  1.2984
 1251TIP3   OH225167   3.522   5.673  14.540  0.0335  0.0117  0.5784
 1251TIP3    H125168   3.474   5.618  14.478 -0.1864  0.3444  0.4507
 1251TIP3    H225169   3.496   5.641  14.626  2.4815 -2.3893  0.5847
 1252TIP3   OH225170   2.141   0.784   3.250 -0.0048  0.2134  0.4681
 1252TIP3    H125171   2.137   0.698   3.208  0.9760  0.2028  0.3819
 1252TIP3    H225172   2.077   0.779   3.321 -0.2556 -0.4408  0.2010
 1253TIP3   OH225173   1.359   6.388   3.867 -0.1433  0.1214  0.1052
 1253TIP3    H125174   1.362   6.456   3.800 -2.0351 -0.3017 -0.4753
 1253TIP3    H225175   1.268   6.359   3.868  0.2646 -1.2811  1.4771
 1254TIP3   OH225176   6.433   5.038   4.917 -0.0345 -0.0981 -0.4132
 1254TIP3    H125177   6.396   5.031   4.829 -0.3998 -0.2720 -0.2443
 1254TIP3    H225178   6.518   4.994   4.910 -1.0424 -2.1897 -0.0986
 1255TIP3   OH225179   3.567   6.289   2.828  0.0972 -0.4687  0.3057
 1255TIP3    H125180   3.556   6.268   2.920  0.8136 -0.3098  0.4337
 1255TIP3    H225181   3.648   6.245   2.802  1.8008  2.1957  0.6532
 1256TIP3   OH225182   5.830   3.231  14.784  0.0315  0.7900 -0.0097
 1256TIP3    H125183   5.759   3.168  14.766  0.7539 -0.7676  2.1569
 1256TIP3    H225184   5.786   3.316  14.784 -1.2194  0.2244 -1.7910
 1257TIP3   OH225185   3.975   1.898  12.141 -0.5054  0.2733 -0.5336
 1257TIP3    H125186   3.991   1.812  12.102 -2.3352 -0.5292  0.3627
 1257TIP3    H225187   4.045   1.909  12.205 -0.7894 -1.0056  0.0236
 1258TIP3   OH225188   4.836   1.094  12.923  0.2993  0.4063 -0.3000
 1258TIP3    H125189   4.745   1.085  12.895 -0.4122  1.9196  1.3172
 1258TIP3    H225190   4.846   1.187  12.942  1.4760 -0.1076  1.8695
 1259TIP3   OH225191   4.929   0.285   3.259  0.6477 -0.6131 -0.0978
 1259TIP3    H125192   4.935   0.238   3.342  0.4730  0.6252  0.6470
 1259TIP3    H225193   4.969   0.370   3.277  0.4745 -0.2756 -1.2492
 1260TIP3   OH225194   6.687   5.711  16.209  0.2654  0.4400  0.6630
 1260TIP3    H125195   6.637   5.792  16.217 -0.1497  0.1706  0.8536
 1260TIP3    H225196   6.684   5.672  16.296  1.8619  1.0125  1.0165
 1261TIP3   OH225197   2.899   5.888  15.969 -0.6584  0.2689 -0.3697
 1261TIP3    H125198   2.876   5.846  16.052 -3.2172  2.4593  0.1634
 1261TIP3    H225199   2.823   5.873  15.912 -0.6354  2.0493 -0.9418
 1262TIP3   OH225200   1.777   1.822   4.647 -0.5213  0.0871 -0.1514
 1262TIP3    H125201   1.829   1.879   4.590  1.6138 -0.7015  0.9113
 1262TIP3    H225202   1.787   1.860   4.734  0.8642 -1.7901  0.5610
 1263TIP3   OH225203   3.590   2.421  15.206  0.5911  0.1460 -0.0470
 1263TIP3    H125204   3.660   2.382  15.154  0.4196  0.0089 -0.1740
 1263TIP3    H225205   3.627   2.430  15.294 -0.2074 -2.7713  0.6944
 1264TIP3   OH225206   5.367   1.756   3.115 -0.0841  0.0920 -0.2925
 1264TIP3    H125207   5.397   1.787   3.030 -1.0503  1.3098 -0.2297
 1264TIP3    H225208   5.322   1.674   3.096  0.3484 -0.0197 -0.8519
 1265TIP3   OH225209   6.558   1.259  16.409  0.5210 -0.7501 -0.2046
 1265TIP3    H125210   6.590   1.340  16.370 -0.2483 -0.9455 -1.2843
 1265TIP3    H225211   6.509   1.288  16.486  0.9692 -0.2605 -0.0945
 1266TIP3   OH225212   5.792   1.035   1.478  0.0216 -0.0056  0.4376
 1266TIP3    H125213   5.720   1.029   1.541  1.0825 -0.0108  1.6758
 1266TIP3    H225214   5.770   1.111   1.423 -1.0925 -0.2247  0.5645
 1267TIP3   OH225215   3.712   2.221   3.747  0.0176 -0.3350 -0.3451
 1267TIP3    H125216   3.680   2.270   3.823 -2.0180 -1.5638 -0.3490
 1267TIP3    H225217   3.635   2.207   3.693  1.1558 -0.8112 -1.9052
 1268TIP3   OH225218   3.612   0.717   2.827 -0.1163 -0.4437  0.4209
 1268TIP3    H125219   3.617   0.805   2.866  1.1516  0.5212 -1.6944
 1268TIP3    H225220   3.702   0.686   2.826 -0.2876 -0.9417 -0.6043
 1269TIP3   OH225221   0.305   5.466  14.185  0.1017  0.4693 -0.2749
 1269TIP3    H125222   0.249   5.511  14.122 -1.3471 -0.3114  0.4058
 1269TIP3    H225223   0.265   5.486  14.270  1.9728  1.4534  0.4345
 1270TIP3   OH225224   1.202   1.532  14.023 -0.2724  0.1924  0.6161
 1270TIP3    H125225   1.117   1.506  13.988 -0.0944  0.2184  0.1621
 1270TIP3    H225226   1.239   1.451  14.057  0.0132 -0.0412 -0.2307
 1271TIP3   OH225227   3.962   3.696   1.732 -0.0587 -0.1694 -0.2419
 1271TIP3    H125228   4.034   3.714   1.793  0.8815  0.8106 -1.5844
 1271TIP3    H225229   3.952   3.601   1.735  0.1416 -0.1718  1.2161
 1272TIP3   OH225230   3.901   5.607   1.695 -0.1444  0.3807  0.2343
 1272TIP3    H125231   3.905   5.676   1.628 -0.5294 -0.1995 -0.4089
 1272TIP3    H225232   3.815   5.567   1.682 -0.5765  0.8000  1.6486
 1273TIP3   OH225233   4.122   5.391  12.816 -0.9296 -0.0130 -0.0406
 1273TIP3    H125234   4.171   5.334  12.756 -1.6641 -0.7595  0.0610
 1273TIP3    H225235   4.137   5.352  12.903 -1.7152 -0.2576 -0.0128
 1274TIP3   OH225236   3.986   6.076   4.931  0.0346 -0.2566  0.6087
 1274TIP3    H125237   3.975   6.044   5.021  0.7816  0.8384  1.1177
 1274TIP3    H225238   4.049   6.015   4.892  0.0540 -0.4794  0.9780
 1275TIP3   OH225239   0.975   3.858  15.136 -0.3727  0.2547 -0.0713
 1275TIP3    H125240   0.982   3.786  15.073 -0.9640 -0.5861  0.7936
 1275TIP3    H225241   0.888   3.848  15.174 -0.3478  1.2617  0.2725
 1276TIP3   OH225242   5.789   4.719  12.650  0.3465  0.7992  0.0683
 1276TIP3    H125243   5.789   4.652  12.581  1.4135  0.4591  0.3704
 1276TIP3    H225244   5.708   4.768  12.636  0.0821  0.1384 -0.8405
 1277TIP3   OH225245   6.048   0.487  17.157  0.3081 -0.0445 -0.1022
 1277TIP3    H125246   5.964   0.453  17.187  0.2983  0.6313  0.6722
 1277TIP3    H225247   6.074   0.550  17.224  0.6915  0.8994 -1.0966
 1278TIP3   OH225248   5.161   5.562   0.457  0.1943  0.3719  0.0731
 1278TIP3    H125249   5.255   5.571   0.472  0.2091  0.3430 -0.0010
 1278TIP3    H225250   5.147   5.468   0.447 -0.3462  0.0017  3.3938
 1279TIP3   OH225251   3.178   1.584   5.411  0.3987  0.2578 -0.1804
 1279TIP3    H125252   3.142   1.498   5.432  0.1934  0.0692 -1.2585
 1279TIP3    H225253   3.116   1.647   5.448 -0.1425 -0.0645 -0.5340
 1280TIP3   OH225254   5.063   2.154   3.047  0.4216  0.1980 -0.0986
 1280TIP3    H125255   5.121   2.138   2.972 -2.4929 -1.1404 -2.2908
 1280TIP3    H225256   5.011   2.230   3.020  0.0754  0.3879  1.0828
 1281TIP3   OH225257   6.204   4.196  14.356 -0.4945  0.5069  0.0565
 1281TIP3    H125258   6.286   4.227  14.395 -0.3680 -1.0288  1.1273
 1281TIP3    H225259   6.224   4.190  14.262  1.0485 -0.8660  0.4019
 1282TIP3   OH225260   4.138   1.229   5.044 -0.1170 -0.2062 -0.0391
 1282TIP3    H125261   4.186   1.201   4.966 -0.8301  0.9006 -0.9103
 1282TIP3    H225262   4.067   1.284   5.010  0.1443  1.1257  1.4477
 1283TIP3   OH225263   3.018   3.784  14.613  0.2977 -0.0837 -0.5182
 1283TIP3    H125264   2.949   3.850  14.609  1.2838  1.0991  0.9716
 1283TIP3    H225265   3.099   3.834  14.605  1.0534 -1.1888  0.0659
 1284TIP3   OH225266   0.302   4.075  11.642  0.4320  0.5278 -0.3904
 1284TIP3    H125267   0.376   4.129  11.671  0.4107  0.6425 -0.5506
 1284TIP3    H225268   0.322   4.054  11.551  0.6780 -0.1390 -0.1920
 1285TIP3   OH225269   2.987   2.406   3.769 -1.1109 -0.5186  0.4398
 1285TIP3    H125270   3.038   2.466   3.824  0.6039 -0.4700 -1.1132
 1285TIP3    H225271   3.009   2.319   3.800  0.2988 -0.5161 -0.4827
 1286TIP3   OH225272   3.574   4.555  11.452  0.5221 -0.2800 -0.1588
 1286TIP3    H125273   3.632   4.480  11.441  1.4044  0.1939  0.9831
 1286TIP3    H225274   3.596   4.613  11.380  0.7763 -0.5367 -0.2915
 1287TIP3   OH225275   4.910   6.673  16.424 -0.2812  0.1810  0.1208
 1287TIP3    H125276   4.832   6.619  16.436 -2.3708  2.2004 -2.8737
 1287TIP3    H225277   4.896   6.749  16.481 -1.9156  1.7286 -2.1427
 1288TIP3   OH225278   2.371   2.754  12.379 -0.5554 -0.0960 -0.2156
 1288TIP3    H125279   2.420   2.684  12.336 -1.9268 -2.5835  1.9967
 1288TIP3    H225280   2.436   2.821  12.397  1.2465 -1.6386 -0.6803
 1289TIP3   OH225281   3.189   3.147   4.792  0.0111 -0.4226  0.8929
 1289TIP3    H125282   3.142   3.214   4.744  0.3771 -0.8346 -0.0520
 1289TIP3    H225283   3.134   3.069   4.787 -0.6109 -0.1128  2.3382
 1290TIP3   OH225284   1.075   0.093   4.741  0.2017  0.4979  0.1556
 1290TIP3    H125285   1.049   0.176   4.703  1.1988  1.3141  1.1909
 1290TIP3    H225286   1.046   0.027   4.678 -2.7570  1.4281  0.4301
 1291TIP3   OH225287   0.680   3.676   4.827 -0.3860 -0.2829 -0.3762
 1291TIP3    H125288   0.670   3.597   4.880  1.4679 -0.7171 -0.5921
 1291TIP3    H225289   0.744   3.652   4.760 -0.4749  1.1423 -1.0138
 1292TIP3   OH225290   3.011   2.217   3.380 -0.2223 -0.5289 -0.1309
 1292TIP3    H125291   3.083   2.243   3.323 -1.6148 -0.5980 -2.0210
 1292TIP3    H225292   2.935   2.265   3.346 -1.3187 -1.3883  1.0087
 1293TIP3   OH225293   6.063   1.668  13.929  0.5783 -0.6672  0.3910
 1293TIP3    H125294   5.988   1.615  13.901  0.6965 -1.2070  1.0745
 1293TIP3    H225295   6.122   1.605  13.970  2.3117 -0.6203 -1.8007
 1294TIP3   OH225296   6.166   6.653   1.882 -0.2692  0.4008 -0.1766
 1294TIP3    H125297   6.235   6.718   1.867 -1.2105  1.3304 -0.5986
 1294TIP3    H225298   6.129   6.637   1.796  0.6408 -1.5362 -0.2461
 1295TIP3   OH225299   3.837   6.612  16.235  0.4320 -0.3139  0.5550
 1295TIP3    H125300   3.798   6.530  16.206  0.0049  0.5283 -1.4403
 1295TIP3    H225301   3.798   6.678  16.178  2.8015  0.9331  0.2628
 1296TIP3   OH225302   3.388   0.252   3.862  0.2187 -0.0006  0.4498
 1296TIP3    H125303   3.391   0.294   3.776  1.5619 -0.8518  0.0637
 1296TIP3    H225304   3.294   0.249   3.883 -0.2340 -0.6705 -1.4335
 1297TIP3   OH225305   5.596   0.074   0.832  0.0707  0.2831 -0.0131
 1297TIP3    H125306   5.521   0.031   0.873  0.5124  0.8686  1.4554
 1297TIP3    H225307   5.645   0.112   0.905  1.1899  0.8830 -1.0457
 1298TIP3   OH225308   3.165   6.704   0.510  0.0883  0.4375 -0.0385
 1298TIP3    H125309   3.121   6.625   0.543  0.3011  0.8020  1.1596
 1298TIP3    H225310   3.102   6.742   0.449 -0.2981 -0.2897 -0.1058
 1299TIP3   OH225311   2.529   5.778  12.457  0.3428  0.3179  0.1372
 1299TIP3    H125312   2.588   5.831  12.404  0.4132 -1.3017 -1.4741
 1299TIP3    H225313   2.444   5.822  12.447  0.5061  0.4635 -0.7042
 1300TIP3   OH225314   5.933   0.978  14.269 -0.0071 -0.2074  0.4744
 1300TIP3    H125315   5.857   0.999  14.215  0.1834  1.2542  0.7364
 1300TIP3    H225316   5.898   0.965  14.357 -0.0725 -0.5646  0.3968
 1301TIP3   OH225317   3.715   5.903   0.860 -0.3901 -0.0374 -0.4810
 1301TIP3    H125318   3.641   5.880   0.916  0.8731 -0.3422  1.1268
 1301TIP3    H225319   3.793   5.883   0.913  0.9627 -2.5872 -3.1258
 1302TIP3   OH225320   1.055   5.593   0.724 -0.5979  0.3787 -0.3458
 1302TIP3    H125321   1.146   5.570   0.744 -0.0433  1.0933 -1.8486
 1302TIP3    H225322   1.005   5.563   0.799  0.6032 -1.8888 -0.3778
 1303TIP3   OH225323   3.071   4.976   4.630  0.3287 -0.1446  0.5790
 1303TIP3    H125324   3.027   5.055   4.659  0.9824 -0.0023  1.2059
 1303TIP3    H225325   3.000   4.918   4.603 -0.0975  1.6696 -2.7069
 1304TIP3   OH225326   4.800   1.199   4.767 -0.0806 -0.4137  0.6147
 1304TIP3    H125327   4.728   1.224   4.709 -0.0733 -1.2606  0.2306
 1304TIP3    H225328   4.877   1.244   4.730 -0.4463  0.7847  1.2350
 1305TIP3   OH225329   0.404   4.608   3.407  0.2992 -0.1664 -0.0067
 1305TIP3    H125330   0.420   4.617   3.501  1.4385 -0.8366 -0.1208
 1305TIP3    H225331   0.459   4.675   3.367 -1.3736  1.2095 -0.1554
 1306TIP3   OH225332   1.604   5.135   5.957 -0.0786 -0.0820 -0.3231
 1306TIP3    H125333   1.637   5.224   5.943 -0.9156  0.3913  0.6101
 1306TIP3    H225334   1.585   5.103   5.869  0.7367  0.4641 -0.7058
 1307TIP3   OH225335   4.528   0.687  14.314  0.3172  0.0317  0.2606
 1307TIP3    H125336   4.568   0.750  14.374 -1.5423  0.8555  0.6778
 1307TIP3    H225337   4.504   0.613  14.370 -1.3882  0.7870  0.5886
 1308TIP3   OH225338   0.991   6.067   4.104  0.0794 -0.6028  0.6922
 1308TIP3    H125339   0.916   6.099   4.154  1.9333  1.8233  2.1472
 1308TIP3    H225340   1.036   6.007   4.164  1.0486  0.5379  1.1600
 1309TIP3   OH225341   1.547   4.069   0.486 -0.2420 -0.3114 -0.3739
 1309TIP3    H125342   1.572   4.094   0.575 -1.2644  1.4711 -0.5399
 1309TIP3    H225343   1.614   4.109   0.430  0.6859 -1.8477 -0.4272
 1310TIP3   OH225344   6.333   0.813  11.630  0.0292 -0.2526  0.4473
 1310TIP3    H125345   6.320   0.904  11.657  1.7636  0.2065 -0.1711
 1310TIP3    H225346   6.417   0.813  11.585 -0.8128 -1.7964 -1.2688
 1311TIP3   OH225347   1.867   0.658   1.434  0.8484  0.0824 -0.2076
 1311TIP3    H125348   1.878   0.621   1.521  0.1568 -0.4443 -0.3287
 1311TIP3    H225349   1.947   0.708   1.418 -0.2934  2.8770  2.0101
 1312TIP3   OH225350   4.672   6.748   3.746  0.1923 -0.5352 -0.5070
 1312TIP3    H125351   4.722   6.798   3.810 -1.6273 -0.5050  0.9633
 1312TIP3    H225352   4.608   6.811   3.711  1.6598 -0.3074 -3.0524
 1313TIP3   OH225353   6.781   2.041  13.535  0.3643  0.3745  0.1437
 1313TIP3    H125354   6.842   2.105  13.572  1.6577  0.1919 -1.5458
 1313TIP3    H225355   6.777   2.063  13.442  0.5615 -1.7451 -0.4137
 1314TIP3   OH225356   2.115   5.833  12.607 -0.6617 -0.0178 -0.3013
 1314TIP3    H125357   2.105   5.756  12.663  0.7136 -0.4241 -0.5750
 1314TIP3    H225358   2.143   5.902  12.666 -0.6346 -0.0668 -0.2568
 1315TIP3   OH225359   4.196   6.322   3.070 -0.1252  0.2821  0.7754
 1315TIP3    H125360   4.151   6.299   3.152  3.0491 -0.4745  2.4745
 1315TIP3    H225361   4.277   6.271   3.072 -0.0352  0.0204 -3.0630
 1316TIP3   OH225362   1.629   5.375   5.022 -0.1800 -0.6044 -0.6136
 1316TIP3    H125363   1.601   5.440   4.957  0.4112  0.2263 -0.0493
 1316TIP3    H225364   1.671   5.426   5.091 -0.4609 -1.5130  0.2523
 1317TIP3   OH225365   2.506   4.207   4.874  0.0853 -0.2191  0.0295
 1317TIP3    H125366   2.446   4.255   4.932 -1.9094  1.5057 -3.1916
 1317TIP3    H225367   2.593   4.241   4.897 -0.7928  1.5898  0.9497
 1318TIP3   OH225368   2.723   5.349  13.127 -0.7625 -0.2318 -0.3943
 1318TIP3    H125369   2.676   5.426  13.159  0.5458  0.2193  0.5445
 1318TIP3    H225370   2.775   5.382  13.053  1.0801  0.2421  1.0295
 1319TIP3   OH225371   3.884   0.442  10.966  0.2446 -0.4543 -0.1442
 1319TIP3    H125372   3.889   0.353  11.002  0.7307  0.1818  1.4800
 1319TIP3    H225373   3.970   0.480  10.985 -0.4247  0.8059  0.4508
 1320TIP3   OH225374   6.191   0.213   5.836 -0.1853 -0.1462 -0.1153
 1320TIP3    H125375   6.127   0.192   5.905 -0.0274  0.2691  0.1593
 1320TIP3    H225376   6.276   0.203   5.879 -0.1035  1.0539  0.0270
 1321TIP3   OH225377   0.817   0.547   3.872  0.3386  0.2510 -0.3636
 1321TIP3    H125378   0.807   0.477   3.936 -1.6554 -1.0957 -2.0296
 1321TIP3    H225379   0.730   0.584   3.863  1.0942  2.1297 -0.5060
 1322TIP3   OH225380   2.205   4.241  13.044 -0.1761 -0.7310  0.3032
 1322TIP3    H125381   2.123   4.277  13.079  0.6229  2.0784 -0.4936
 1322TIP3    H225382   2.270   4.257  13.113  0.4882  0.7567 -0.6294
 1323TIP3   OH225383   3.928   0.406   4.831  0.0370 -0.4156 -0.2391
 1323TIP3    H125384   3.909   0.391   4.739  1.2401 -0.5100 -0.4838
 1323TIP3    H225385   3.848   0.445   4.866 -0.2156  0.1962 -1.4567
 1324TIP3   OH225386   5.784   5.363  12.468 -0.0781  0.2424 -0.0406
 1324TIP3    H125387   5.754   5.418  12.395  1.6556 -0.4641 -1.3571
 1324TIP3    H225388   5.715   5.371  12.534 -1.5892  1.1268 -1.6382
 1325TIP3   OH225389   4.619   6.783  15.318  0.0231  0.0169 -0.2405
 1325TIP3    H125390   4.560   6.759  15.389 -1.1967 -2.1876 -1.8470
 1325TIP3    H225391   4.702   6.740  15.340 -0.3648 -0.7040 -0.1393
 1326TIP3   OH225392   0.259   1.794   3.794 -0.5568  0.0832 -0.3815
 1326TIP3    H125393   0.327   1.814   3.859 -0.9290  0.9338 -0.2353
 1326TIP3    H225394   0.237   1.702   3.810  1.4927 -0.6210 -1.3222
 1327TIP3   OH225395   2.039   4.140  12.840  0.1990 -0.8186  0.9199
 1327TIP3    H125396   1.970   4.206  12.847 -0.1732 -0.8740 -1.3167
 1327TIP3    H225397   2.115   4.180  12.881 -0.6038  0.1119  1.5478
 1328TIP3   OH225398   3.916   1.346   5.216 -0.2633 -1.1263 -0.0319
 1328TIP3    H125399   4.004   1.315   5.235 -0.3362 -1.0689  0.4048
 1328TIP3    H225400   3.876   1.275   5.166 -0.4157 -1.7145  0.9200
 1329TIP3   OH225401   2.688   2.484  12.594 -0.2952 -0.0792  0.0842
 1329TIP3    H125402   2.639   2.494  12.512 -2.5870 -0.1935  1.3753
 1329TIP3    H225403   2.780   2.480  12.566 -0.9660  0.3105 -2.4307
 1330TIP3   OH225404   5.705   6.655  14.110 -0.1611  0.5837  0.1120
 1330TIP3    H125405   5.613   6.636  14.094 -0.2875  1.2296  0.0700
 1330TIP3    H225406   5.751   6.613  14.037 -0.4134  0.2378  0.1466
 1331TIP3   OH225407   5.516   0.112   0.033  0.1290  0.5464 -0.0649
 1331TIP3    H125408   5.439   0.099   0.089  0.6891 -2.4375  0.1915
 1331TIP3    H225409   5.588   0.075   0.083  1.1607  0.3811 -1.6046
 1332TIP3   OH225410   2.904   1.527   1.783 -0.0318  0.2576  0.4139
 1332TIP3    H125411   2.857   1.473   1.847  0.4974 -2.0812 -1.0423
 1332TIP3    H225412   2.852   1.518   1.702  0.0764  1.9920  0.1220
 1333TIP3   OH225413   1.082   4.022  15.510  0.4468  0.1221  0.1690
 1333TIP3    H125414   1.026   3.946  15.495 -0.0796  0.3728  0.7877
 1333TIP3    H225415   1.165   3.986  15.541  0.5743 -0.2445 -0.5838
 1334TIP3   OH225416   1.504   2.624  11.341  0.2222  0.3418 -0.2318
 1334TIP3    H125417   1.525   2.533  11.321 -2.3202  0.0775 -2.2470
 1334TIP3    H225418   1.578   2.655  11.393  1.2825 -2.7708  0.3231
 1335TIP3   OH225419   0.954   2.645   4.612  0.4698 -1.0795 -0.0805
 1335TIP3    H125420   1.033   2.603   4.579  1.4091  0.5248  0.0565
 1335TIP3    H225421   0.931   2.710   4.546 -0.8683 -1.6257 -0.2054
 1336TIP3   OH225422   6.569   3.543   5.600  0.7565 -0.3370 -0.4405
 1336TIP3    H125423   6.484   3.572   5.633  0.3820 -0.4511 -1.2787
 1336TIP3    H225424   6.550   3.464   5.550  1.2859 -0.1140 -1.0070
 1337TIP3   OH225425   3.328   3.142  11.187  0.1703 -0.6586 -0.1577
 1337TIP3    H125426   3.341   3.049  11.165  0.6497 -0.0858 -2.6198
 1337TIP3    H225427   3.260   3.142  11.254  2.1110 -2.9264  2.0064
 1338TIP3   OH225428   6.531   4.205   2.841  0.8242  0.0914 -0.5723
 1338TIP3    H125429   6.524   4.159   2.757  1.5856  1.4703 -1.4229
 1338TIP3    H225430   6.601   4.158   2.888  0.1152 -0.9404 -0.5182
 1339TIP3   OH225431   2.681   3.761  12.804  0.0397 -0.9207  0.2861
 1339TIP3    H125432   2.588   3.738  12.799 -0.0627 -0.9250  1.7304
 1339TIP3    H225433   2.725   3.691  12.756 -0.8350  0.4874 -2.8286
 1340TIP3   OH225434   0.103   0.876   1.012  0.2903  0.1019  0.1608
 1340TIP3    H125435   0.156   0.955   1.001  0.1063  0.1732 -0.2542
 1340TIP3    H225436   0.016   0.902   0.981  0.0908 -0.1023  0.5524
 1341TIP3   OH225437   1.627   2.666   4.124 -0.0542 -0.6984 -0.2612
 1341TIP3    H125438   1.550   2.617   4.093 -0.9656  1.3240 -1.3803
 1341TIP3    H225439   1.594   2.716   4.199  0.1875  0.0422 -0.6379
 1342TIP3   OH225440   4.394   2.287   0.943 -0.3070  0.3870  0.5024
 1342TIP3    H125441   4.340   2.365   0.935 -0.1536  0.5569  1.0237
 1342TIP3    H225442   4.465   2.313   1.003  1.6743  0.8909 -1.8931
 1343TIP3   OH225443   6.447   3.869   3.864 -0.4197 -0.3339  0.3186
 1343TIP3    H125444   6.424   3.876   3.957 -0.4712  0.4426  0.2480
 1343TIP3    H225445   6.373   3.824   3.824 -0.1102 -1.2655  0.7605
 1344TIP3   OH225446   4.271   3.281   2.378  0.0969 -0.2520  0.2601
 1344TIP3    H125447   4.229   3.195   2.366 -1.0857  0.3071  0.2075
 1344TIP3    H225448   4.305   3.304   2.292  0.9303 -0.9138  0.4018
 1345TIP3   OH225449   5.556   2.881  14.297  0.0884 -0.3209 -0.0087
 1345TIP3    H125450   5.554   2.791  14.329  0.4230 -0.7519 -1.1611
 1345TIP3    H225451   5.471   2.892  14.254 -1.2596  0.9379  2.7122
 1346TIP3   OH225452   4.530   0.663   2.311  0.4019 -0.1663  0.7255
 1346TIP3    H125453   4.455   0.719   2.329  2.0578  1.6697  2.4339
 1346TIP3    H225454   4.500   0.575   2.332 -2.3771 -0.1137 -2.2816
 1347TIP3   OH225455   5.072   3.692   6.361  0.4241  0.1548  0.6957
 1347TIP3    H125456   5.040   3.742   6.286 -1.4922 -0.4781  1.0177
 1347TIP3    H225457   5.157   3.658   6.334 -0.3556 -0.2996 -1.3285
 1348TIP3   OH225458   5.964   6.061   2.334  0.2323  0.3648  0.4111
 1348TIP3    H125459   5.884   6.008   2.333  1.3631 -1.4194  1.5677
 1348TIP3    H225460   5.965   6.103   2.247 -1.5937 -0.0893  0.1272
 1349TIP3   OH225461   3.094   2.607   4.206 -0.8422  0.1172  0.7359
 1349TIP3    H125462   3.150   2.556   4.264  0.4242  0.8916  0.2345
 1349TIP3    H225463   3.022   2.548   4.183  0.4873 -1.3928  0.2752
 1350TIP3   OH225464   6.512   3.912   4.895  0.4372 -0.2255  0.5726
 1350TIP3    H125465   6.555   3.969   4.959  1.6239 -2.7357  2.1638
 1350TIP3    H225466   6.447   3.864   4.947 -3.1789  2.0675 -1.3910
 1351TIP3   OH225467   4.656   5.020   2.653  0.2498  0.6937 -0.1660
 1351TIP3    H125468   4.678   5.010   2.560  1.3237 -1.4186  0.2771
 1351TIP3    H225469   4.709   5.094   2.682  0.4629  0.9096 -1.0609
 1352TIP3   OH225470   3.763   2.006  11.870 -0.3563  0.3664 -0.0970
 1352TIP3    H125471   3.845   1.958  11.855 -0.1250  1.1685 -1.6853
 1352TIP3    H225472   3.701   1.965  11.810 -1.3207 -0.6041  1.4943
 1353TIP3   OH225473   0.939   4.882  11.691 -0.0858 -0.4723 -0.0401
 1353TIP3    H125474   0.936   4.808  11.752  1.0940  0.0518  0.6914
 1353TIP3    H225475   1.028   4.882  11.658 -0.3213  0.1126 -0.6857
 1354TIP3   OH225476   4.217   2.818   1.943  0.1266  0.3223 -0.3891
 1354TIP3    H125477   4.285   2.871   1.985 -1.5275 -0.7088  4.0961
 1354TIP3    H225478   4.135   2.861   1.967 -1.0348 -1.5970 -0.7581
 1355TIP3   OH225479   1.339   3.760   1.620 -0.8991 -0.3624 -0.1393
 1355TIP3    H125480   1.369   3.802   1.701  1.7400  2.6278 -2.4504
 1355TIP3    H225481   1.409   3.701   1.596  0.1496  1.5367 -2.0404
 1356TIP3   OH225482   1.195   0.224  14.669 -0.0167 -0.4515 -0.2577
 1356TIP3    H125483   1.149   0.243  14.587 -2.0911 -1.2489  0.6369
 1356TIP3    H225484   1.227   0.135  14.658  0.7382 -0.1372 -0.6320
 1357TIP3   OH225485   6.380   2.165  10.976 -0.3353 -0.2550 -0.0055
 1357TIP3    H125486   6.467   2.183  11.012  0.0175 -0.7202 -0.5919
 1357TIP3    H225487   6.359   2.242  10.924  0.6737 -0.9801 -1.5873
 1358TIP3   OH225488   4.021   5.040  13.584 -0.1444 -0.1420 -0.2083
 1358TIP3    H125489   4.083   5.078  13.646 -0.7390 -0.1969  0.4382
 1358TIP3    H225490   3.975   5.115  13.547  0.2192 -0.1084 -0.5949
 1359TIP3   OH225491   2.166   3.635   4.477  0.7453 -0.3750  0.6352
 1359TIP3    H125492   2.201   3.552   4.446 -1.0340 -1.0514  0.2970
 1359TIP3    H225493   2.201   3.645   4.565  2.2757 -0.6608  0.0887
 1360TIP3   OH225494   1.853   5.890  11.211 -0.0719  0.2621 -0.2204
 1360TIP3    H125495   1.794   5.884  11.286  0.2679 -0.4735 -0.0050
 1360TIP3    H225496   1.903   5.970  11.226  0.7932 -0.4695  0.9318
 1361TIP3   OH225497   2.656   4.772  12.948  0.4318  0.6869 -0.2477
 1361TIP3    H125498   2.686   4.860  12.926  0.7099  0.9266  0.9953
 1361TIP3    H225499   2.735   4.719  12.952  0.3985  0.6684  0.2263
 1362TIP3   OH225500   1.988   2.155  16.297 -0.4698  0.1491  0.3975
 1362TIP3    H125501   1.938   2.091  16.346 -1.2711  0.4465 -0.0182
 1362TIP3    H225502   1.945   2.239  16.315  0.8086  0.6609  1.2782
 1363TIP3   OH225503   3.231   1.646   2.365 -0.3010  0.6956  0.0231
 1363TIP3    H125504   3.179   1.725   2.382  0.0370  1.1444 -0.9214
 1363TIP3    H225505   3.304   1.676   2.310 -0.2394 -0.2878 -0.4709
 1364TIP3   OH225506   6.675   0.350   4.745 -0.0402  0.4656  0.7425
 1364TIP3    H125507   6.611   0.365   4.675 -0.7337 -1.6391  0.8688
 1364TIP3    H225508   6.759   0.374   4.706 -0.5267  0.2187 -0.4907
 1365TIP3   OH225509   2.341   5.448  13.648  0.0906  0.2654 -0.7330
 1365TIP3    H125510   2.305   5.417  13.565  0.3659 -1.7769 -0.1249
 1365TIP3    H225511   2.313   5.384  13.713  1.7873  0.5614  0.3671
 1366TIP3   OH225512   1.359   4.028   1.176 -0.0776 -0.6965 -0.2339
 1366TIP3    H125513   1.421   4.098   1.158  0.1159  0.1731  3.2528
 1366TIP3    H225514   1.410   3.947   1.166 -0.6154 -0.7434 -5.6359
 1367TIP3   OH225515   2.430   3.504  16.610  0.2192 -0.0176 -0.2229
 1367TIP3    H125516   2.461   3.538  16.694  0.6970 -0.8733 -0.0421
 1367TIP3    H225517   2.423   3.582  16.554  1.5556  0.3539  0.0944
 1368TIP3   OH225518   1.770   5.146   3.347  0.1935  0.0801 -0.3152
 1368TIP3    H125519   1.853   5.182   3.318 -0.8452  1.8247 -1.2876
 1368TIP3    H225520   1.723   5.220   3.386 -0.2524 -1.2365  1.8599
 1369TIP3   OH225521   0.781   5.920   2.266 -0.3463  0.5414 -0.5055
 1369TIP3    H125522   0.761   5.994   2.323 -0.7412  0.7760 -0.9413
 1369TIP3    H225523   0.695   5.892   2.233 -0.1808  0.0196 -0.5047
 1370TIP3   OH225524   2.104   6.057   6.726  0.2581  0.4012  0.7703
 1370TIP3    H125525   2.039   6.065   6.655  0.6008 -2.5267  0.0041
 1370TIP3    H225526   2.185   6.032   6.681  1.1208  0.8923  2.0115
 1371TIP3   OH225527   4.806   2.521  16.721  0.5087  0.0056  1.0907
 1371TIP3    H125528   4.719   2.490  16.697  0.5957  0.3282  0.3208
 1371TIP3    H225529   4.849   2.445  16.760  0.3578 -0.5679  0.1830
 1372TIP3   OH225530   3.762   4.662   1.569 -0.1025 -0.0516  0.2978
 1372TIP3    H125531   3.779   4.677   1.662 -0.4100 -0.9010  0.5026
 1372TIP3    H225532   3.710   4.737   1.542  0.9018  0.7602  0.5318
 1373TIP3   OH225533   0.141   3.001  17.197  0.2507 -0.4679 -0.2378
 1373TIP3    H125534   0.053   2.988  17.235  0.7702  0.2469  1.2826
 1373TIP3    H225535   0.155   2.923  17.143 -0.1504 -2.0799  1.8594
 1374TIP3   OH225536   1.472   3.857   4.583  0.0850  0.0183 -0.1652
 1374TIP3    H125537   1.562   3.875   4.558  0.4600 -0.1641  0.9867
 1374TIP3    H225538   1.443   3.936   4.629 -0.4656  0.2138 -0.8376
 1375TIP3   OH225539   5.816   3.860  13.218  0.0990 -0.4738 -0.6167
 1375TIP3    H125540   5.772   3.918  13.157  1.3499  0.4933 -0.6331
 1375TIP3    H225541   5.907   3.889  13.218 -0.0003  0.1498  2.3641
 1376TIP3   OH225542   3.142   0.760   1.459  0.5895  0.0317  0.8145
 1376TIP3    H125543   3.146   0.792   1.549 -1.9733 -1.4052  1.5290
 1376TIP3    H225544   3.162   0.666   1.466 -0.1471 -0.2016 -0.0181
 1377TIP3   OH225545   4.940   1.096   0.060  0.3273 -0.0524 -0.7492
 1377TIP3    H125546   4.859   1.082   0.012  0.4351  0.6174 -1.1277
 1377TIP3    H225547   4.975   1.008   0.075 -0.0963 -0.2989 -1.2173
 1378TIP3   OH225548   5.534   5.807  14.923  0.5681  0.1322  0.0725
 1378TIP3    H125549   5.568   5.821  14.835  0.0145 -2.1090 -0.5828
 1378TIP3    H225550   5.439   5.809  14.913  0.3574 -3.5725 -0.2115
 1379TIP3   OH225551   2.842   6.571  15.154 -0.0814  0.0259 -0.4545
 1379TIP3    H125552   2.883   6.626  15.220  0.7059 -0.0133 -0.9038
 1379TIP3    H225553   2.907   6.564  15.084 -1.1330  0.5754 -1.5171
 1380TIP3   OH225554   3.134   0.468  13.324 -0.6681  0.0842  0.1679
 1380TIP3    H125555   3.132   0.530  13.397  0.5543 -1.0098  1.1823
 1380TIP3    H225556   3.227   0.461  13.301 -0.6110 -2.2107  0.8647
 1381TIP3   OH225557   0.896   1.593   3.529  0.1726  0.4689 -0.0062
 1381TIP3    H125558   0.891   1.546   3.445  0.9852 -1.2946  0.8796
 1381TIP3    H225559   0.831   1.549   3.584  1.5532 -0.2486  1.1189
 1382TIP3   OH225560   1.013   3.558   5.335  0.4730  0.2636  0.3574
 1382TIP3    H125561   1.035   3.603   5.254  1.1194 -1.7958 -0.6782
 1382TIP3    H225562   1.098   3.542   5.378  0.4825 -1.6926 -0.3016
 1383TIP3   OH225563   4.353   1.306  14.432  0.2635  0.5713 -0.1265
 1383TIP3    H125564   4.334   1.307  14.526  0.5852 -0.4526 -0.0400
 1383TIP3    H225565   4.313   1.387  14.399 -1.6994 -0.0659  0.5304
 1384TIP3   OH225566   5.017   1.328   3.036  0.1036  0.4567 -0.3773
 1384TIP3    H125567   4.961   1.274   3.091 -0.3656  0.3382 -0.9575
 1384TIP3    H225568   4.987   1.418   3.051  1.9244  0.7875  1.8073
 1385TIP3   OH225569   4.180   4.731   2.176  0.5961  0.2757 -0.2058
 1385TIP3    H125570   4.120   4.802   2.156 -1.8466 -2.0506 -1.8475
 1385TIP3    H225571   4.135   4.679   2.242  1.8262 -0.3855  0.1495
 1386TIP3   OH225572   2.081   0.498   4.648  0.4169 -0.6176  0.3032
 1386TIP3    H125573   2.147   0.561   4.677 -0.0991 -0.4885  1.2305
 1386TIP3    H225574   2.093   0.494   4.553  1.1380  0.1039  0.3457
 1387TIP3   OH225575   2.281   2.671   2.949  0.0116 -0.0671  0.7850
 1387TIP3    H125576   2.275   2.725   2.870  0.9170 -0.5263  0.3926
 1387TIP3    H225577   2.317   2.730   3.015  1.0020 -0.1758  0.3553
 1388TIP3   OH225578   1.467   3.307  14.803 -0.2985 -0.3135 -0.2917
 1388TIP3    H125579   1.504   3.378  14.855 -0.6283 -0.0527 -0.4079
 1388TIP3    H225580   1.480   3.334  14.712  0.1804 -0.7175 -0.3496
 1389TIP3   OH225581   0.180   3.273   3.117 -0.1437 -0.4767 -0.6437
 1389TIP3    H125582   0.089   3.298   3.100 -0.1286  1.1747  1.2780
 1389TIP3    H225583   0.174   3.214   3.192  0.4700  2.4581  1.9217
 1390TIP3   OH225584   6.263   4.587   5.642 -0.4202  0.3940 -0.8240
 1390TIP3    H125585   6.250   4.497   5.610  0.6382 -0.0166 -0.1669
 1390TIP3    H225586   6.180   4.611   5.681  0.0759 -1.4374  1.6328
 1391TIP3   OH225587   1.650   6.306  16.473 -0.5361 -0.7962  0.0275
 1391TIP3    H125588   1.595   6.330  16.548  0.8065 -1.3218  1.2280
 1391TIP3    H225589   1.606   6.230  16.436 -2.3300  0.6530 -1.0317
 1392TIP3   OH225590   0.675   1.834   4.849  0.0265  0.3097  0.0139
 1392TIP3    H125591   0.704   1.775   4.779  0.6306  0.6727 -0.0496
 1392TIP3    H225592   0.726   1.914   4.836 -1.9555  1.4959 -0.8929
 1393TIP3   OH225593   1.904   4.945   4.241 -0.1849  0.1480  0.4387
 1393TIP3    H125594   1.972   4.965   4.177 -2.2018  0.4222 -1.7799
 1393TIP3    H225595   1.923   5.002   4.315  1.6769  0.5674 -0.3139
 1394TIP3   OH225596   0.522   4.381  13.613  0.8439 -0.1591  0.0426
 1394TIP3    H125597   0.542   4.310  13.674  0.9662  0.4878  0.7744
 1394TIP3    H225598   0.607   4.422  13.596  0.9829 -0.9895 -1.4221
 1395TIP3   OH225599   4.015   2.346  12.978  0.8806  0.1351  0.0470
 1395TIP3    H125600   4.093   2.399  12.958  0.9011 -0.3067 -1.0624
 1395TIP3    H225601   4.026   2.266  12.928 -1.2461  0.8799 -1.7684
 1396TIP3   OH225602   0.777   2.722  16.172  0.4851  0.1340 -0.0970
 1396TIP3    H125603   0.781   2.813  16.201 -0.1236  0.3745 -0.7279
 1396TIP3    H225604   0.800   2.671  16.249 -1.8113  0.7224  1.0672
 1397TIP3   OH225605   0.031   0.661  13.409  0.3928 -0.4087  0.0220
 1397TIP3    H125606   0.013   0.660  13.503 -0.1437  1.4527 -0.0331
 1397TIP3    H225607  -0.048   0.622  13.370  0.0006  0.1245  0.2659
 1398TIP3   OH225608   6.331   2.614  14.384  0.0346 -0.5043 -0.2737
 1398TIP3    H125609   6.269   2.540  14.382 -0.5993  0.0183 -2.2670
 1398TIP3    H225610   6.402   2.587  14.325  0.1219  0.1923 -0.4959
 1399TIP3   OH225611   5.074   4.339   0.337  0.0300 -0.2507 -0.2093
 1399TIP3    H125612   5.022   4.315   0.413  2.6719 -0.3994  1.6827
 1399TIP3    H225613   5.142   4.273   0.332  0.8688  0.6520 -1.7495
 1400TIP3   OH225614   1.795   2.917   5.896 -0.3533  0.6582 -0.9882
 1400TIP3    H125615   1.812   3.007   5.923 -0.9936  1.2102 -2.3004
 1400TIP3    H225616   1.743   2.880   5.967  0.1721  1.2186 -0.2931
 1401TIP3   OH225617   2.735   6.216  12.382  0.5747  0.2339  0.2514
 1401TIP3    H125618   2.753   6.309  12.369 -0.9728  0.5666  0.3820
 1401TIP3    H225619   2.785   6.172  12.313  0.1390  1.2747 -0.7478
 1402TIP3   OH225620   2.211   2.058  16.158  0.5544 -0.2944 -0.0843
 1402TIP3    H125621   2.127   2.087  16.194  0.0906 -1.4376 -0.1918
 1402TIP3    H225622   2.261   2.139  16.145  0.4436  0.2247  2.3217
 1403TIP3   OH225623   5.281   6.743   5.982 -0.5906 -0.0943 -0.0040
 1403TIP3    H125624   5.281   6.836   6.006  1.4719  0.1041 -0.5785
 1403TIP3    H225625   5.279   6.743   5.887  0.9014 -0.5430 -0.0691
 1404TIP3   OH225626   2.008   5.821  13.019 -0.0597 -0.3435 -0.1688
 1404TIP3    H125627   2.025   5.829  13.113 -0.3618 -0.4524 -0.1045
 1404TIP3    H225628   1.916   5.847  13.008  0.4456  1.3744 -0.6730
 1405TIP3   OH225629   1.645   2.578  11.714  1.0438 -0.4685  0.1730
 1405TIP3    H125630   1.729   2.581  11.668  1.2176 -1.8266  0.3590
 1405TIP3    H225631   1.580   2.593  11.645  1.3556 -1.5258 -0.3849
 1406TIP3   OH225632   4.892   1.749   1.173  0.1389  0.0461 -0.2992
 1406TIP3    H125633   4.936   1.696   1.106 -1.4451 -2.8995  0.8430
 1406TIP3    H225634   4.921   1.712   1.256 -1.9124  0.1631  0.5257
 1407TIP3   OH225635   1.310   4.949   3.228 -0.1436 -0.2847 -0.2061
 1407TIP3    H125636   1.390   4.909   3.194  0.5294 -0.9842  1.9816
 1407TIP3    H225637   1.340   5.007   3.298 -1.5300 -2.4966  2.4799
 1408TIP3   OH225638   5.256   1.981   5.672  0.0539  0.3127 -0.0387
 1408TIP3    H125639   5.257   2.070   5.636 -0.3553  0.9168  1.3655
 1408TIP3    H225640   5.348   1.963   5.692  0.0089  0.8607  0.6849
 1409TIP3   OH225641   2.759   1.180  15.310  0.1151  0.7728  0.1279
 1409TIP3    H125642   2.735   1.229  15.232 -0.2606 -0.9355 -0.8762
 1409TIP3    H225643   2.726   1.092  15.295 -0.3972  0.4901  2.4337
 1410TIP3   OH225644   2.450   5.738  13.988  0.1890 -0.7075  0.1185
 1410TIP3    H125645   2.504   5.813  13.961 -0.8846 -0.1962 -0.7002
 1410TIP3    H225646   2.498   5.662  13.956  2.1407 -0.5376  2.4089
 1411TIP3   OH225647   3.716   5.518   5.081  0.2565  0.1169  0.2779
 1411TIP3    H125648   3.686   5.440   5.035  3.2952 -0.2900 -1.2815
 1411TIP3    H225649   3.728   5.489   5.172 -1.0663 -0.4525  0.2995
 1412TIP3   OH225650   5.477   6.101  16.238  0.2900 -0.2060  0.2834
 1412TIP3    H125651   5.451   6.128  16.151  1.1515 -1.9498 -0.5722
 1412TIP3    H225652   5.402   6.052  16.272  0.7576 -1.4318 -0.4001
 1413TIP3   OH225653   0.531   5.475   0.098 -0.0662  0.1573 -0.0878
 1413TIP3    H125654   0.620   5.442   0.114 -0.1837 -0.1095  0.0184
 1413TIP3    H225655   0.499   5.501   0.185 -1.4475 -3.1336  0.5099
 1414TIP3   OH225656   2.539   4.527  14.983 -0.5709  0.5907 -0.0499
 1414TIP3    H125657   2.585   4.454  15.023  0.1628  1.1776  0.2060
 1414TIP3    H225658   2.599   4.601  14.992 -0.4844  0.8169 -1.9591
 1415TIP3   OH225659   5.897   5.086   0.365  0.2913 -0.4032  0.0221
 1415TIP3    H125660   5.844   5.068   0.288  0.2827 -0.7209  0.0992
 1415TIP3    H225661   5.939   5.170   0.347  1.3686 -1.1178 -0.9174
 1416TIP3   OH225662   1.728   4.556   1.883  0.2162 -0.3986  0.3028
 1416TIP3    H125663   1.685   4.503   1.815 -1.8128 -1.0756  1.9919
 1416TIP3    H225664   1.656   4.593   1.933  1.6462  0.9784  1.4296
 1417TIP3   OH225665   6.674   0.628   5.057  0.2614 -0.0578  0.0685
 1417TIP3    H125666   6.676   0.647   5.151  1.3461 -1.4104  0.3341
 1417TIP3    H225667   6.650   0.536   5.051  0.1800  0.0187 -0.9925
 1418TIP3   OH225668   1.565   2.812   4.334 -0.7808 -0.2706 -0.2909
 1418TIP3    H125669   1.531   2.770   4.414 -0.9499 -1.4793 -0.9679
 1418TIP3    H225670   1.543   2.904   4.344  1.1055  0.0186  2.0637
 1419TIP3   OH225671   4.315   1.934   4.098  0.0806 -0.1969  0.0583
 1419TIP3    H125672   4.285   2.018   4.134  1.0900  0.4312 -0.5002
 1419TIP3    H225673   4.395   1.915   4.147 -0.3624 -1.0636  0.4656
 1420TIP3   OH225674   6.517   1.992   3.098 -0.4515 -0.1301  0.6382
 1420TIP3    H125675   6.543   1.914   3.050 -0.7328 -0.8424  1.6174
 1420TIP3    H225676   6.570   2.062   3.060 -0.9795 -0.5712 -0.9999
 1421TIP3   OH225677   1.126   2.757   6.405 -0.0598  0.3524 -0.6519
 1421TIP3    H125678   1.049   2.805   6.373  0.4427  1.3101 -0.4341
 1421TIP3    H225679   1.199   2.794   6.356  0.4406  0.3600  0.0986
 1422TIP3   OH225680   6.634   3.522  13.780 -0.0089 -0.2470 -0.2450
 1422TIP3    H125681   6.624   3.444  13.726 -1.8701  1.7721 -3.1354
 1422TIP3    H225682   6.548   3.564  13.777  0.7175  1.5620  1.8173
 1423TIP3   OH225683   3.967   3.835  14.947  0.0332 -0.3132  0.3995
 1423TIP3    H125684   3.932   3.920  14.920  1.3473  0.2733  0.4833
 1423TIP3    H225685   4.055   3.832  14.912 -0.9407 -2.9858 -2.3112
 1424TIP3   OH225686   1.677   6.132   5.231 -0.4320  0.3206  0.0310
 1424TIP3    H125687   1.608   6.175   5.281 -0.3820  2.3793 -1.5249
 1424TIP3    H225688   1.758   6.175   5.260 -0.2804  0.7360 -0.9739
 1425TIP3   OH225689   1.249   4.115  12.174 -0.7961  0.3163 -0.2935
 1425TIP3    H125690   1.195   4.160  12.239 -1.4135  1.0933 -1.3067
 1425TIP3    H225691   1.332   4.162  12.174 -1.6006  1.8518 -1.6834
 1426TIP3   OH225692   4.886   3.498   2.496  0.6067  0.3087  0.3893
 1426TIP3    H125693   4.815   3.555   2.465 -0.0486 -0.7336 -0.0911
 1426TIP3    H225694   4.850   3.457   2.575  0.5183 -0.5016 -0.0599
 1427TIP3   OH225695   4.999   3.142  16.468 -0.2579  0.1346  0.5534
 1427TIP3    H125696   4.967   3.052  16.453  0.0482 -0.0205  0.8203
 1427TIP3    H225697   4.966   3.164  16.555 -1.4014  0.7576 -0.0149
 1428TIP3   OH225698   4.488   0.118  11.887 -0.5550 -0.0510 -0.2788
 1428TIP3    H125699   4.477   0.168  11.968  1.0767  0.2625 -0.2010
 1428TIP3    H225700   4.486   0.026  11.916  0.0776  0.0579  0.1587
 1429TIP3   OH225701   3.820   6.207  14.852  0.0700 -0.0697  0.2216
 1429TIP3    H125702   3.728   6.189  14.831  0.0946 -1.2264  1.0772
 1429TIP3    H225703   3.840   6.285  14.800 -1.1417 -0.2912 -0.6396
 1430TIP3   OH225704   1.119   1.437   5.732  0.2476  0.0285 -0.0672
 1430TIP3    H125705   1.163   1.386   5.664  1.4498  0.7946  0.0979
 1430TIP3    H225706   1.037   1.465   5.692  1.2926  1.1644 -1.5325
 1431TIP3   OH225707   4.570   4.868   1.000 -0.4699  0.1375  0.3143
 1431TIP3    H125708   4.528   4.802   0.944  0.3656 -2.8041  2.8409
 1431TIP3    H225709   4.515   4.870   1.079  2.0487 -1.2495  2.2603
 1432TIP3   OH225710   4.570   3.483  14.817 -0.3049  0.0196  0.1922
 1432TIP3    H125711   4.539   3.414  14.757 -0.7829 -0.5231  1.0451
 1432TIP3    H225712   4.523   3.466  14.899 -0.0911  1.1026  0.5476
 1433TIP3   OH225713   0.046   6.424   2.533 -0.5031 -0.7157  0.6429
 1433TIP3    H125714   0.008   6.507   2.506 -0.4297 -0.9966 -0.3649
 1433TIP3    H225715   0.141   6.441   2.536 -0.5338 -0.5991  1.0587
 1434TIP3   OH225716   4.302   6.244   0.350  0.2960 -0.0222  0.0921
 1434TIP3    H125717   4.290   6.297   0.429  0.6625 -0.4380  0.4318
 1434TIP3    H225718   4.304   6.154   0.382 -1.6676 -0.3734 -0.6186
 1435TIP3   OH225719   5.380   2.608  13.909 -0.1125 -0.5574  0.4749
 1435TIP3    H125720   5.329   2.689  13.906 -0.0945 -0.5442  0.5251
 1435TIP3    H225721   5.314   2.539  13.905 -0.0537 -0.5598 -1.0619
 1436TIP3   OH225722   5.264   5.814   5.139  0.3748 -0.3143  0.3781
 1436TIP3    H125723   5.347   5.854   5.164 -0.5192  0.6720  1.9359
 1436TIP3    H225724   5.239   5.761   5.215 -0.9573  0.3228  0.4194
 1437TIP3   OH225725   3.636   5.863  13.651 -0.0752  0.1135 -0.4385
 1437TIP3    H125726   3.593   5.854  13.566 -1.2223  2.0230 -0.1232
 1437TIP3    H225727   3.574   5.826  13.713  0.5090 -0.7337 -0.3286
 1438TIP3   OH225728   3.845   0.836  15.557  0.4065 -0.4917  0.2582
 1438TIP3    H125729   3.831   0.900  15.487  2.7667 -1.7744 -1.5412
 1438TIP3    H225730   3.757   0.803  15.577 -0.4583  0.6189 -1.4266
 1439TIP3   OH225731   2.978   5.066  14.718 -0.8560  0.2953  0.1428
 1439TIP3    H125732   2.902   5.008  14.720 -0.9542  0.4511  1.0302
 1439TIP3    H225733   2.950   5.141  14.666 -1.3407  0.3949  0.5409
 1440TIP3   OH225734   1.784   6.639   5.162  0.2050 -0.4507 -0.0191
 1440TIP3    H125735   1.699   6.675   5.140  0.4069 -1.2448 -2.3796
 1440TIP3    H225736   1.786   6.638   5.258 -1.7544  1.0815  0.0997
 1441TIP3   OH225737   3.854   4.066   2.118 -0.5231 -0.0035 -0.0114
 1441TIP3    H125738   3.842   4.063   2.023 -0.5214 -0.9884  0.0042
 1441TIP3    H225739   3.782   4.121   2.150 -0.9816 -0.2912 -0.5266
 1442TIP3   OH225740   1.438   3.159   2.272 -0.2330 -0.2218  1.0477
 1442TIP3    H125741   1.480   3.241   2.299  1.1289 -0.7250  0.5183
 1442TIP3    H225742   1.461   3.096   2.341  3.2605 -1.5143 -1.0830
 1443TIP3   OH225743   1.891   5.931   6.205  0.1234  0.2009 -0.1087
 1443TIP3    H125744   1.971   5.985   6.205 -0.4905  1.1336  0.8196
 1443TIP3    H225745   1.831   5.978   6.147 -0.2435  0.2658  0.3203
 1444TIP3   OH225746   2.800   5.008   0.538  0.1740 -0.2544  0.4135
 1444TIP3    H125747   2.859   5.075   0.503 -0.9797 -0.1037 -1.4069
 1444TIP3    H225748   2.717   5.054   0.550  0.2169 -0.6059  2.3675
 1445TIP3   OH225749   2.244   6.269   1.002  1.1949 -0.1696  0.7062
 1445TIP3    H125750   2.308   6.327   0.961 -1.6621  2.3418 -0.5797
 1445TIP3    H225751   2.208   6.218   0.930 -0.1624  0.4282  0.9474
 1446TIP3   OH225752   6.086   3.074   4.922  0.2315 -0.0997 -0.0307
 1446TIP3    H125753   6.071   3.161   4.960  0.8645  0.8352 -1.7925
 1446TIP3    H225754   6.141   3.090   4.846 -0.3750 -1.9529 -0.9350
 1447TIP3   OH225755   1.621   1.716   4.252 -0.0388 -0.3985  0.5206
 1447TIP3    H125756   1.707   1.755   4.264  0.4216 -0.7640 -1.2963
 1447TIP3    H225757   1.634   1.623   4.268 -0.2505 -0.3689  0.8825
 1448TIP3   OH225758   2.585   5.106   3.357  0.2422  0.3493 -0.2744
 1448TIP3    H125759   2.504   5.156   3.357  0.7072  1.1424  0.9827
 1448TIP3    H225760   2.565   5.028   3.305 -0.5108  1.7771 -2.2422
 1449TIP3   OH225761   5.156   4.327  13.894 -0.1493  0.0218 -0.4602
 1449TIP3    H125762   5.119   4.407  13.930 -1.0108 -0.5016 -0.1556
 1449TIP3    H225763   5.116   4.318  13.808  0.4455  0.2524 -0.7703
 1450TIP3   OH225764   4.076   1.102   1.535  0.1442  0.3556  0.6897
 1450TIP3    H125765   4.153   1.110   1.590  1.0823  1.0150 -0.6781
 1450TIP3    H225766   4.058   1.191   1.505  1.3290 -0.3044 -2.2565
 1451TIP3   OH225767   5.426   2.780  11.990  0.3844 -0.7077 -0.0209
 1451TIP3    H125768   5.339   2.743  12.007  1.3361 -3.2804 -0.4256
 1451TIP3    H225769   5.464   2.793  12.077  0.3553 -1.5336  0.1232
 1452TIP3   OH225770   6.053   2.090   0.973  0.1379 -0.4004 -0.3360
 1452TIP3    H125771   5.995   2.145   0.921  1.9089  0.2699 -1.7226
 1452TIP3    H225772   6.140   2.130   0.962  0.5676  0.2138  3.7743
 1453TIP3   OH225773   4.705   2.238  15.558 -0.1699 -0.5879 -0.7145
 1453TIP3    H125774   4.676   2.269  15.644  0.4918 -2.3723  0.2025
 1453TIP3    H225775   4.649   2.163  15.540 -0.1080 -0.3988 -1.7290
 1454TIP3   OH225776   6.704   1.620   5.998 -0.9556 -0.2764  0.3101
 1454TIP3    H125777   6.751   1.700   6.022 -0.3882 -0.2081 -0.9483
 1454TIP3    H225778   6.769   1.566   5.953 -1.3595 -1.4095  1.0144
 1455TIP3   OH225779   1.379   1.906   0.642 -0.3076  0.6079 -0.6286
 1455TIP3    H125780   1.406   1.996   0.658  1.1996 -0.2244  2.1934
 1455TIP3    H225781   1.460   1.859   0.625 -0.5678 -0.7765  1.4753
 1456TIP3   OH225782   4.245   0.351   5.282  0.5769 -0.4841 -0.3706
 1456TIP3    H125783   4.311   0.290   5.250  1.5052  0.2060  0.2089
 1456TIP3    H225784   4.162   0.304   5.270  1.1657 -1.4004 -0.9991
 1457TIP3   OH225785   1.538   2.955  15.782 -0.4991 -0.6376 -0.1954
 1457TIP3    H125786   1.507   3.044  15.795 -0.1385 -0.5446  0.0497
 1457TIP3    H225787   1.464   2.900  15.809 -0.4792 -0.4206  0.3253
 1458TIP3   OH225788   3.185   4.045  15.977  0.4708  0.2550  0.4899
 1458TIP3    H125789   3.132   4.095  16.039  0.3094 -0.1914  0.7179
 1458TIP3    H225790   3.274   4.077  15.991  0.0891  2.1188 -0.9811
 1459TIP3   OH225791   3.137   4.696  12.798  0.5653 -0.0531 -0.5159
 1459TIP3    H125792   3.193   4.641  12.852 -0.8838 -0.0417  1.0677
 1459TIP3    H225793   3.155   4.785  12.827 -1.3369 -0.1424  1.1614
 1460TIP3   OH225794   1.084   0.692   3.579 -0.3035  0.2626 -0.1201
 1460TIP3    H125795   1.028   0.615   3.577  0.4136 -0.2668 -0.7853
 1460TIP3    H225796   1.035   0.760   3.532 -1.0306  0.2855  0.6616
 1461TIP3   OH225797   5.186   0.270   3.709  0.1221 -0.3897 -0.1834
 1461TIP3    H125798   5.102   0.314   3.721  0.4975  0.1616  0.5066
 1461TIP3    H225799   5.214   0.295   3.621  1.3451  2.5759  0.9456
 1462TIP3   OH225800   2.845   3.462  10.973  0.2367  0.0292 -0.0331
 1462TIP3    H125801   2.939   3.477  10.962  0.3299  0.4849  1.2208
 1462TIP3    H225802   2.825   3.496  11.061 -0.2207 -4.0095  1.6498
 1463TIP3   OH225803   5.208   5.342  15.545  0.5132 -0.1039  0.0783
 1463TIP3    H125804   5.183   5.289  15.469  0.3567 -0.6778  0.5210
 1463TIP3    H225805   5.302   5.357  15.534  1.4638 -3.6995  1.8186
 1464TIP3   OH225806   4.470   0.699   1.846  0.3377 -0.2127 -0.4563
 1464TIP3    H125807   4.468   0.782   1.894 -1.3596  0.4009 -1.4942
 1464TIP3    H225808   4.417   0.639   1.898  0.0790 -0.1025 -0.5878
 1465TIP3   OH225809   4.637   4.633  15.701  0.3342  0.1251  0.0902
 1465TIP3    H125810   4.607   4.642  15.792 -1.0493  1.2109 -0.4469
 1465TIP3    H225811   4.572   4.680  15.649  0.8652 -0.8543 -1.5257
 1466TIP3   OH225812   2.794   4.708   0.913 -0.0931 -0.4470 -0.0946
 1466TIP3    H125813   2.739   4.673   0.843 -0.1354 -0.9342  0.1764
 1466TIP3    H225814   2.821   4.795   0.882  0.9184 -1.1552 -1.2666
 1467TIP3   OH225815   5.296   5.300   0.165 -0.5089  0.0394 -0.1635
 1467TIP3    H125816   5.272   5.319   0.074  2.2901  0.1380 -0.9544
 1467TIP3    H225817   5.389   5.318   0.170 -0.4552 -0.5514  2.6149
 1468TIP3   OH225818   6.601   6.611   2.453 -0.1609 -0.1296  0.1334
 1468TIP3    H125819   6.634   6.691   2.412  0.3948 -0.8157 -0.7838
 1468TIP3    H225820   6.505   6.619   2.448 -0.1448  1.0093  1.1298
 1469TIP3   OH225821   1.601   3.027   4.951  0.1894 -0.3807 -0.1455
 1469TIP3    H125822   1.675   3.034   5.012 -0.0747  0.3677  0.1085
 1469TIP3    H225823   1.546   2.957   4.987 -0.6396  0.9280  1.2530
 1470TIP3   OH225824   1.167   0.304   4.909 -0.0136 -0.5802 -0.1167
 1470TIP3    H125825   1.197   0.231   4.856  0.2220 -1.2437  0.8986
 1470TIP3    H225826   1.247   0.352   4.931 -0.1693  0.0124 -0.8016
 1471TIP3   OH225827   1.305   4.253   1.817  0.7360 -0.1999 -0.0940
 1471TIP3    H125828   1.389   4.224   1.852  0.8859  0.2023 -0.1153
 1471TIP3    H225829   1.288   4.336   1.861  0.2802 -0.3492  0.0156
 1472TIP3   OH225830   0.377   5.459  11.661  0.1536  0.1437 -0.0070
 1472TIP3    H125831   0.401   5.547  11.689 -0.7496  0.4826 -0.2634
 1472TIP3    H225832   0.460   5.413  11.651  0.7414  1.4138 -1.3204
 1473TIP3   OH225833   6.064   0.312  16.176 -0.0921  0.2113  0.0689
 1473TIP3    H125834   6.038   0.401  16.154  0.3454  0.1842 -0.5951
 1473TIP3    H225835   5.993   0.257  16.142  0.2784  0.2183 -0.7552
 1474TIP3   OH225836   4.278   5.556   0.522  0.3805  0.1313  0.2711
 1474TIP3    H125837   4.234   5.485   0.476  1.3581 -1.6092  1.9138
 1474TIP3    H225838   4.313   5.612   0.453 -1.2711 -0.3865 -1.0524
 1475TIP3   OH225839   2.039   3.785   3.181 -0.1389  0.1440 -0.1896
 1475TIP3    H125840   2.018   3.730   3.106 -1.8493  0.7595 -0.2070
 1475TIP3    H225841   1.996   3.868   3.163  0.4567  0.7122  0.9047
 1476TIP3   OH225842   5.817   0.875  16.638  0.1079  0.2085  0.3020
 1476TIP3    H125843   5.787   0.814  16.705 -0.7250  0.2963  0.0280
 1476TIP3    H225844   5.878   0.824  16.584  0.3871 -0.0067  0.8139
 1477TIP3   OH225845   4.256   3.161  11.925  0.5016  0.7077 -0.2682
 1477TIP3    H125846   4.306   3.208  11.992  0.4755  0.8626 -0.3586
 1477TIP3    H225847   4.281   3.069  11.937 -0.2372  0.6130  0.5863
 1478TIP3   OH225848   2.162   4.953  10.982  0.1355  0.4029  0.0940
 1478TIP3    H125849   2.120   5.007  11.049  0.3348 -0.2134  0.7344
 1478TIP3    H225850   2.216   5.015  10.932 -0.9890  1.0797 -0.3114
 1479TIP3   OH225851   6.083   2.210  11.558  0.4509 -0.0909 -0.0777
 1479TIP3    H125852   6.001   2.245  11.522 -0.6824 -2.1207  0.3224
 1479TIP3    H225853   6.132   2.287  11.586 -2.1747  1.1933  1.4281
 1480TIP3   OH225854   6.200   4.941  16.829 -0.2331 -0.6785  0.2909
 1480TIP3    H125855   6.228   4.865  16.880 -1.5435 -1.0480  0.4957
 1480TIP3    H225856   6.124   4.975  16.876 -0.3323  0.1098 -0.4126
 1481TIP3   OH225857   3.860   2.365  11.592  0.3263 -0.5772 -0.2231
 1481TIP3    H125858   3.828   2.442  11.640 -0.1530 -0.8056 -0.1802
 1481TIP3    H225859   3.939   2.397  11.547  0.6589 -0.2998  0.5344
 1482TIP3   OH225860   1.485   4.323  17.198  0.6022  0.3973  0.1567
 1482TIP3    H125861   1.554   4.275  17.244 -0.7016 -2.4702 -0.6531
 1482TIP3    H225862   1.518   4.334  17.109  0.5834  0.3045  0.1391
 1483TIP3   OH225863   0.279   4.983  16.045 -0.4278 -0.1841  0.0963
 1483TIP3    H125864   0.241   4.910  16.093  0.2159  0.3047  1.3934
 1483TIP3    H225865   0.373   4.975  16.059 -0.2100 -0.0612 -1.1590
 1484TIP3   OH225866   0.108   3.464   4.132 -0.0714  0.1128 -0.3835
 1484TIP3    H125867   0.128   3.457   4.226 -0.8602  0.1899 -0.1978
 1484TIP3    H225868   0.027   3.515   4.129 -0.0487  0.1157 -1.1149
 1485TIP3   OH225869   0.045   6.759   3.281 -0.4940 -0.1094 -0.5914
 1485TIP3    H125870   0.067   6.723   3.366 -1.6676 -0.4664 -0.4276
 1485TIP3    H225871  -0.051   6.758   3.278 -0.5816  2.4379 -0.8070
 1486TIP3   OH225872   4.642   0.224   5.226 -0.1115  0.5218  0.1051
 1486TIP3    H125873   4.601   0.252   5.145  0.3305 -1.9881 -1.0746
 1486TIP3    H225874   4.724   0.274   5.230  1.0189 -0.9476 -2.2967
 1487TIP3   OH225875   5.451   4.300   0.138  0.4110 -0.1068  0.0240
 1487TIP3    H125876   5.382   4.366   0.129  0.0023 -0.5243  0.0693
 1487TIP3    H225877   5.412   4.232   0.192  1.2772  0.2165  1.0955
 1488TIP3   OH225878   4.412   4.838  15.713 -0.0955 -0.1680 -1.0378
 1488TIP3    H125879   4.326   4.850  15.754 -0.5936 -0.9061 -1.8305
 1488TIP3    H225880   4.393   4.832  15.619  0.9041  0.3754 -1.2876
 1489TIP3   OH225881   5.032   4.308  14.258 -0.3233 -0.1919 -0.3932
 1489TIP3    H125882   5.055   4.401  14.265  0.0691 -0.3475  0.5179
 1489TIP3    H225883   5.108   4.269  14.214 -0.5355 -0.0659 -0.8760
 1490TIP3   OH225884   1.262   0.689   4.275  0.4020  0.4419  0.3670
 1490TIP3    H125885   1.235   0.724   4.359 -0.0157 -0.3951  0.6017
 1490TIP3    H225886   1.339   0.739   4.250  1.4150 -0.2693  1.9434
 1491TIP3   OH225887   3.279   4.383   2.955 -0.7424  0.0607  0.1575
 1491TIP3    H125888   3.356   4.439   2.950 -0.2282 -0.5992  0.5867
 1491TIP3    H225889   3.225   4.423   3.023 -0.6984  0.4102 -0.0076
 1492TIP3   OH225890   5.859   4.542   2.084 -0.4909  0.7260  0.4740
 1492TIP3    H125891   5.905   4.625   2.076 -0.5365  0.7716  0.6784
 1492TIP3    H225892   5.886   4.507   2.170  0.1068  0.1779  0.0746
 1493TIP3   OH225893   2.744   0.607   4.304  0.1504 -0.8235 -0.3739
 1493TIP3    H125894   2.689   0.684   4.290  1.9741  0.3245 -1.7824
 1493TIP3    H225895   2.682   0.537   4.322 -1.7091  0.5791 -0.9057
 1494TIP3   OH225896   5.580   3.438  13.726  0.2100 -0.0108  0.3078
 1494TIP3    H125897   5.515   3.368  13.717 -1.2976  1.3571  0.0402
 1494TIP3    H225898   5.591   3.472  13.637  0.1638  0.7213  0.5693
 1495TIP3   OH225899   3.722   0.589   3.116  0.4470 -0.6433 -0.1834
 1495TIP3    H125900   3.634   0.615   3.145  0.9889  0.7544  0.2666
 1495TIP3    H225901   3.706   0.530   3.042 -0.8633  0.0215 -0.4617
 1496TIP3   OH225902   4.095   5.354   4.722 -0.4059 -0.3935  0.0647
 1496TIP3    H125903   4.046   5.435   4.714 -0.4123 -0.4296 -0.3078
 1496TIP3    H225904   4.110   5.344   4.815  0.4922  0.5696  0.0415
 1497TIP3   OH225905   4.918   1.752  16.597 -0.0051  0.0533  0.1676
 1497TIP3    H125906   4.857   1.777  16.667 -0.8035 -2.9637  0.6683
 1497TIP3    H225907   4.975   1.687  16.637  0.0651 -1.1360 -1.7638
 1498TIP3   OH225908   2.979   3.134  12.534 -0.6023  0.0442  0.2362
 1498TIP3    H125909   3.020   3.221  12.541  2.6185 -1.3267  0.1437
 1498TIP3    H225910   2.918   3.142  12.461  0.9957  1.7652 -1.0091
 1499TIP3   OH225911   6.737   2.943   2.869  0.0526  0.0729  0.1777
 1499TIP3    H125912   6.742   3.018   2.927  0.2084 -0.9424  1.5291
 1499TIP3    H225913   6.803   2.960   2.802  0.0814  1.1350  0.4651
 1500TIP3   OH225914   5.553   0.006  15.955 -0.1452 -0.4770 -0.1757
 1500TIP3    H125915   5.611   0.077  15.928  1.8066 -0.9564  2.3734
 1500TIP3    H225916   5.468   0.049  15.971  1.1379  1.5214  1.9454
 1501TIP3   OH225917   6.028   0.609   4.319  0.3463 -0.6926  0.7060
 1501TIP3    H125918   6.032   0.561   4.402 -0.1111 -2.5879 -0.3219
 1501TIP3    H225919   6.028   0.541   4.252 -1.4661  0.7041 -0.8027
 1502TIP3   OH225920   0.699   0.865   2.274 -0.3473 -0.0469 -0.5387
 1502TIP3    H125921   0.612   0.874   2.312 -0.8131 -0.7429 -1.4232
 1502TIP3    H225922   0.709   0.942   2.217  0.3982  1.0625  1.0119
 1503TIP3   OH225923   3.444   2.483   2.232 -0.3900  0.0476 -0.2828
 1503TIP3    H125924   3.537   2.466   2.249 -0.8324 -2.5455 -0.0642
 1503TIP3    H225925   3.442   2.573   2.199  2.4199 -0.4162 -2.0685
 1504TIP3   OH225926   6.757   5.196  12.425 -0.2463  0.2910 -0.0377
 1504TIP3    H125927   6.801   5.117  12.395 -0.2317  0.9147 -1.7515
 1504TIP3    H225928   6.819   5.236  12.487 -0.6933 -1.5143  1.6686
 1505TIP3   OH225929   5.756   6.222   2.025  0.0625 -0.0018  0.0416
 1505TIP3    H125930   5.823   6.260   2.081 -0.4516  1.4581 -0.2810
 1505TIP3    H225931   5.736   6.137   2.065 -0.2584  0.9621  2.0711
 1506TIP3   OH225932   2.845   3.664   3.385 -0.0463 -0.3277  0.0954
 1506TIP3    H125933   2.809   3.604   3.449 -0.8295  0.4273  0.3856
 1506TIP3    H225934   2.938   3.670   3.406  0.0889 -1.6207 -0.1018
 1507TIP3   OH225935   6.562   1.180  16.019  0.0682 -0.3135  0.0657
 1507TIP3    H125936   6.650   1.188  15.984  0.7617 -1.8512  1.3496
 1507TIP3    H225937   6.505   1.206  15.946  1.5105 -1.0941 -1.4014
 1508TIP3   OH225938   2.330   5.252   0.747  0.1743 -0.0493 -0.2086
 1508TIP3    H125939   2.269   5.272   0.676  0.4939  1.3822 -0.1175
 1508TIP3    H225940   2.307   5.314   0.816  1.9140  0.7918 -0.3066
 1509TIP3   OH225941   5.058   0.972   2.949 -0.0956  0.7182  0.6418
 1509TIP3    H125942   5.006   1.001   3.025 -1.1984 -0.9642  0.5641
 1509TIP3    H225943   5.013   0.894   2.917  1.8298 -0.1076 -0.1802
 1510TIP3   OH225944   5.394   0.923  14.167 -0.2612 -0.3317 -0.0657
 1510TIP3    H125945   5.383   0.924  14.072  0.3038 -1.6931 -0.1646
 1510TIP3    H225946   5.305   0.910  14.201 -0.3274 -0.9500 -0.4595
 1511TIP3   OH225947   5.061   3.720  13.837  0.6231  1.3401  0.1371
 1511TIP3    H125948   5.043   3.814  13.841 -0.7396  1.3796 -3.4110
 1511TIP3    H225949   5.156   3.713  13.847  0.7745  3.1164  0.2172
 1512TIP3   OH225950   4.066   2.214   2.663 -0.4591  0.2555  0.0841
 1512TIP3    H125951   4.145   2.247   2.706 -1.0374  0.0476  1.3476
 1512TIP3    H225952   3.998   2.217   2.730 -1.1823 -0.9775 -0.5403
 1513TIP3   OH225953   5.243   2.613   2.849  0.6051  0.5112  0.1500
 1513TIP3    H125954   5.238   2.624   2.755 -2.4189 -0.9448  0.0127
 1513TIP3    H225955   5.190   2.684   2.885 -1.2390 -0.9089  0.4387
 1514TIP3   OH225956   3.663   2.189  10.823 -0.1589 -0.6895  0.0418
 1514TIP3    H125957   3.702   2.111  10.783  0.3658 -0.1161 -0.5880
 1514TIP3    H225958   3.586   2.206  10.771 -0.0162 -0.5138 -0.1107
 1515TIP3   OH225959   4.598   5.516   5.909  0.0099 -0.2921  0.4246
 1515TIP3    H125960   4.654   5.439   5.918  0.8200  0.3520  1.0296
 1515TIP3    H225961   4.525   5.486   5.854 -0.3648 -1.8415  1.7019
 1516TIP3   OH225962   1.004   1.920  16.378 -0.3721  0.0626 -0.0046
 1516TIP3    H125963   1.065   1.892  16.448  0.8481  1.4779 -0.4551
 1516TIP3    H225964   0.917   1.908  16.416  0.0359 -3.4888  0.1340
 1517TIP3   OH225965   4.141   2.096   0.093  0.2750  0.2038 -0.1354
 1517TIP3    H125966   4.093   2.116   0.173  0.6877  0.1419  0.1319
 1517TIP3    H225967   4.149   2.180   0.048 -1.8606 -0.0954 -1.2048
 1518TIP3   OH225968   3.286   3.238   3.503 -0.1227  0.4349 -0.2734
 1518TIP3    H125969   3.321   3.215   3.417  0.5514 -0.4785  0.2231
 1518TIP3    H225970   3.191   3.241   3.490  0.0298  1.5648 -1.3224
 1519TIP3   OH225971   1.444   6.632  15.738 -0.1797 -0.3322 -0.1867
 1519TIP3    H125972   1.380   6.685  15.691 -1.0446 -0.6955  0.5487
 1519TIP3    H225973   1.512   6.614  15.674  0.0128  1.4468 -0.5168
 1520TIP3   OH225974   1.965   2.427  10.477  0.3728  0.2763  0.0407
 1520TIP3    H125975   2.014   2.427  10.559 -2.1127  1.7429  1.6483
 1520TIP3    H225976   2.015   2.486  10.420  2.1950 -0.8459  0.3718
 1521TIP3   OH225977   5.570   3.368   4.341  0.6301 -0.0100  0.4737
 1521TIP3    H125978   5.594   3.310   4.269 -2.3728 -1.7007  0.6757
 1521TIP3    H225979   5.642   3.359   4.404  1.6410 -1.1958 -0.7887
 1522TIP3   OH225980   2.357   0.463   1.195 -0.3426  0.0905 -0.3052
 1522TIP3    H125981   2.403   0.536   1.237 -0.4088 -0.1819  0.2461
 1522TIP3    H225982   2.402   0.452   1.111  0.2903  0.1422  0.0235
 1523TIP3   OH225983   6.344   4.780   2.134  0.1096  0.2951  0.0508
 1523TIP3    H125984   6.350   4.875   2.145 -0.3967  0.4147 -0.6738
 1523TIP3    H225985   6.373   4.745   2.218 -2.4178  1.1586  1.3758
 1524TIP3   OH225986   1.495   3.793  14.478  0.1183 -0.1325  0.1882
 1524TIP3    H125987   1.511   3.866  14.418 -1.5546 -0.5347 -0.8352
 1524TIP3    H225988   1.498   3.715  14.423 -1.0240 -0.5536  0.6873
 1525TIP3   OH225989   6.743   5.379  16.732  0.0471  0.1139 -0.5605
 1525TIP3    H125990   6.735   5.434  16.810  0.5010  0.2598 -0.6103
 1525TIP3    H225991   6.717   5.292  16.760 -1.1985  0.4498 -0.6015
 1526TIP3   OH225992   0.175   1.984   2.121 -0.0617 -0.4638 -0.5394
 1526TIP3    H125993   0.162   1.964   2.029 -2.3451 -0.5765 -0.2486
 1526TIP3    H225994   0.138   1.908   2.167 -1.1150  0.6215  0.4692
 1527TIP3   OH225995   0.530   6.746  16.133  0.5022  0.0464 -0.1279
 1527TIP3    H125996   0.494   6.683  16.196  0.8607 -1.2226 -1.1498
 1527TIP3    H225997   0.453   6.795  16.103  0.0700 -0.5280  0.0118
 1528TIP3   OH225998   4.637   1.652   0.872 -0.0705 -0.6327  0.2486
 1528TIP3    H125999   4.542   1.639   0.861 -0.1485 -0.7243  0.9769
 1528TIP3    H226000   4.644   1.736   0.916  0.0517 -1.6127  2.2325
 1529TIP3   OH226001   4.198   2.259  12.523 -0.1018 -0.1643  0.1296
 1529TIP3    H126002   4.285   2.253  12.562 -0.7587  0.7417  1.8532
 1529TIP3    H226003   4.197   2.191  12.455  0.8040 -2.5485  2.3402
 1530TIP3   OH226004   6.527   4.847  13.285 -0.7161  0.4691 -0.0037
 1530TIP3    H126005   6.526   4.763  13.240 -0.7352  0.6663 -0.3777
 1530TIP3    H226006   6.572   4.829  13.368 -0.9108  0.0482  0.0141
 1531TIP3   OH226007   0.980   2.965   1.685 -0.2676 -0.2950 -0.2576
 1531TIP3    H126008   0.909   3.027   1.702  1.2731  1.5855 -0.2512
 1531TIP3    H226009   0.984   2.958   1.590 -2.0634 -2.4526 -0.2358
 1532TIP3   OH226010   6.572   4.733  14.201 -0.4363 -0.5830 -0.8230
 1532TIP3    H126011   6.608   4.715  14.114 -0.0167  1.7196 -1.1881
 1532TIP3    H226012   6.648   4.734  14.259 -0.4484 -0.1073 -0.8084
 1533TIP3   OH226013   0.588   5.953  13.722  0.4935  0.2489  0.4079
 1533TIP3    H126014   0.584   5.900  13.642 -0.5213 -0.2380  0.7692
 1533TIP3    H226015   0.502   5.992  13.729  0.6495  0.4593  1.1583
 1534TIP3   OH226016   3.109   3.543  14.454  0.1753  0.8245 -0.3116
 1534TIP3    H126017   3.177   3.573  14.393 -1.2018 -2.1463 -3.6628
 1534TIP3    H226018   3.056   3.621  14.470  1.0553  1.9342 -2.3286
 1535TIP3   OH226019   2.471   5.309  15.326  0.2815  0.4603 -0.0042
 1535TIP3    H126020   2.522   5.228  15.335 -0.4893 -0.1247 -0.8445
 1535TIP3    H226021   2.537   5.379  15.334  0.6936 -0.1095  3.0034
 1536TIP3   OH226022   0.570   3.841   5.432 -0.0203  0.1705  0.1048
 1536TIP3    H126023   0.511   3.885   5.493 -0.1340 -0.1769  0.2485
 1536TIP3    H226024   0.613   3.912   5.384  0.3242  0.4656  0.8317
 1537TIP3   OH226025   0.703   3.957   4.873 -0.1948  0.6347 -0.0432
 1537TIP3    H126026   0.637   3.986   4.935 -0.3783  0.0054  0.0605
 1537TIP3    H226027   0.695   3.862   4.871  1.3244  0.4598  0.6582
 1538TIP3   OH226028   0.595   4.206  13.819  0.4345 -0.3363  0.6043
 1538TIP3    H126029   0.587   4.119  13.779 -0.6902 -0.2235  0.5316
 1538TIP3    H226030   0.521   4.211  13.879  0.3611  0.6489  0.4461
 1539TIP3   OH226031   3.264   1.291  14.415  0.2944 -0.1692 -0.2003
 1539TIP3    H126032   3.342   1.263  14.463  0.2534 -0.7065 -0.4493
 1539TIP3    H226033   3.217   1.210  14.396  0.7660 -0.0649 -1.9598
 1540TIP3   OH226034   6.199   4.309  16.516 -0.5056  0.1534 -0.5172
 1540TIP3    H126035   6.271   4.246  16.515 -2.4842 -2.2875  0.0572
 1540TIP3    H226036   6.218   4.368  16.443  2.1726 -0.1643 -0.1997
 1541TIP3   OH226037   5.955   0.914   5.428 -0.4175  0.2375  0.0545
 1541TIP3    H126038   5.997   0.830   5.448 -1.1299 -0.3423 -0.8052
 1541TIP3    H226039   5.980   0.933   5.337  1.4875  2.0468  0.8720
 1542TIP3   OH226040   4.096   2.185   0.371 -0.1842  0.2291  0.2645
 1542TIP3    H126041   4.184   2.220   0.381 -0.0193  0.1216 -0.6627
 1542TIP3    H226042   4.039   2.249   0.414  0.2654  0.7603  0.0778
 1543TIP3   OH226043   1.925   3.402   5.032 -0.0786  0.0429  0.1544
 1543TIP3    H126044   2.016   3.398   5.063  0.8363  2.7967 -1.7818
 1543TIP3    H226045   1.933   3.424   4.939 -2.7507 -2.2708 -0.7379
 1544TIP3   OH226046   1.892   2.549  16.160  0.4925  0.5244  0.1816
 1544TIP3    H126047   1.799   2.556  16.180  0.4183 -1.3765  0.6124
 1544TIP3    H226048   1.931   2.508  16.237  2.2407  3.7232  1.2317
 1545TIP3   OH226049   4.088   5.743   5.958 -0.1097 -0.2786  0.0851
 1545TIP3    H126050   4.095   5.708   6.047  0.4912  0.1766  0.2161
 1545TIP3    H226051   4.178   5.759   5.931 -0.3619  1.5956  0.2011
 1546TIP3   OH226052   6.218   6.748   6.003  0.4492 -0.5031  0.1715
 1546TIP3    H126053   6.184   6.833   6.034 -1.2020 -0.8676 -0.5034
 1546TIP3    H226054   6.209   6.690   6.079 -0.8135 -0.6747 -0.0883
 1547TIP3   OH226055   0.787   4.749   3.925 -0.2476  0.1958 -0.5644
 1547TIP3    H126056   0.801   4.824   3.983  0.1700  0.8384 -1.4537
 1547TIP3    H226057   0.808   4.783   3.838 -2.2647 -0.3049 -1.3092
 1548TIP3   OH226058   4.458   0.763   3.034  0.3841 -0.0123  0.3068
 1548TIP3    H126059   4.455   0.668   3.032  2.8416 -0.6104  5.8462
 1548TIP3    H226060   4.372   0.790   3.066  0.9305 -0.9414  2.7812
 1549TIP3   OH226061   5.678   3.626   5.011  0.0509 -0.6622 -0.2567
 1549TIP3    H126062   5.611   3.651   4.947 -0.5889 -1.4947  0.0752
 1549TIP3    H226063   5.741   3.574   4.961 -0.7988 -1.8869 -0.0925
 1550TIP3   OH226064   5.766   3.683   2.190 -0.2184 -0.0148 -0.3197
 1550TIP3    H126065   5.853   3.680   2.152  0.1528 -0.1510  0.5202
 1550TIP3    H226066   5.706   3.676   2.115  0.4572  1.8243 -1.0904
 1551TIP3   OH226067   2.805   0.099  11.619 -0.6003  0.2635 -0.1187
 1551TIP3    H126068   2.772   0.094  11.530 -0.6801  0.7288 -0.1153
 1551TIP3    H226069   2.891   0.141  11.611 -1.0373  1.2366  0.1232
 1552TIP3   OH226070   3.584   5.118   2.444 -0.2474 -0.0592  0.1700
 1552TIP3    H126071   3.563   5.211   2.440 -1.0228 -0.2496 -0.5300
 1552TIP3    H226072   3.516   5.081   2.501 -0.4272 -0.3168 -0.2065
 1553TIP3   OH226073   4.650   2.047  12.801 -0.4427  0.0664 -0.2674
 1553TIP3    H126074   4.621   2.021  12.889  0.7116 -0.3478  0.0127
 1553TIP3    H226075   4.745   2.057  12.809 -0.5730  2.3073 -0.9112
 1554TIP3   OH226076   4.449   4.899  16.716  0.3535  0.3478 -0.1084
 1554TIP3    H126077   4.440   4.994  16.706  0.9699  0.4421  0.1890
 1554TIP3    H226078   4.453   4.885  16.811  0.5251  0.0510 -0.1567
 1555TIP3   OH226079   5.261   2.047   1.536 -0.0380 -0.4799 -0.4605
 1555TIP3    H126080   5.354   2.060   1.554  0.1317 -3.3719  1.4201
 1555TIP3    H226081   5.217   2.082   1.613 -0.5111  0.6135 -1.2149
 1556TIP3   OH226082   0.438   4.304  16.390 -0.5717 -0.1595 -0.0709
 1556TIP3    H126083   0.380   4.286  16.316 -0.6570 -1.5026  0.3026
 1556TIP3    H226084   0.441   4.400  16.396 -1.9336 -0.0656 -0.7246
 1557TIP3   OH226085   1.971   6.225  10.806 -0.5845  0.2911 -0.5485
 1557TIP3    H126086   2.052   6.205  10.758 -0.3919  1.5864 -0.7859
 1557TIP3    H226087   1.974   6.319  10.820  0.4022 -0.2024  3.9098
 1558TIP3   OH226088   4.026   3.473   0.667  0.0930  0.2118 -0.1801
 1558TIP3    H126089   3.954   3.494   0.607  0.5032  1.1954 -0.3572
 1558TIP3    H226090   3.999   3.511   0.750 -0.1560 -0.5316  0.0821
 1559TIP3   OH226091   1.795   3.845  11.855 -0.2100 -0.7377  0.0286
 1559TIP3    H126092   1.882   3.880  11.875 -0.7754  0.3738  0.6542
 1559TIP3    H226093   1.796   3.831  11.760  0.0838  0.9469 -0.2411
 1560TIP3   OH226094   6.057   2.201  13.675 -0.6459  0.3467  0.4862
 1560TIP3    H126095   6.034   2.292  13.661 -2.9054 -0.0163  1.3729
 1560TIP3    H226096   6.002   2.152  13.614 -0.8548 -0.4979  1.3174
 1561TIP3   OH226097   2.188   0.907   5.796 -0.0462 -0.3191  0.1355
 1561TIP3    H126098   2.190   0.842   5.726  1.7967 -0.2735  0.0797
 1561TIP3    H226099   2.151   0.860   5.871 -2.8224 -0.1313 -0.9993
 1562TIP3   OH226100   0.201   3.784   5.178 -0.2949  0.4965  0.1169
 1562TIP3    H126101   0.256   3.711   5.150 -1.6064 -0.2426 -0.6630
 1562TIP3    H226102   0.176   3.762   5.268  0.2618  0.5799  0.2940
 1563TIP3   OH226103   5.374   5.883   4.165  0.0414 -0.0396 -0.6378
 1563TIP3    H126104   5.289   5.896   4.207  1.2995 -0.0405  2.1303
 1563TIP3    H226105   5.416   5.968   4.168 -0.3214  0.3216 -3.3277
 1564TIP3   OH226106   6.770   2.273   1.577  0.1644  0.3694  0.5666
 1564TIP3    H126107   6.855   2.308   1.606 -0.0011  0.2130  1.2540
 1564TIP3    H226108   6.782   2.178   1.578  0.6777  0.3679 -1.4945
 1565TIP3   OH226109   0.578   3.880  12.690  0.1812 -0.0108  0.3947
 1565TIP3    H126110   0.628   3.809  12.730 -1.2462 -0.5249  1.3578
 1565TIP3    H226111   0.518   3.835  12.630  0.5999  0.5625 -0.4770
 1566TIP3   OH226112   4.324   3.814   0.313 -0.1962  0.1079 -0.6629
 1566TIP3    H126113   4.325   3.905   0.342 -0.4326  0.4119 -1.5676
 1566TIP3    H226114   4.247   3.776   0.355 -0.6075  0.5717 -0.9884
 1567TIP3   OH226115   5.355   5.192   5.310 -0.4117 -0.2186  0.0143
 1567TIP3    H126116   5.334   5.099   5.295 -2.4852  0.2147 -0.1337
 1567TIP3    H226117   5.432   5.208   5.257  2.1691 -2.6540  2.6323
 1568TIP3   OH226118   3.831   4.449   5.118 -0.0317  0.3482  0.4209
 1568TIP3    H126119   3.852   4.388   5.188 -1.0750 -1.0059 -0.4024
 1568TIP3    H226120   3.891   4.425   5.047  0.3497  1.0706  0.4825
 1569TIP3   OH226121   2.118   4.422   4.790  0.7399  0.1865 -0.1219
 1569TIP3    H126122   2.159   4.505   4.815  1.2174  0.3145 -1.2586
 1569TIP3    H226123   2.160   4.399   4.707  0.4278 -1.0693  0.0480
 1570TIP3   OH226124   2.817   2.315   1.852  0.3480 -0.6475  0.3040
 1570TIP3    H126125   2.830   2.317   1.946  2.0586 -0.3378  0.0894
 1570TIP3    H226126   2.816   2.222   1.829 -0.1836 -0.7236  0.6388
 1571TIP3   OH226127   6.539   6.117  13.657 -0.1115 -0.3129 -0.1357
 1571TIP3    H126128   6.453   6.114  13.615  0.3274  1.3741 -1.2206
 1571TIP3    H226129   6.600   6.085  13.589  0.5072  1.7241 -0.6013
 1572TIP3   OH226130   1.908   5.556   2.265  0.1766 -0.8501 -0.1584
 1572TIP3    H126131   1.972   5.497   2.304 -0.8796 -0.9734  1.4748
 1572TIP3    H226132   1.912   5.635   2.318 -1.6137 -1.1895  0.5465
 1573TIP3   OH226133   4.970   5.260  10.571 -0.1084 -0.5939  0.0618
 1573TIP3    H126134   4.881   5.260  10.535  0.8385  0.1955 -2.4811
 1573TIP3    H226135   5.011   5.182  10.534  0.0005 -1.5602  2.0838
 1574TIP3   OH226136   6.123   2.665  10.808  0.4209 -0.4237  0.2098
 1574TIP3    H126137   6.195   2.729  10.813  0.7588 -0.8458  0.8332
 1574TIP3    H226138   6.067   2.698  10.737  1.3047 -0.1678 -0.3909
 1575TIP3   OH226139   1.684   1.805   1.010 -0.8866 -0.1743  0.4188
 1575TIP3    H126140   1.695   1.886   0.959  0.3834 -0.1785  0.6418
 1575TIP3    H226141   1.728   1.738   0.958  0.2858 -0.2128  1.3954
 1576TIP3   OH226142   1.365   3.140  14.623 -0.0273  0.2808  0.3264
 1576TIP3    H126143   1.347   3.050  14.651  1.5270 -0.6236 -1.3759
 1576TIP3    H226144   1.368   3.190  14.705 -1.5127 -1.0742  1.2623
 1577TIP3   OH226145   5.514   2.348   4.709 -0.5473 -0.1442 -0.2434
 1577TIP3    H126146   5.565   2.372   4.632 -0.6570  2.5853  0.4059
 1577TIP3    H226147   5.423   2.352   4.680 -0.5624  0.1575 -0.1573
 1578TIP3   OH226148   5.086   0.352   1.342 -0.2255 -0.1719 -0.1046
 1578TIP3    H126149   5.055   0.439   1.364 -2.4452 -0.9866  0.2873
 1578TIP3    H226150   5.154   0.333   1.407  0.3708  1.2906 -0.2845
 1579TIP3   OH226151   2.373   5.225   4.079  0.2592 -0.8131 -0.0394
 1579TIP3    H126152   2.322   5.145   4.088 -0.7466 -0.0757  1.3218
 1579TIP3    H226153   2.310   5.296   4.093  1.3270  0.1856 -0.0746
 1580TIP3   OH226154   3.699   1.831   0.926  0.8548 -0.4156  0.0138
 1580TIP3    H126155   3.746   1.909   0.956 -0.0613  0.4615 -0.7662
 1580TIP3    H226156   3.651   1.800   1.003  1.2367 -0.2260  0.3314
 1581TIP3   OH226157   2.524   2.478  14.810 -0.8553 -0.2147 -0.1310
 1581TIP3    H126158   2.523   2.384  14.825 -2.0503 -0.2758 -0.4647
 1581TIP3    H226159   2.553   2.487  14.719  0.9536 -0.1365  0.4031
 1582TIP3   OH226160   0.932   1.599  13.653  0.2708 -0.1891 -0.1014
 1582TIP3    H126161   0.883   1.622  13.574 -1.0221 -0.2310  0.6659
 1582TIP3    H226162   0.988   1.674  13.670 -0.4581  0.4012 -0.2875
 1583TIP3   OH226163   4.540   4.816  16.220  0.0874  0.5638  0.6102
 1583TIP3    H126164   4.575   4.905  16.214 -1.4741  1.4680  3.1827
 1583TIP3    H226165   4.577   4.782  16.302  0.2422 -0.9796 -0.0758
 1584TIP3   OH226166   5.586   1.620  16.672  0.5205 -0.3110 -0.1941
 1584TIP3    H126167   5.604   1.626  16.766 -0.5072  0.4331 -0.0207
 1584TIP3    H226168   5.600   1.709  16.640  1.0171 -0.5975 -0.7788
 1585TIP3   OH226169   4.506   4.833   4.454 -0.0187 -0.3003 -0.4270
 1585TIP3    H126170   4.543   4.780   4.524 -0.6485 -0.3095 -0.0883
 1585TIP3    H226171   4.449   4.895   4.500 -2.7921 -2.1939 -1.0716
 1586TIP3   OH226172   3.437   6.682   1.049 -0.0334 -0.3850  0.3468
 1586TIP3    H126173   3.361   6.674   0.992  0.0018 -0.6982  0.3445
 1586TIP3    H226174   3.500   6.620   1.013  1.2819  1.7648 -1.3550
 1587TIP3   OH226175   6.119   4.314  14.868 -0.7553  0.0055  0.4344
 1587TIP3    H126176   6.091   4.326  14.777 -0.1231  3.2569  0.5523
 1587TIP3    H226177   6.206   4.273  14.861 -0.1598  1.3598 -0.5266
 1588TIP3   OH226178   3.138   6.071   1.439 -0.0873  0.1363  0.1790
 1588TIP3    H126179   3.173   6.150   1.397 -2.5424  0.6789 -1.0766
 1588TIP3    H226180   3.120   6.011   1.366  1.6133 -1.5975  1.0988
 1589TIP3   OH226181   6.030   4.068   2.840  0.0335 -0.2094  0.0894
 1589TIP3    H126182   6.114   4.076   2.796  0.0793  0.8220  0.3479
 1589TIP3    H226183   6.021   3.974   2.858  0.6039 -0.4674 -0.9391
 1590TIP3   OH226184   0.323   3.850  16.709  0.2234 -0.0676  0.0573
 1590TIP3    H126185   0.301   3.942  16.727  2.9294  1.2643 -2.5934
 1590TIP3    H226186   0.252   3.819  16.653 -0.6797  0.3766  0.9180
 1591TIP3   OH226187   0.256   0.015   0.681 -0.0524  0.4228 -0.6937
 1591TIP3    H126188   0.163  -0.001   0.693 -0.2309  2.5698  1.7824
 1591TIP3    H226189   0.298  -0.038   0.749  0.5650 -0.3608 -1.6517
 1592TIP3   OH226190   0.376   2.707  12.173 -0.1100 -0.1440  0.2306
 1592TIP3    H126191   0.319   2.710  12.250 -0.7556 -0.6724 -0.2244
 1592TIP3    H226192   0.327   2.752  12.105  0.3345  0.0472  0.0345
 1593TIP3   OH226193   6.681   4.311  13.017 -0.4442 -0.0282  0.6451
 1593TIP3    H126194   6.647   4.255  12.948  2.2562 -1.5626  0.3843
 1593TIP3    H226195   6.722   4.384  12.971 -1.2065  0.5197  0.8186
 1594TIP3   OH226196   1.857   5.585  16.732 -0.1458  0.3602 -0.3424
 1594TIP3    H126197   1.797   5.618  16.665 -0.8060  0.8425  0.4614
 1594TIP3    H226198   1.884   5.499  16.700 -0.9314  0.3275 -0.9395
 1595TIP3   OH226199   3.747   3.426  16.409  0.1080  0.1028 -0.2128
 1595TIP3    H126200   3.759   3.331  16.407 -0.3629  0.0510 -1.9786
 1595TIP3    H226201   3.836   3.461  16.415  0.2144 -0.4138  2.8636
 1596TIP3   OH226202   1.737   1.951  14.906 -0.5022 -0.3781 -0.2212
 1596TIP3    H126203   1.746   1.984  14.995 -2.7823  1.2800 -0.5086
 1596TIP3    H226204   1.824   1.960  14.867  0.2138  0.0831  1.4240
 1597TIP3   OH226205   3.267   5.254  16.396 -0.5623 -0.4361 -0.3629
 1597TIP3    H126206   3.306   5.336  16.428  0.2942 -0.0133 -2.3387
 1597TIP3    H226207   3.338   5.210  16.349 -1.1719 -2.0619  0.1633
 1598TIP3   OH226208   0.350   0.912  16.082  0.3890 -0.0087  0.6572
 1598TIP3    H126209   0.431   0.910  16.032 -0.0371 -1.2744 -0.0246
 1598TIP3    H226210   0.341   0.823  16.118 -1.3227 -0.2868 -0.3285
 1599TIP3   OH226211   4.235   4.801  11.700  0.2524  0.3842 -0.4951
 1599TIP3    H126212   4.237   4.774  11.792 -3.4158  1.9235  0.1801
 1599TIP3    H226213   4.284   4.883  11.697 -0.9280  1.1411  0.4536
 1600TIP3   OH226214   2.578   3.023   5.123  0.3392  0.3366  0.1207
 1600TIP3    H126215   2.591   3.115   5.147  1.0230  0.6684 -1.4088
 1600TIP3    H226216   2.511   2.992   5.183 -1.4806  2.4383 -0.6699
 1601TIP3   OH226217   2.760   6.482   1.825 -0.7026 -0.0456 -0.0935
 1601TIP3    H126218   2.853   6.465   1.841 -0.3009  1.7359 -0.3515
 1601TIP3    H226219   2.743   6.564   1.870 -2.0600 -0.1465 -0.3946
 1602TIP3   OH226220   2.858   2.698  14.406  0.0989 -0.0294 -0.3940
 1602TIP3    H126221   2.929   2.677  14.466  1.4677  2.2457 -1.0947
 1602TIP3    H226222   2.891   2.673  14.320 -0.0281  0.7676 -0.6869
 1603TIP3   OH226223   1.374   2.057  10.974 -0.2284 -0.0678 -0.2370
 1603TIP3    H126224   1.428   1.997  10.922  1.6948  1.6299 -0.3228
 1603TIP3    H226225   1.367   2.136  10.921 -0.3497  0.7954  1.0092
 1604TIP3   OH226226   0.467   5.132   3.467 -0.6387  0.1777  0.2203
 1604TIP3    H126227   0.397   5.143   3.532 -1.2982 -1.6032 -0.1347
 1604TIP3    H226228   0.425   5.086   3.394  1.1472 -2.1779  0.5335
 1605TIP3   OH226229   3.603   5.829  17.094 -0.7301  0.2532 -0.5389
 1605TIP3    H126230   3.617   5.910  17.044 -3.4216  2.4929  1.9588
 1605TIP3    H226231   3.642   5.848  17.180 -2.3494 -0.6505  0.4304
 1606TIP3   OH226232   6.726   4.254  16.694  0.0743 -0.0538  0.7368
 1606TIP3    H126233   6.778   4.299  16.627  0.2776  0.9841  1.5625
 1606TIP3    H226234   6.646   4.306  16.701  0.1637 -0.0153  1.4702
 1607TIP3   OH226235   4.796   3.564   0.810 -0.0593  0.3113 -0.4818
 1607TIP3    H126236   4.718   3.563   0.755 -0.4496  0.7205  0.0486
 1607TIP3    H226237   4.829   3.654   0.803 -0.1752  0.3970  0.0396
 1608TIP3   OH226238   0.199   1.436  15.755  0.3333 -0.1800 -0.0044
 1608TIP3    H126239   0.256   1.360  15.744  0.4485 -0.0083 -0.6291
 1608TIP3    H226240   0.251   1.499  15.804 -0.0911 -0.8564  1.3715
 1609TIP3   OH226241   1.457   6.333  14.172 -0.1407 -0.2472 -0.4782
 1609TIP3    H126242   1.484   6.381  14.251 -2.0590  0.5351 -0.2339
 1609TIP3    H226243   1.518   6.362  14.104  0.7761  0.0062  0.4349
 1610TIP3   OH226244   3.912   2.042   4.388 -0.3822  0.2338  0.0056
 1610TIP3    H126245   3.880   1.992   4.313  2.6774 -1.7807 -0.1439
 1610TIP3    H226246   3.863   2.124   4.385  0.6923  1.0156 -5.1887
 1611TIP3   OH226247   6.196   2.409  15.021 -0.1170  0.3434 -0.3830
 1611TIP3    H126248   6.131   2.344  15.049  0.8793 -0.3662  0.3424
 1611TIP3    H226249   6.225   2.451  15.102  0.5846  0.4021 -0.6578
 1612TIP3   OH226250   1.787   3.730   4.036 -0.2555  0.2576  0.1572
 1612TIP3    H126251   1.715   3.686   4.082 -0.0920 -0.3512 -0.1733
 1612TIP3    H226252   1.857   3.736   4.101  0.7423 -2.4520 -0.5529
 1613TIP3   OH226253   3.875   4.534  11.526 -0.0092 -0.1515 -0.9741
 1613TIP3    H126254   3.938   4.464  11.509  0.4337 -0.4004  1.4544
 1613TIP3    H226255   3.929   4.609  11.550 -0.5946 -0.0531  0.0586
 1614TIP3   OH226256   1.804   2.619  14.914 -0.5320  0.4538  0.3099
 1614TIP3    H126257   1.838   2.542  14.869 -0.2852  0.8545 -0.2031
 1614TIP3    H226258   1.828   2.607  15.005  1.1711  0.8036 -0.0611
 1615TIP3   OH226259   3.393   2.276   3.510 -0.1468 -0.2245  0.3920
 1615TIP3    H126260   3.451   2.200   3.505 -1.0852 -1.0643  1.4372
 1615TIP3    H226261   3.359   2.286   3.421 -0.1870 -1.2066  0.2784
 1616TIP3   OH226262   1.347   4.624  13.795  0.5810  0.6355 -0.1023
 1616TIP3    H126263   1.258   4.596  13.775  0.4068 -0.2345  1.6421
 1616TIP3    H226264   1.362   4.699  13.739  0.4252 -1.8335 -3.7951
 1617TIP3   OH226265   2.320   6.432  13.638  0.1237  0.0981  0.3130
 1617TIP3    H126266   2.255   6.437  13.708 -1.5800  1.3755 -1.2694
 1617TIP3    H226267   2.284   6.369  13.577  1.9058 -1.4878  0.8010
 1618TIP3   OH226268   4.001   5.338  11.235 -0.1873 -0.0130 -0.2221
 1618TIP3    H126269   3.988   5.416  11.181 -0.6973 -0.1018 -0.2326
 1618TIP3    H226270   3.927   5.338  11.295  0.5253  0.2352  0.6734
 1619TIP3   OH226271   1.787   6.067   0.305 -0.6936 -0.1848 -0.0191
 1619TIP3    H126272   1.830   6.109   0.380 -0.6541 -3.1282  1.7377
 1619TIP3    H226273   1.695   6.064   0.329 -0.4237 -3.0111  1.0163
 1620TIP3   OH226274   5.059   1.233  15.674 -0.1114  0.2314  0.1524
 1620TIP3    H126275   5.026   1.263  15.758  1.0651 -0.5211  0.9039
 1620TIP3    H226276   4.996   1.267  15.610 -1.0471  0.7645  1.3260
 1621TIP3   OH226277   4.320   6.269  15.047  0.6447 -0.7260  0.1402
 1621TIP3    H126278   4.258   6.227  14.987 -1.2190 -0.2337  1.6171
 1621TIP3    H226279   4.356   6.342  14.998  1.3647 -1.9858 -1.3079
 1622TIP3   OH226280   6.765   4.087   2.189 -0.2670  0.0135 -0.4037
 1622TIP3    H126281   6.688   4.143   2.197  0.0847  0.5264 -0.5262
 1622TIP3    H226282   6.737   4.015   2.132 -0.6591  0.1870 -0.4344
 1623TIP3   OH226283   1.679   4.568  12.349 -0.5686  0.2813  0.6846
 1623TIP3    H126284   1.757   4.590  12.298 -0.2897 -0.1141  0.9402
 1623TIP3    H226285   1.675   4.473  12.346  0.0419  0.1774  2.2709
 1624TIP3   OH226286   1.616   3.277  12.409  0.1010  0.2902 -0.1412
 1624TIP3    H126287   1.542   3.258  12.467  0.0394  0.6310 -0.1039
 1624TIP3    H226288   1.656   3.354  12.448  1.0275 -0.4259  0.3653
 1625TIP3   OH226289   2.745   2.890  16.308 -0.1005  0.1259 -0.0831
 1625TIP3    H126290   2.697   2.893  16.225  0.3573  0.6932 -0.3288
 1625TIP3    H226291   2.833   2.863  16.283  0.0187  0.2259  0.2306
 1626TIP3   OH226292   4.480   4.233  13.343 -0.4864 -0.2377 -0.1148
 1626TIP3    H126293   4.531   4.198  13.416  0.4775  0.6065 -0.3670
 1626TIP3    H226294   4.402   4.270  13.385  0.7227  1.5270  0.6850
 1627TIP3   OH226295   2.687   3.313   5.124  0.5834 -0.3738 -0.1006
 1627TIP3    H126296   2.738   3.299   5.045  1.3220 -0.1450  0.3185
 1627TIP3    H226297   2.749   3.295   5.196  0.1839  0.2740  0.4198
 1628TIP3   OH226298   6.001   1.866   5.456 -0.7036  0.7784  0.2400
 1628TIP3    H126299   5.921   1.914   5.434 -1.0597  0.9593  1.7987
 1628TIP3    H226300   5.998   1.857   5.551  0.3851 -0.5603  0.1745
 1629TIP3   OH226301   6.747   1.552  16.856 -0.0445 -0.3234 -0.0861
 1629TIP3    H126302   6.736   1.641  16.890  0.3109 -0.5279  0.5622
 1629TIP3    H226303   6.685   1.500  16.906  0.6729 -0.6735  0.4453
 1630TIP3   OH226304   5.032   6.372  14.455  0.1221  0.3350  0.2905
 1630TIP3    H126305   4.970   6.393  14.385  1.0259  1.6217 -0.1680
 1630TIP3    H226306   4.982   6.318  14.517 -0.3889 -1.9631 -1.9352
 1631TIP3   OH226307   2.134   0.138   1.972 -0.8166  0.0013 -0.8855
 1631TIP3    H126308   2.129   0.047   1.944  0.8046 -0.4642  0.2238
 1631TIP3    H226309   2.103   0.137   2.062 -1.2172  0.6438 -1.0055
 1632TIP3   OH226310   3.174   2.928   0.797 -0.4145 -0.6871  0.0376
 1632TIP3    H126311   3.099   2.894   0.748 -0.0839 -0.7655 -0.4293
 1632TIP3    H226312   3.171   2.883   0.881 -1.2073 -0.2799  0.2378
 1633TIP3   OH226313   2.770   4.217  17.070 -0.4171  0.2734  0.1068
 1633TIP3    H126314   2.749   4.159  17.143 -0.3185  1.9124  1.4704
 1633TIP3    H226315   2.775   4.304  17.108  2.1597  0.8875 -1.3509
 1634TIP3   OH226316   1.514   1.828   4.688  0.8196 -0.7025 -0.0082
 1634TIP3    H126317   1.602   1.790   4.694  1.1549 -0.0513 -0.6641
 1634TIP3    H226318   1.479   1.795   4.606  0.0072 -1.8331  0.7585
 1635TIP3   OH226319   6.376   0.357  15.299  0.4231 -0.8452  0.3959
 1635TIP3    H126320   6.431   0.428  15.268  0.2664 -0.8998 -0.0168
 1635TIP3    H226321   6.431   0.308  15.359  0.3102  0.0329  1.2386
 1636TIP3   OH226322   6.101   3.816   5.327 -0.5214  0.4990  0.2654
 1636TIP3    H126323   6.072   3.897   5.284 -0.2520  0.7215  0.5004
 1636TIP3    H226324   6.141   3.846   5.408 -0.6575  0.1073  0.4762
 1637TIP3   OH226325   5.091   3.068  13.678 -0.2552  0.1587  0.6839
 1637TIP3    H126326   5.006   3.097  13.712 -0.0361  1.4228  0.1952
 1637TIP3    H226327   5.153   3.088  13.748  0.1849  2.6961 -0.3086
 1638TIP3   OH226328   3.009   2.298   5.364  0.1538  0.4845 -0.3107
 1638TIP3    H126329   3.020   2.384   5.324  0.2569  0.0816 -1.1703
 1638TIP3    H226330   2.978   2.317   5.453  1.8734  1.4450  0.1235
 1639TIP3   OH226331   5.824   2.816   1.372  0.3672 -0.0885 -0.5917
 1639TIP3    H126332   5.746   2.766   1.396 -0.6258  0.4549 -2.4713
 1639TIP3    H226333   5.839   2.874   1.447 -0.1206 -1.2297  0.4253
 1640TIP3   OH226334   0.671   0.639  16.617  0.3066  0.4347 -0.3504
 1640TIP3    H126335   0.658   0.545  16.605 -1.2856  0.4637  0.7836
 1640TIP3    H226336   0.588   0.670  16.653  1.7947  1.7153  2.2673
 1641TIP3   OH226337   6.487   5.372  17.161 -0.3671 -0.6510 -0.3691
 1641TIP3    H126338   6.408   5.347  17.209 -0.0496 -1.3054 -0.1754
 1641TIP3    H226339   6.546   5.297  17.171  0.0329 -0.4400 -1.0526
 1642TIP3   OH226340   3.203   5.469  12.114  1.0228 -0.1646  0.3069
 1642TIP3    H126341   3.243   5.544  12.071 -1.1972  0.5425 -0.6610
 1642TIP3    H226342   3.249   5.393  12.079  0.5480  0.5102 -1.9196
 1643TIP3   OH226343   0.530   0.580   1.835 -0.4675  0.2599 -0.3130
 1643TIP3    H126344   0.602   0.643   1.836 -0.6178  0.4272  0.7598
 1643TIP3    H226345   0.455   0.629   1.869 -0.7023 -0.3543  0.0707
 1644TIP3   OH226346   6.639   5.067  15.579  0.0391  0.2770  0.2850
 1644TIP3    H126347   6.657   5.158  15.602 -1.9977  0.1093  3.1453
 1644TIP3    H226348   6.712   5.041  15.523  1.0066  3.4458 -0.1218
 1645TIP3   OH226349   4.279   0.218   1.930 -0.3141 -0.7247 -0.4125
 1645TIP3    H126350   4.294   0.140   1.984  1.7247  0.9869  1.7243
 1645TIP3    H226351   4.353   0.219   1.869 -0.8665 -0.9588 -1.0897
 1646TIP3   OH226352   0.774   3.529  14.847 -0.1977 -0.8096  0.1647
 1646TIP3    H126353   0.773   3.483  14.763 -2.3465  2.3362 -1.8139
 1646TIP3    H226354   0.865   3.555  14.859  0.0658 -0.7181 -1.6580
 1647TIP3   OH226355   0.608   2.289  15.933 -0.1400  0.3477  0.2149
 1647TIP3    H126356   0.623   2.379  15.962 -0.4680  0.4091  0.2000
 1647TIP3    H226357   0.691   2.262  15.894 -0.4819  1.1809 -1.1722
 1648TIP3   OH226358   1.709   0.254   2.465  0.2854 -0.2645  0.2779
 1648TIP3    H126359   1.760   0.304   2.401 -0.3264 -0.5471 -0.4446
 1648TIP3    H226360   1.708   0.309   2.543 -0.5758  0.9723 -0.5744
 1649TIP3   OH226361   0.381   0.065  15.487  0.2408 -0.0947  0.2610
 1649TIP3    H126362   0.397   0.157  15.471 -0.1414 -0.0772 -0.0356
 1649TIP3    H226363   0.461   0.021  15.457  0.2197  0.0918 -0.0719
 1650TIP3   OH226364   0.660   5.074  15.813  0.9506  0.1262  0.0506
 1650TIP3    H126365   0.666   4.981  15.833  1.3189 -0.0064 -0.6374
 1650TIP3    H226366   0.641   5.077  15.719 -0.0865  0.7282  0.2574
 1651TIP3   OH226367   4.151   6.499  14.838 -0.4400 -0.0448  0.8311
 1651TIP3    H126368   4.169   6.586  14.873  0.7127  0.1810 -0.2394
 1651TIP3    H226369   4.079   6.466  14.891  1.4418  0.0859  3.7171
 1652TIP3   OH226370   1.597   2.335   0.516  0.2865  0.1883  0.6475
 1652TIP3    H126371   1.674   2.388   0.536  0.0545  0.1520  1.6852
 1652TIP3    H226372   1.589   2.339   0.421  1.7074 -0.0058  0.5055
 1653TIP3   OH226373   5.077   4.162   3.578 -0.0871  0.0119  0.0971
 1653TIP3    H126374   5.034   4.080   3.550 -0.9201  0.1777  0.8302
 1653TIP3    H226375   5.152   4.133   3.630  1.1111 -0.2917 -1.7224
 1654TIP3   OH226376   5.761   1.752  10.992 -0.5379 -0.4027  0.6006
 1654TIP3    H126377   5.855   1.752  11.011 -0.7811  1.9289  2.2848
 1654TIP3    H226378   5.748   1.826  10.933 -1.0434 -2.3021 -1.8208
 1655TIP3   OH226379   5.062   0.283   2.252 -0.0766 -0.1423  0.1008
 1655TIP3    H126380   5.116   0.288   2.331 -0.4134 -0.6995  0.3742
 1655TIP3    H226381   5.119   0.240   2.188  0.8590  1.9783 -0.5568
 1656TIP3   OH226382   4.354   0.672  13.575  0.1271 -0.7042 -0.1425
 1656TIP3    H126383   4.412   0.669  13.651  0.0572 -0.5580 -0.0821
 1656TIP3    H226384   4.394   0.612  13.512  0.0966 -0.9550  0.0731
 1657TIP3   OH226385   0.313   5.500  13.409 -0.2945  0.2897 -0.3611
 1657TIP3    H126386   0.355   5.484  13.494 -0.4887  1.3415 -0.0501
 1657TIP3    H226387   0.366   5.452  13.346 -0.0869 -0.4191  0.3451
 1658TIP3   OH226388   5.825   6.250  16.912  0.3838  0.2140  0.1322
 1658TIP3    H126389   5.809   6.228  16.820  1.4766  0.4736 -0.1283
 1658TIP3    H226390   5.863   6.170  16.949  2.2446  0.8907 -0.2611
 1659TIP3   OH226391   4.988   5.383   3.691  0.4324 -0.6750  0.5456
 1659TIP3    H126392   5.036   5.301   3.703  0.2483 -0.7226  0.9938
 1659TIP3    H226393   5.036   5.429   3.623 -1.3687 -2.6113 -2.2802
 1660TIP3   OH226394   0.910   1.044   4.186 -0.0576  0.2797  0.5645
 1660TIP3    H126395   0.849   1.117   4.180 -0.8450 -0.3743  0.5164
 1660TIP3    H226396   0.996   1.086   4.193 -0.5329  1.2120  1.0158
 1661TIP3   OH226397   4.421   0.714  11.653  0.3206  0.1840  0.2294
 1661TIP3    H126398   4.448   0.625  11.678  1.1892  0.3281 -0.1679
 1661TIP3    H226399   4.326   0.713  11.661  0.3642 -0.6145  0.7876
 1662TIP3   OH226400   5.743   5.986   2.162  0.1507  0.2471  0.2405
 1662TIP3    H126401   5.795   5.907   2.147 -0.7815 -0.1260 -1.1712
 1662TIP3    H226402   5.662   5.955   2.202  0.3507  0.6701  1.0141
 1663TIP3   OH226403   2.475   3.871   3.524  0.6781  0.1148  0.1669
 1663TIP3    H126404   2.447   3.821   3.601 -1.0332  1.8190  0.7456
 1663TIP3    H226405   2.433   3.826   3.451 -0.2552  0.2477  0.5977
 1664TIP3   OH226406   3.539   0.038  12.941 -0.5535  0.1674  0.2148
 1664TIP3    H126407   3.496   0.122  12.924 -1.3569 -0.1347  0.6677
 1664TIP3    H226408   3.467  -0.022  12.962  0.0230 -0.5843  0.1001
 1665TIP3   OH226409   2.090   5.224   1.941 -0.1778  0.2411  0.2233
 1665TIP3    H126410   2.065   5.283   1.870  0.4623 -0.0668 -0.2689
 1665TIP3    H226411   2.083   5.277   2.020  0.4560  1.0038 -0.2215
 1666TIP3   OH226412   4.884   0.765   0.699  0.4701  0.4003  0.3710
 1666TIP3    H126413   4.810   0.778   0.639  1.1139  2.7843 -0.0141
 1666TIP3    H226414   4.849   0.710   0.768 -0.7303 -1.2024 -1.3944
 1667TIP3   OH226415   0.651   4.264   3.536 -0.0973 -0.1682 -0.0809
 1667TIP3    H126416   0.726   4.320   3.515  1.0824 -0.4996  2.7802
 1667TIP3    H226417   0.578   4.304   3.490  1.2392  2.0824 -0.3987
 1668TIP3   OH226418   3.500   4.389  14.282  0.1679  0.1130  0.1471
 1668TIP3    H126419   3.513   4.332  14.357 -1.2122 -0.7088 -0.1954
 1668TIP3    H226420   3.567   4.457  14.291 -0.4025  0.4295  2.4721
 1669TIP3   OH226421   1.843   4.492   5.028 -0.1325 -0.0674 -0.5269
 1669TIP3    H126422   1.904   4.418   5.035 -0.1283 -0.2701 -2.2983
 1669TIP3    H226423   1.840   4.512   4.935 -1.8282  0.7558 -0.3379
 1670TIP3   OH226424   5.909   2.243   5.036 -0.2389 -0.4335  0.5413
 1670TIP3    H126425   5.826   2.218   4.994 -0.0722  0.2018 -0.1746
 1670TIP3    H226426   5.887   2.319   5.089  0.2928  1.1108 -1.3435
 1671TIP3   OH226427   2.134   4.741   6.599 -0.4846  0.3352  0.4199
 1671TIP3    H126428   2.122   4.790   6.680  0.4704  0.3979  0.5439
 1671TIP3    H226429   2.058   4.762   6.545  0.0445  2.2242  0.3376
 1672TIP3   OH226430   1.384   1.797   5.553  0.6355  0.1972  0.0124
 1672TIP3    H126431   1.409   1.706   5.567  0.1361  0.1266  0.4983
 1672TIP3    H226432   1.295   1.803   5.589  0.5831  0.8226 -0.2114
 1673TIP3   OH226433   3.298   0.216   5.108 -0.2784 -0.4050 -0.0513
 1673TIP3    H126434   3.206   0.199   5.087  0.3327 -0.2014 -3.4974
 1673TIP3    H226435   3.345   0.199   5.026  2.3018  2.9391  0.4982
 1674TIP3   OH226436   2.895   1.989   3.108 -0.5712 -0.0470 -0.6558
 1674TIP3    H126437   2.916   1.931   3.182  0.0289 -0.2322 -0.9713
 1674TIP3    H226438   2.831   2.050   3.145 -0.1484 -0.0243  0.0769
 1675TIP3   OH226439   3.561   1.399  10.801  0.1001  0.5377 -0.2969
 1675TIP3    H126440   3.596   1.349  10.728  0.1546 -0.1092  0.1672
 1675TIP3    H226441   3.578   1.345  10.878  3.3408  2.7218  0.7497
 1676TIP3   OH226442   1.891   3.629   0.059  0.0198 -0.1516 -0.1184
 1676TIP3    H126443   1.850   3.577   0.128 -2.5754  3.2817  1.2271
 1676TIP3    H226444   1.864   3.586  -0.022 -2.7838 -0.4847  0.8725
 1677TIP3   OH226445   5.633   1.387   5.417 -0.9101  0.5411 -0.2339
 1677TIP3    H126446   5.558   1.329   5.431 -0.3111 -0.4422 -0.9377
 1677TIP3    H226447   5.650   1.381   5.323  0.2571  0.4720 -0.0344
 1678TIP3   OH226448   3.451   5.929  14.632  0.0034  0.0442 -0.5560
 1678TIP3    H126449   3.445   5.846  14.584 -0.5181  0.1171 -0.6129
 1678TIP3    H226450   3.369   5.935  14.680  0.0788  0.4892 -0.4852
 1679TIP3   OH226451   1.626   6.503   0.101 -0.6045 -0.4461  0.2902
 1679TIP3    H126452   1.565   6.445   0.058 -2.3320 -0.5284  2.6573
 1679TIP3    H226453   1.582   6.588   0.102  1.0670  0.5153 -1.4347
 1680TIP3   OH226454   6.060   4.704  16.713 -0.2598 -0.0881  0.2823
 1680TIP3    H126455   6.125   4.770  16.690 -0.7399  0.6852  1.0574
 1680TIP3    H226456   6.111   4.628  16.742  0.3752  1.2754  3.0644
 1681TIP3   OH226457   1.844   3.028  12.973  0.2109 -0.1584 -0.0272
 1681TIP3    H126458   1.857   2.993  13.062 -0.8322 -0.2678  0.0945
 1681TIP3    H226459   1.807   2.954  12.924  1.3373 -0.2842 -0.7313
 1682TIP3   OH226460   4.830   2.870  12.381 -0.2979 -0.0789 -0.1807
 1682TIP3    H126461   4.821   2.807  12.452 -0.0065  0.3508  0.2456
 1682TIP3    H226462   4.747   2.866  12.334 -0.5121 -0.3289  0.2171
 1683TIP3   OH226463   2.413   2.335  13.698 -0.1042  0.2373 -0.2137
 1683TIP3    H126464   2.401   2.242  13.676  1.6715  0.1806 -1.1318
 1683TIP3    H226465   2.324   2.369  13.708 -0.8881 -2.2033  3.0994
 1684TIP3   OH226466   3.578   4.424   5.288  0.0490  0.0406 -0.1101
 1684TIP3    H126467   3.614   4.407   5.375  0.0508 -1.9013 -0.4383
 1684TIP3    H226468   3.489   4.388   5.292  0.3685 -0.9115 -1.1638
 1685TIP3   OH226469   3.868   5.174  14.480 -0.1004  0.0756 -0.3379
 1685TIP3    H126470   3.884   5.264  14.451 -1.8247  0.4138 -0.3480
 1685TIP3    H226471   3.833   5.131  14.402 -0.6948 -0.1763  0.0594
 1686TIP3   OH226472   2.523   3.632  14.072 -0.0477 -0.3045 -0.3098
 1686TIP3    H126473   2.501   3.684  14.149 -1.4288 -1.4279  0.1037
 1686TIP3    H226474   2.438   3.602  14.039  0.6783 -2.1406 -0.6191
 1687TIP3   OH226475   1.398   5.770  13.833 -0.2680  0.1001 -0.1914
 1687TIP3    H126476   1.308   5.759  13.864  0.5472 -0.4998  2.1870
 1687TIP3    H226477   1.426   5.854  13.870 -0.3604  1.1497 -2.3793
 1688TIP3   OH226478   2.359   2.476  10.980  0.1353  0.1009 -0.0429
 1688TIP3    H126479   2.402   2.537  11.040  1.8152  0.5005 -1.5612
 1688TIP3    H226480   2.275   2.517  10.961 -1.1137 -0.7325  3.0546
 1689TIP3   OH226481   0.439   1.824   5.608  0.1463  0.0206  0.0623
 1689TIP3    H126482   0.474   1.908   5.636 -0.3005  0.7941 -1.5787
 1689TIP3    H226483   0.403   1.841   5.521 -0.0015 -1.8582 -0.2810
 1690TIP3   OH226484   2.915   4.535  11.854  0.2387  0.0365  0.2458
 1690TIP3    H126485   2.970   4.489  11.918  0.2056 -1.5549 -0.8149
 1690TIP3    H226486   2.976   4.588  11.803  0.2259  1.6264  1.7760
 1691TIP3   OH226487   4.525   6.263   4.620 -0.4887 -0.8678 -0.0321
 1691TIP3    H126488   4.463   6.325   4.658  0.9900  0.5702  0.1693
 1691TIP3    H226489   4.505   6.179   4.661 -0.8275  0.0397  1.7136
 1692TIP3   OH226490   0.480   4.679   3.664  0.2432  0.3791 -0.3423
 1692TIP3    H126491   0.491   4.762   3.711  1.3924  0.9328 -1.5315
 1692TIP3    H226492   0.529   4.615   3.716 -0.6913  0.3995  0.6084
 1693TIP3   OH226493   1.054   2.552  11.316 -0.2887  0.5352 -0.0697
 1693TIP3    H126494   1.041   2.462  11.344  0.1205  1.2793  2.9242
 1693TIP3    H226495   0.965   2.585  11.297 -0.4234 -0.4806 -1.3026
 1694TIP3   OH226496   2.264   2.364  11.200 -0.5072 -0.1918 -0.0470
 1694TIP3    H126497   2.266   2.415  11.119 -0.1418  1.4860  0.9789
 1694TIP3    H226498   2.183   2.393  11.244 -0.2253 -0.3948  0.6132
 1695TIP3   OH226499   4.490   4.644   3.539  0.1948 -0.4610  0.4924
 1695TIP3    H126500   4.433   4.713   3.505  0.4485  0.3692  1.6968
 1695TIP3    H226501   4.578   4.676   3.522  0.3268 -0.0684  1.8087
 1696TIP3   OH226502   4.324   2.382  15.984 -0.2213 -0.3898 -0.4297
 1696TIP3    H126503   4.369   2.460  15.952 -2.2879  1.6795  1.3550
 1696TIP3    H226504   4.244   2.377  15.931  0.3736 -1.9650 -1.2319
 1697TIP3   OH226505   3.879   1.690  14.028  0.2389  0.3292 -0.2106
 1697TIP3    H126506   3.820   1.750  14.073  0.4421 -0.1816  0.7777
 1697TIP3    H226507   3.887   1.615  14.088 -0.7427 -1.1345 -1.8049
 1698TIP3   OH226508   1.473   5.106   6.532 -0.1630 -0.1661 -0.3338
 1698TIP3    H126509   1.413   5.178   6.552  1.4102  1.3592 -0.9542
 1698TIP3    H226510   1.543   5.145   6.482 -0.1008 -2.4669 -2.2313
 1699TIP3   OH226511   1.190   6.632  16.404 -0.0226  0.3512  0.5418
 1699TIP3    H126512   1.169   6.628  16.311  1.1167  1.2735  0.2318
 1699TIP3    H226513   1.283   6.652  16.408  0.0327 -0.0445  1.8880
 1700TIP3   OH226514   4.834   0.132   2.602 -0.0744 -0.0990  0.0603
 1700TIP3    H126515   4.782   0.185   2.662 -1.2146 -0.6876 -0.3780
 1700TIP3    H226516   4.843   0.048   2.646 -1.1376 -0.6200 -0.6635
 1701TIP3   OH226517   6.605   4.935   5.651  0.4746 -0.0843 -0.3593
 1701TIP3    H126518   6.528   4.987   5.674  0.5544  0.3538 -1.0471
 1701TIP3    H226519   6.674   5.000   5.635  0.2742 -0.3133 -2.3674
 1702TIP3   OH226520   5.908   4.914  15.865 -0.5611  0.6279 -0.5393
 1702TIP3    H126521   5.909   5.007  15.887  1.5054  0.4056  0.6318
 1702TIP3    H226522   6.001   4.889  15.863 -0.9766 -1.0221 -2.6599
 1703TIP3   OH226523   6.314   5.187   6.086 -0.6709  0.0034  0.2571
 1703TIP3    H126524   6.227   5.220   6.064 -0.7192 -0.0421  0.3767
 1703TIP3    H226525   6.362   5.265   6.115 -1.0696 -0.1573  1.4347
 1704TIP3   OH226526   1.849   0.518  10.539  0.1635 -0.1634 -0.0042
 1704TIP3    H126527   1.781   0.452  10.544 -0.2675  0.3784  2.2850
 1704TIP3    H226528   1.804   0.601  10.556  0.9903  0.5076 -0.9727
 1705TIP3   OH226529   5.707   1.165  16.284  0.3230 -0.2698  0.2371
 1705TIP3    H126530   5.622   1.156  16.328 -0.0432 -2.1825 -0.7870
 1705TIP3    H226531   5.751   1.235  16.333 -2.0482  1.2066  0.4347
 1706TIP3   OH226532   0.652   0.054  12.635 -0.3657  0.4570 -0.0653
 1706TIP3    H126533   0.561   0.025  12.638  0.0856 -1.1116 -0.5503
 1706TIP3    H226534   0.654   0.132  12.690 -1.5761 -0.7363  1.7934
 1707TIP3   OH226535   1.379   2.428   4.907  0.1585 -0.1287  0.1077
 1707TIP3    H126536   1.293   2.468   4.898  0.2538  0.0537  0.0088
 1707TIP3    H226537   1.361   2.334   4.914 -0.0921 -0.0382  0.7617
 1708TIP3   OH226538   1.732   3.011   1.165  0.3394 -0.2863  0.1031
 1708TIP3    H126539   1.647   3.049   1.186  0.5363  1.9577 -2.5612
 1708TIP3    H226540   1.715   2.917   1.157 -1.6837 -0.0020  0.5202
 1709TIP3   OH226541   5.491   3.372   0.248  0.0071 -0.7062 -0.6112
 1709TIP3    H126542   5.578   3.369   0.288  0.2109  0.5564 -0.9287
 1709TIP3    H226543   5.503   3.424   0.169 -1.3746  0.9535  0.2226
 1710TIP3   OH226544   1.389   3.408  13.083 -0.4385 -0.1941  0.1545
 1710TIP3    H126545   1.467   3.422  13.030 -1.3153 -0.3247 -1.2013
 1710TIP3    H226546   1.405   3.459  13.163  0.5840  0.6265 -0.5472
 1711TIP3   OH226547   2.590   6.566   0.678  0.0290 -0.0915  0.4140
 1711TIP3    H126548   2.630   6.529   0.599  0.5835 -1.4560  1.3012
 1711TIP3    H226549   2.620   6.657   0.680  1.4765 -0.5414  0.0143
 1712TIP3   OH226550   6.694   5.702  14.595  0.6452 -0.4779  0.1441
 1712TIP3    H126551   6.680   5.608  14.609 -2.5629 -0.1493 -0.0179
 1712TIP3    H226552   6.677   5.741  14.681  0.0686  0.0755 -0.2132
 1713TIP3   OH226553   0.448   1.487  12.399  0.1271 -0.7010 -0.9659
 1713TIP3    H126554   0.535   1.502  12.438 -0.1720 -0.5509 -0.3523
 1713TIP3    H226555   0.393   1.462  12.472 -0.7651  0.8345 -1.0739
 1714TIP3   OH226556   1.273   5.510   2.131  0.0191  0.3169  0.1121
 1714TIP3    H126557   1.243   5.565   2.059 -0.3696 -1.0404 -0.8035
 1714TIP3    H226558   1.368   5.508   2.122  0.3027  2.7055  1.5991
 1715TIP3   OH226559   2.869   4.036  13.996  0.3335  0.1004  0.4757
 1715TIP3    H126560   2.819   3.955  13.996 -0.0340  0.3262  0.8404
 1715TIP3    H226561   2.960   4.008  13.986  0.0791 -0.2673 -1.2649
 1716TIP3   OH226562   5.533   5.905   1.766 -0.4042 -0.3358  0.0345
 1716TIP3    H126563   5.582   5.976   1.725 -0.3359 -0.8686 -0.8336
 1716TIP3    H226564   5.599   5.838   1.784 -0.4575 -0.1689  0.9028
 1717TIP3   OH226565   4.602   5.409   1.661 -0.2463 -0.0576 -0.1616
 1717TIP3    H126566   4.510   5.417   1.684  0.1415  1.1532  1.0808
 1717TIP3    H226567   4.602   5.400   1.565 -1.5654  1.6400 -0.3620
 1718TIP3   OH226568   0.751   1.883  11.623 -0.1457 -0.3634 -0.8195
 1718TIP3    H126569   0.725   1.810  11.679 -2.3221 -0.7898 -2.2809
 1718TIP3    H226570   0.758   1.957  11.684 -1.7527 -0.9572  0.1551
 1719TIP3   OH226571   6.092   4.757   1.995  0.2415 -0.4521  0.0410
 1719TIP3    H126572   6.184   4.763   2.019  0.4252  0.9175 -0.8887
 1719TIP3    H226573   6.048   4.816   2.056  0.1903  0.0366 -0.4615
 1720TIP3   OH226574   4.073   6.568   3.867 -0.3256 -0.6830 -0.1359
 1720TIP3    H126575   4.072   6.578   3.772 -0.0775  0.4756 -0.0296
 1720TIP3    H226576   4.128   6.640   3.898  0.6318 -1.7674  0.8113
 1721TIP3   OH226577   5.642   2.643   1.515  0.3697  0.3359 -0.1368
 1721TIP3    H126578   5.643   2.549   1.529  1.2144  0.2457 -0.7856
 1721TIP3    H226579   5.589   2.656   1.436 -0.6498  0.5073  0.5444
 1722TIP3   OH226580   6.481   6.452  15.916  0.5013  0.0991 -0.1656
 1722TIP3    H126581   6.401   6.472  15.866 -0.1616 -3.1806 -0.6023
 1722TIP3    H226582   6.466   6.494  16.001 -1.0565  0.7042 -0.6909
 1723TIP3   OH226583   4.548   2.069  15.044  0.4110 -0.7482  0.1829
 1723TIP3    H126584   4.515   2.159  15.043  1.4826 -0.3487 -0.6903
 1723TIP3    H226585   4.556   2.048  15.137 -0.1089 -0.0414  0.4018
 1724TIP3   OH226586   2.830   2.770  15.929 -0.2297  0.1479  0.8803
 1724TIP3    H126587   2.903   2.827  15.905 -0.6127  0.8234  1.2695
 1724TIP3    H226588   2.753   2.813  15.889 -0.2870 -1.1591 -0.5074
 1725TIP3   OH226589   5.557   1.631  15.439  0.3105  0.4330 -0.1962
 1725TIP3    H126590   5.582   1.637  15.531 -0.8919  1.2251  0.1097
 1725TIP3    H226591   5.483   1.692  15.430 -0.2519 -0.3822 -1.4528
 1726TIP3   OH226592   0.053   3.461   5.111  0.9412 -0.0196 -0.1782
 1726TIP3    H126593   0.074   3.477   5.203  0.1760 -1.7185  0.3369
 1726TIP3    H226594   0.116   3.395   5.083  0.5209 -0.2644 -0.5653
 1727TIP3   OH226595   4.548   2.036  15.585  0.2521  0.0459 -0.4995
 1727TIP3    H126596   4.569   2.052  15.677  0.2571 -1.2029 -0.2605
 1727TIP3    H226597   4.469   1.983  15.588  1.3889 -1.7847 -1.1056
 1728TIP3   OH226598   5.449   2.111  11.716  0.2276 -0.2452  0.3846
 1728TIP3    H126599   5.396   2.031  11.710  0.0248 -0.1352  0.6686
 1728TIP3    H226600   5.402   2.175  11.662 -0.7736  0.3000  1.8337
 1729TIP3   OH226601   5.000   1.524  11.507 -0.0193  0.0190  0.1734
 1729TIP3    H126602   4.944   1.588  11.464 -2.5577 -1.1462  1.5106
 1729TIP3    H226603   5.054   1.575  11.567 -0.7087  1.0672 -0.0791
 1730TIP3   OH226604   1.339   3.224  14.365  0.4377  0.3910  0.2769
 1730TIP3    H126605   1.345   3.194  14.456 -0.4934  0.4945  0.3790
 1730TIP3    H226606   1.335   3.319  14.371 -1.4955  0.3371  0.2596
 1731TIP3   OH226607   0.120   0.379   0.552  0.3745  0.6847  0.0132
 1731TIP3    H126608   0.173   0.320   0.498  0.5582 -0.8513  1.7644
 1731TIP3    H226609   0.154   0.366   0.641 -0.9083  1.9873  0.7171
 1732TIP3   OH226610   2.115   1.430  13.650 -0.2932  0.0838 -0.1484
 1732TIP3    H126611   2.168   1.462  13.578 -1.7137  2.5453 -0.2292
 1732TIP3    H226612   2.178   1.395  13.713  1.1669  0.3020 -1.4371
 1733TIP3   OH226613   5.318   6.486  10.814 -0.0156 -0.3396  0.1755
 1733TIP3    H126614   5.230   6.449  10.821 -0.4388  0.4884 -0.5640
 1733TIP3    H226615   5.343   6.474  10.723  0.0074  0.7870  0.0176
 1734TIP3   OH226616   4.336   2.021  14.119  0.0915  0.0987  0.0496
 1734TIP3    H126617   4.349   1.951  14.184 -1.2488 -0.0646  0.1649
 1734TIP3    H226618   4.419   2.068  14.118  0.8338 -1.1564  0.3827
 1735TIP3   OH226619   3.418   4.115  12.881 -0.1863  0.2241 -0.2101
 1735TIP3    H126620   3.330   4.129  12.844 -0.0430  0.4988 -0.4516
 1735TIP3    H226621   3.406   4.044  12.944  0.2818 -3.3853 -3.7169
 1736TIP3   OH226622   1.417   4.117  15.028  0.1234 -0.9468 -0.6033
 1736TIP3    H126623   1.404   4.053  15.098  0.9180 -0.1009  0.3527
 1736TIP3    H226624   1.505   4.099  14.995  0.5405 -0.0881 -0.0135
 1737TIP3   OH226625   4.428   5.645   0.113  0.3416 -0.3418 -0.2172
 1737TIP3    H126626   4.444   5.736   0.086 -1.6508  0.3834  0.8273
 1737TIP3    H226627   4.384   5.604   0.039  1.8287 -0.6770 -0.9402
 1738TIP3   OH226628   3.799   4.481   1.074 -0.6684 -0.0261  0.1608
 1738TIP3    H126629   3.724   4.528   1.040 -2.1875 -1.5746  1.2098
 1738TIP3    H226630   3.797   4.496   1.168 -0.3315 -0.9881  0.3341
 1739TIP3   OH226631   2.631   4.540  11.881 -0.0949  0.0958  0.8396
 1739TIP3    H126632   2.726   4.553  11.876 -0.1285 -0.0133 -0.7264
 1739TIP3    H226633   2.609   4.554  11.973  1.5252 -0.4496  1.3422
 1740TIP3   OH226634   4.156   5.774   2.694  0.1120  0.5132  0.1555
 1740TIP3    H126635   4.111   5.691   2.678 -0.3063  0.9021 -0.7362
 1740TIP3    H226636   4.121   5.805   2.777  0.2466 -0.1755  0.4808
 1741TIP3   OH226637   5.059   5.013   4.977  0.5113 -0.3942 -0.3399
 1741TIP3    H126638   5.057   4.940   5.039 -0.6977 -0.0215  0.0784
 1741TIP3    H226639   5.006   5.081   5.017  0.5063  0.2220 -1.3461
 1742TIP3   OH226640   1.946   1.090  10.493 -0.9717 -0.9273 -0.3643
 1742TIP3    H126641   1.863   1.056  10.526 -1.1194 -0.0430  0.1898
 1742TIP3    H226642   2.000   1.102  10.572 -0.7993 -0.2080 -0.5905
 1743TIP3   OH226643   0.416   1.673  16.653 -0.1123  0.0428  0.1520
 1743TIP3    H126644   0.453   1.688  16.566  0.7320  0.9642  0.6580
 1743TIP3    H226645   0.488   1.690  16.714 -1.0126  0.5904  1.1004
 1744TIP3   OH226646   3.785   6.073  17.056 -0.9146  0.3010 -0.1081
 1744TIP3    H126647   3.873   6.042  17.032  0.4527  1.7786  2.5712
 1744TIP3    H226648   3.779   6.160  17.018 -0.9509  0.4701  0.2840
 1745TIP3   OH226649   6.348   5.249  11.255  0.1245 -0.1405 -0.5004
 1745TIP3    H126650   6.299   5.306  11.196  1.5610  0.4000 -1.2179
 1745TIP3    H226651   6.439   5.275  11.244  0.5294 -0.6262  1.3277
 1746TIP3   OH226652   3.322   4.927   1.821  0.1993  0.2354  0.5763
 1746TIP3    H126653   3.282   4.915   1.907 -1.5344  0.5170 -0.1539
 1746TIP3    H226654   3.370   4.845   1.806  0.4287  0.1366  1.7357
 1747TIP3   OH226655   3.078   1.493  10.665 -0.1915  0.5945  0.0638
 1747TIP3    H126656   3.033   1.573  10.637 -0.6551  0.2592 -0.1690
 1747TIP3    H226657   3.163   1.523  10.695 -0.3215  1.1668 -0.1185
 1748TIP3   OH226658   2.485   6.725   0.146 -0.1553  0.2871  0.0139
 1748TIP3    H126659   2.439   6.737   0.230 -1.9498 -1.9393 -0.5407
 1748TIP3    H226660   2.438   6.653   0.104  1.0872  0.9368 -2.6611
 1749TIP3   OH226661   2.642   1.148  12.309  0.2073 -0.2224 -0.3312
 1749TIP3    H126662   2.679   1.147  12.221 -2.6404  1.9654 -1.6940
 1749TIP3    H226663   2.679   1.227  12.350 -0.3145  0.0806 -0.4437
 1750TIP3   OH226664   2.181   5.028  11.978  0.3564 -0.0168  0.0020
 1750TIP3    H126665   2.132   5.044  11.897 -0.5705 -0.3694  0.4767
 1750TIP3    H226666   2.217   5.114  12.000 -2.1530  0.9078  0.9624
 1751TIP3   OH226667   4.042   3.094   5.325  0.2718 -0.1192  0.5942
 1751TIP3    H126668   4.106   3.079   5.395  1.3795  0.6900 -0.2021
 1751TIP3    H226669   4.095   3.123   5.250 -1.1605  2.4875  0.4623
 1752TIP3   OH226670   6.333   5.889   3.510  0.4823  0.3184 -0.4656
 1752TIP3    H126671   6.417   5.852   3.483  0.3714  0.7452 -1.4404
 1752TIP3    H226672   6.355   5.945   3.585  0.8079 -0.8130  0.3296
 1753TIP3   OH226673   5.986   5.281  16.264  0.4479 -0.0186  0.3566
 1753TIP3    H126674   6.047   5.302  16.335 -2.9583  2.0170  3.0635
 1753TIP3    H226675   6.016   5.334  16.190  1.3781  1.8334  1.9372
 1754TIP3   OH226676   0.279   2.835  13.233  0.1046  0.6129  0.0973
 1754TIP3    H126677   0.211   2.768  13.229 -1.1802  1.7995  1.3621
 1754TIP3    H226678   0.280   2.863  13.324  0.3058  2.6196 -0.4832
 1755TIP3   OH226679   6.698   0.856  11.191  0.0488 -0.4287  0.7212
 1755TIP3    H126680   6.612   0.874  11.152 -0.4403 -2.3174  0.8434
 1755TIP3    H226681   6.682   0.857  11.285 -0.1527 -2.1201  0.7190
 1756TIP3   OH226682   6.322   5.111  16.203  0.2600 -0.5814 -1.0364
 1756TIP3    H126683   6.251   5.089  16.262 -1.1227  1.4885 -1.8260
 1756TIP3    H226684   6.320   5.206  16.197  2.4140 -0.5244 -1.9534
 1757TIP3   OH226685   5.107   6.674  10.842 -0.1226 -0.5934  0.1056
 1757TIP3    H126686   5.162   6.664  10.764  0.2569 -0.0037  0.2916
 1757TIP3    H226687   5.044   6.603  10.836  1.3977 -2.0348  0.5072
 1758TIP3   OH226688   2.105   3.304   2.777  0.1244  0.2380  0.3443
 1758TIP3    H126689   2.107   3.352   2.860  0.0760 -0.7703  0.9454
 1758TIP3    H226690   2.114   3.212   2.802  1.9511  0.0155 -0.8694
 1759TIP3   OH226691   6.153   0.342  13.159  0.0673  0.6334 -0.1263
 1759TIP3    H126692   6.236   0.311  13.195 -0.5493  0.6405  1.3373
 1759TIP3    H226693   6.129   0.276  13.093  1.1636  0.5787 -0.4908
 1760TIP3   OH226694   5.478   6.367  15.691 -0.0776  0.4354 -0.2061
 1760TIP3    H126695   5.467   6.420  15.770 -0.7363  2.3259 -1.4896
 1760TIP3    H226696   5.573   6.364  15.677 -0.0356  2.9589 -1.0867
 1761TIP3   OH226697   1.110   4.801  11.980 -0.0473  0.7209 -0.0230
 1761TIP3    H126698   1.165   4.723  11.978 -1.3074 -0.1915 -1.3432
 1761TIP3    H226699   1.170   4.874  11.967  0.9685 -0.1551 -0.3568
 1762TIP3   OH226700   1.122   2.169  12.352 -0.1178  0.4968  0.1431
 1762TIP3    H126701   1.096   2.153  12.443 -0.1026  2.0670  0.4458
 1762TIP3    H226702   1.140   2.263  12.348  1.8538  0.1305 -0.9967
 1763TIP3   OH226703   0.015   4.311  13.857  0.3384  0.4190  0.4045
 1763TIP3    H126704   0.066   4.344  13.931 -1.3359  1.0911  1.2951
 1763TIP3    H226705   0.029   4.216  13.859 -0.7553  0.2679  2.4382
 1764TIP3   OH226706   6.096   4.536  13.200  0.3873 -0.1092  0.9644
 1764TIP3    H126707   6.088   4.448  13.237  0.3449 -1.0690 -1.2113
 1764TIP3    H226708   6.006   4.569  13.199  0.3955 -0.0294  1.7206
 1765TIP3   OH226709   2.336   3.082   3.811  0.2101  0.1740  0.2725
 1765TIP3    H126710   2.260   3.118   3.857 -0.4521 -0.1677 -0.5239
 1765TIP3    H226711   2.305   3.000   3.773  0.7376  0.4309 -0.7602
 1766TIP3   OH226712   4.428   2.929  12.020 -0.1752  0.3271 -0.4465
 1766TIP3    H126713   4.352   2.871  12.021 -0.6192  0.9042  0.2664
 1766TIP3    H226714   4.474   2.911  12.102  1.7500 -1.6188 -1.8078
 1767TIP3   OH226715   4.875   5.890   0.105 -0.3407  0.2126  0.2700
 1767TIP3    H126716   4.944   5.904   0.170 -0.0766  0.3390 -0.0383
 1767TIP3    H226717   4.922   5.873   0.023 -0.6724  0.5581  0.0032
 1768TIP3   OH226718   3.468   3.878  13.074 -0.5249  0.2163  0.2070
 1768TIP3    H126719   3.400   3.860  13.138  1.3452 -1.0118  1.9945
 1768TIP3    H226720   3.473   3.798  13.021  0.0584 -0.0499  0.6463
 1769TIP3   OH226721   1.414   0.720  13.783 -0.2449  0.4852  0.0385
 1769TIP3    H126722   1.478   0.669  13.733 -0.5173 -0.5947  0.7503
 1769TIP3    H226723   1.331   0.674  13.770 -0.8017  1.5931 -0.4805
 1770TIP3   OH226724   0.861   2.282   2.618 -0.3545 -0.2818 -0.1496
 1770TIP3    H126725   0.898   2.199   2.646  1.8957  0.0990 -1.7817
 1770TIP3    H226726   0.897   2.346   2.680 -0.5715 -0.2591 -0.0439
 1771TIP3   OH226727   5.009   5.344  15.735  0.2637  0.1240  0.5825
 1771TIP3    H126728   5.082   5.353  15.673 -1.1287  1.1061 -0.9976
 1771TIP3    H226729   4.967   5.262  15.710  0.1304  0.1487  0.7265
 1772TIP3   OH226730   0.129   5.731   2.890  0.3747  0.2634 -0.1709
 1772TIP3    H126731   0.074   5.695   2.820  1.6486  0.0399 -1.0909
 1772TIP3    H226732   0.086   5.812   2.915 -0.4293  0.0476 -0.7988
 1773TIP3   OH226733   3.333   1.299  16.965 -0.3187 -0.1966  0.2586
 1773TIP3    H126734   3.365   1.358  16.896  3.8502  0.8212  2.6859
 1773TIP3    H226735   3.347   1.211  16.929 -0.4272  0.2870 -1.0203
 1774TIP3   OH226736   6.495   4.713   5.525 -0.1705  0.2503  0.3377
 1774TIP3    H126737   6.491   4.796   5.573 -2.3062  0.7742 -0.6306
 1774TIP3    H226738   6.431   4.657   5.569 -0.1336 -0.2266 -0.2083
 1775TIP3   OH226739   3.390   3.174  12.908  0.0127 -0.7724 -0.1129
 1775TIP3    H126740   3.485   3.175  12.897  0.0646  0.8998  0.1755
 1775TIP3    H226741   3.374   3.229  12.985 -1.3018  1.0560 -1.5841
 1776TIP3   OH226742   3.521   3.297  14.571  0.1553  0.8840  0.3102
 1776TIP3    H126743   3.544   3.354  14.497 -0.9927  0.2708 -0.5652
 1776TIP3    H226744   3.485   3.218  14.530  0.2616  0.1784  1.5272
 1777TIP3   OH226745   5.157   6.173   3.524 -0.1069 -0.7367  0.0084
 1777TIP3    H126746   5.187   6.258   3.556 -0.0929 -0.9822  0.6803
 1777TIP3    H226747   5.144   6.185   3.430 -0.2687  0.0533  0.1250
 1778TIP3   OH226748   5.547   5.036   0.423 -0.1536  0.1807  0.1022
 1778TIP3    H126749   5.534   4.995   0.508 -0.9679 -0.9324 -0.5165
 1778TIP3    H226750   5.464   5.080   0.405 -0.2378 -0.1630 -0.3889
 1779TIP3   OH226751   5.976   1.341  17.103  0.1151  0.1717 -0.0514
 1779TIP3    H126752   5.887   1.320  17.130  0.0071 -0.6200 -0.9529
 1779TIP3    H226753   5.967   1.383  17.018  0.5850  0.2790 -0.0541
 1780TIP3   OH226754   3.918   4.264   2.903 -0.1206  0.0701 -0.1473
 1780TIP3    H126755   3.963   4.181   2.891  2.0646  0.6877  2.6673
 1780TIP3    H226756   3.972   4.328   2.856  0.1255  0.3596  0.5183
 1781TIP3   OH226757   5.017   2.330  16.843 -0.2721 -0.3314 -0.3364
 1781TIP3    H126758   5.038   2.361  16.931 -0.8829 -1.5513  0.2569
 1781TIP3    H226759   5.062   2.246  16.835 -1.8891 -1.2338 -0.3869
 1782TIP3   OH226760   6.210   2.995   4.048 -0.2476  0.0954 -0.1458
 1782TIP3    H126761   6.122   2.958   4.052 -0.0801 -0.2202  1.2977
 1782TIP3    H226762   6.269   2.920   4.058  0.1100  0.5919  1.9091
 1783TIP3   OH226763   6.414   4.631   2.919 -0.6041 -0.2735 -0.1257
 1783TIP3    H126764   6.472   4.648   2.844 -0.5596 -1.9748 -0.5248
 1783TIP3    H226765   6.361   4.710   2.926  0.4272  0.5422 -0.9876
 1784TIP3   OH226766   1.844   0.946   3.998  0.1214 -0.0677  0.5501
 1784TIP3    H126767   1.815   0.895   4.074 -0.4881  1.7681  1.6191
 1784TIP3    H226768   1.799   0.906   3.924  0.6551 -1.8471  1.1346
 1785TIP3   OH226769   3.985   1.778   0.799 -0.0852  0.7626  0.1010
 1785TIP3    H126770   3.910   1.818   0.843 -0.0369  0.2655  0.6453
 1785TIP3    H226771   4.042   1.749   0.870 -0.3887 -0.7710 -0.2499
 1786TIP3   OH226772   5.341   6.773   5.702  0.4386  0.0260 -0.0666
 1786TIP3    H126773   5.259   6.795   5.656 -0.3111  0.5395  1.4582
 1786TIP3    H226774   5.356   6.681   5.682 -1.0456 -0.3360  0.3886
 1787TIP3   OH226775   5.712   0.727   0.284  0.0319  0.2140 -0.1350
 1787TIP3    H126776   5.721   0.763   0.372 -0.0256 -2.3794  1.0327
 1787TIP3    H226777   5.785   0.666   0.275  0.4514  0.9242 -2.2055
 1788TIP3   OH226778   2.589   0.783  11.459 -0.0427 -0.0491  0.3567
 1788TIP3    H126779   2.535   0.847  11.504 -3.9720 -2.3077 -0.6544
 1788TIP3    H226780   2.566   0.793  11.366  2.0687 -0.5131 -0.2757
 1789TIP3   OH226781   6.586   3.771   0.396 -0.0186  0.3777 -0.6748
 1789TIP3    H126782   6.607   3.838   0.462 -0.3806  0.2966 -0.4753
 1789TIP3    H226783   6.491   3.762   0.401  0.0241 -0.1278 -0.7275
 1790TIP3   OH226784   0.549   2.798   5.082  0.2214  0.0924 -0.2959
 1790TIP3    H126785   0.511   2.886   5.084 -1.3263 -0.5287 -0.6787
 1790TIP3    H226786   0.561   2.775   5.174 -0.3272  0.3291 -0.1577
 1791TIP3   OH226787   3.697   0.512   0.389 -0.2332  0.2911 -0.1926
 1791TIP3    H126788   3.678   0.478   0.301 -0.1270  1.4910 -0.6999
 1791TIP3    H226789   3.791   0.528   0.389 -0.2247  0.2511  0.1637
 1792TIP3   OH226790   5.783   2.179   2.845  0.6382 -0.6792 -0.0025
 1792TIP3    H126791   5.877   2.159   2.837  0.2605 -2.3669 -0.4857
 1792TIP3    H226792   5.761   2.218   2.760  0.7035 -1.1797 -0.2543
 1793TIP3   OH226793   5.166   1.907   6.247 -0.0174  0.2494 -0.4209
 1793TIP3    H126794   5.203   1.862   6.171  0.3310 -0.2287  0.0326
 1793TIP3    H226795   5.241   1.942   6.294 -0.0198 -1.6375  1.0810
 1794TIP3   OH226796   6.735   0.077   1.493  0.1765 -0.3472  0.2286
 1794TIP3    H126797   6.789   0.155   1.506  0.4263 -0.5412  0.3522
 1794TIP3    H226798   6.645   0.109   1.499  0.2782 -0.1939  1.0100
 1795TIP3   OH226799   0.430   0.107  12.237 -0.3008  0.2856 -0.4517
 1795TIP3    H126800   0.359   0.073  12.183 -0.2327  1.5025 -1.3477
 1795TIP3    H226801   0.391   0.181  12.283  0.0118  0.0769  0.1679
 1796TIP3   OH226802   2.492   6.314   2.466  0.0658 -0.3826 -0.0086
 1796TIP3    H126803   2.402   6.344   2.480 -0.1130 -1.3769  1.1129
 1796TIP3    H226804   2.545   6.393   2.471 -0.6248  0.0561  0.5193
 1797TIP3   OH226805   5.156   0.695   5.583  0.0618  0.4350  0.4268
 1797TIP3    H126806   5.133   0.654   5.500 -0.0374  1.4264 -0.0614
 1797TIP3    H226807   5.081   0.680   5.640  0.4688 -0.9619  0.6302
 1798TIP3   OH226808   2.726   4.497  12.836  0.9433 -0.4590  0.3924
 1798TIP3    H126809   2.659   4.455  12.782 -0.4919  2.4857 -0.3325
 1798TIP3    H226810   2.699   4.481  12.926  2.1167 -3.4793  0.3445
 1799TIP3   OH226811   2.030   5.238  11.384  0.3040  0.6873 -0.3227
 1799TIP3    H126812   2.060   5.323  11.415 -0.4701  2.0530 -2.9964
 1799TIP3    H226813   1.935   5.248  11.375  0.1756 -0.5248 -0.5090
 1800TIP3   OH226814   2.277   4.381   0.904 -0.1177  0.5815  0.2470
 1800TIP3    H126815   2.339   4.452   0.888  1.3257 -0.9371 -1.1685
 1800TIP3    H226816   2.201   4.425   0.944  0.4102  3.0284 -1.2204
 1801TIP3   OH226817   5.837   1.301   5.562 -1.1854 -0.3063 -0.0685
 1801TIP3    H126818   5.780   1.334   5.492 -1.0716  0.5158  0.2187
 1801TIP3    H226819   5.786   1.314   5.642  0.0267  2.1053  0.4232
 1802TIP3   OH226820   0.841   4.122  14.916  0.2192 -0.1171  0.3324
 1802TIP3    H126821   0.896   4.100  14.841  1.2942  1.4930  0.5751
 1802TIP3    H226822   0.825   4.038  14.960  2.0953 -0.7208 -0.0417
 1803TIP3   OH226823   2.078   1.322  15.794  0.2762 -0.0365 -0.3317
 1803TIP3    H126824   2.142   1.386  15.826 -2.1743  2.0026  0.8579
 1803TIP3    H226825   2.068   1.260  15.865  0.3565  0.1178 -0.1856
 1804TIP3   OH226826   1.727   0.647   3.306 -0.0274  0.4308  0.3802
 1804TIP3    H126827   1.694   0.621   3.220  0.0279 -1.0393  0.7792
 1804TIP3    H226828   1.793   0.714   3.288 -1.2722  1.4573 -0.5952
 1805TIP3   OH226829   4.644   6.325  16.886  0.3560  0.6442 -0.3887
 1805TIP3    H126830   4.630   6.246  16.836  1.7896 -0.5399  0.9662
 1805TIP3    H226831   4.736   6.322  16.911  0.3952  2.6195 -0.0689
 1806TIP3   OH226832   3.513   1.238   2.386 -0.1969  0.1829  0.1049
 1806TIP3    H126833   3.474   1.318   2.423 -0.5893  0.8160 -1.5509
 1806TIP3    H226834   3.579   1.271   2.324 -1.2236 -0.6956 -1.5370
 1807TIP3   OH226835   5.367   1.269   4.408  0.5026 -0.2833  0.1531
 1807TIP3    H126836   5.335   1.190   4.364 -1.0311  0.2942  0.1858
 1807TIP3    H226837   5.305   1.337   4.384  1.6977  0.8990  0.2715
 1808TIP3   OH226838   0.541   5.221  16.112  0.6337 -0.1088  0.0307
 1808TIP3    H126839   0.576   5.276  16.182  1.2066  0.4834 -0.7167
 1808TIP3    H226840   0.542   5.133  16.149 -1.1471  0.4487  1.5884
 1809TIP3   OH226841   5.890   4.607   0.317  0.6452 -0.1529  0.2708
 1809TIP3    H126842   5.851   4.678   0.368  0.9484 -0.5275  1.0358
 1809TIP3    H226843   5.830   4.534   0.329 -0.0675  0.1699 -1.1310
 1810TIP3   OH226844   2.402   2.934   5.321  0.3808 -0.1376  0.6055
 1810TIP3    H126845   2.444   2.912   5.404  1.5590 -0.2418  0.0042
 1810TIP3    H226846   2.378   3.026   5.331  0.7765 -0.0673  0.9673
 1811TIP3   OH226847   1.421   3.581   4.514  0.1966 -0.4296 -0.0145
 1811TIP3    H126848   1.416   3.675   4.533  1.2245 -0.1618 -0.9557
 1811TIP3    H226849   1.441   3.541   4.598 -2.4076 -0.0880  0.8885
 1812TIP3   OH226850   6.535   6.213   1.458  0.2956  0.5418 -0.5054
 1812TIP3    H126851   6.534   6.135   1.513  2.5577 -0.5435 -1.8166
 1812TIP3    H226852   6.481   6.190   1.382  1.1340  0.1127 -0.9931
 1813TIP3   OH226853   2.257   5.091   1.612  0.1845  0.0382 -0.3855
 1813TIP3    H126854   2.259   5.063   1.704  0.3120  2.6545  0.5186
 1813TIP3    H226855   2.164   5.091   1.589  0.1796 -1.0049 -0.4134
 1814TIP3   OH226856   2.756   2.017  14.776 -0.2313 -1.0803  0.1343
 1814TIP3    H126857   2.822   1.960  14.814 -0.4752 -1.7660 -0.4355
 1814TIP3    H226858   2.802   2.099  14.758  0.1575 -1.1369  0.8368
 1815TIP3   OH226859   5.521   0.900   0.452 -0.4705  0.1171  0.2447
 1815TIP3    H126860   5.578   0.832   0.486  0.1359 -0.9066 -2.5914
 1815TIP3    H226861   5.443   0.853   0.421 -1.2483  1.0609  0.7019
 1816TIP3   OH226862   1.784   0.535   6.251 -0.1664 -0.0498 -0.0772
 1816TIP3    H126863   1.874   0.550   6.278  0.8095 -0.2343 -2.8847
 1816TIP3    H226864   1.743   0.621   6.253  0.5446  0.2968 -0.3038
 1817TIP3   OH226865   0.540   2.015   3.745 -0.4910 -0.2909 -0.0705
 1817TIP3    H126866   0.569   1.927   3.768  0.2332 -0.0661 -0.0994
 1817TIP3    H226867   0.483   2.041   3.818  0.2622 -0.3215  0.5421
 1818TIP3   OH226868   3.130   3.404  13.674  0.7543 -0.0718 -0.1494
 1818TIP3    H126869   3.100   3.330  13.727  2.3378 -0.1619  0.6872
 1818TIP3    H226870   3.186   3.455  13.732  0.8905  0.9754 -1.1472
 1819TIP3   OH226871   3.773   2.873  16.154  0.6247 -0.2341 -0.3597
 1819TIP3    H126872   3.701   2.911  16.204  0.7445 -0.2294 -0.1894
 1819TIP3    H226873   3.811   2.947  16.107  0.2994 -0.2944 -0.7284
 1820TIP3   OH226874   0.368   6.356  13.570 -0.2626  0.2261 -0.2638
 1820TIP3    H126875   0.434   6.404  13.619 -1.0397  1.7682 -0.6581
 1820TIP3    H226876   0.338   6.418  13.503 -2.0117 -0.4493 -0.1578
 1821TIP3   OH226877   2.326   3.026  11.359 -0.6032 -0.7390 -0.1808
 1821TIP3    H126878   2.248   3.077  11.380  1.6498  2.5937  0.7975
 1821TIP3    H226879   2.337   3.035  11.264 -0.4120  0.4105 -0.0602
 1822TIP3   OH226880   1.820   4.461  15.168  0.2000  0.4449 -0.0485
 1822TIP3    H126881   1.905   4.476  15.210  0.5163  0.3655 -0.6385
 1822TIP3    H226882   1.756   4.481  15.235  0.6870  0.6153  0.3745
 1823TIP3   OH226883   0.291   0.684  12.853  0.0302  0.6390 -0.4298
 1823TIP3    H126884   0.226   0.628  12.811  0.0335  0.7686 -0.6061
 1823TIP3    H226885   0.247   0.768  12.866  0.1260  0.6923 -0.4454
 1824TIP3   OH226886   0.441   1.872   1.903 -0.1240 -0.3108 -0.8570
 1824TIP3    H126887   0.402   1.786   1.893  0.8459 -1.1757  1.7762
 1824TIP3    H226888   0.532   1.854   1.927  0.3298  1.4732 -1.0943
 1825TIP3   OH226889   1.511   2.612  12.838  0.1821 -0.2851  0.5904
 1825TIP3    H126890   1.488   2.529  12.796  0.2845 -0.7593  1.4281
 1825TIP3    H226891   1.466   2.679  12.788  0.1880 -0.8432 -0.1694
 1826TIP3   OH226892   2.257   4.568  10.944  0.3288  0.8824  0.4337
 1826TIP3    H126893   2.238   4.617  11.024  0.0911  2.3498 -0.5013
 1826TIP3    H226894   2.173   4.561  10.899  0.6032  0.7178 -0.0610
 1827TIP3   OH226895   2.184   4.155   1.583  0.6775  0.2863 -0.4243
 1827TIP3    H126896   2.194   4.225   1.518  0.7557 -1.5383 -2.4830
 1827TIP3    H226897   2.109   4.182   1.635  1.0213  2.1485 -0.8293
 1828TIP3   OH226898   6.596   0.999   1.036  0.2298  0.2925  0.3882
 1828TIP3    H126899   6.517   1.042   1.003  0.3413  0.6414  0.5773
 1828TIP3    H226900   6.640   1.065   1.089  0.0139 -0.2790  1.3138
 1829TIP3   OH226901   6.564   0.426  14.963 -0.3399 -0.3215  0.3043
 1829TIP3    H126902   6.598   0.404  15.050  1.1247  1.0201  0.1162
 1829TIP3    H226903   6.605   0.362  14.905  0.4938  0.2038  0.3091
 1830TIP3   OH226904   1.619   5.977  10.391  0.1829 -0.7694  0.3835
 1830TIP3    H126905   1.677   6.046  10.357  1.8158 -1.6434  1.2744
 1830TIP3    H226906   1.557   6.023  10.447  0.6521  0.0788  0.2272
 1831TIP3   OH226907   3.711   3.230   2.091  0.2874 -0.6906  0.0720
 1831TIP3    H126908   3.759   3.209   2.011  2.1985 -0.1134  1.0083
 1831TIP3    H226909   3.622   3.200   2.074  0.8690 -1.4697 -1.8913
 1832TIP3   OH226910   2.026   1.546   5.819 -0.1313 -0.0356 -0.4828
 1832TIP3    H126911   1.962   1.478   5.841 -0.9624  1.0319  0.4640
 1832TIP3    H226912   2.027   1.605   5.894  2.4601 -0.3441 -0.1537
 1833TIP3   OH226913   1.443   0.331  15.609  0.1430  0.3027 -0.2233
 1833TIP3    H126914   1.352   0.361  15.606  0.0474  0.5453  2.2976
 1833TIP3    H226915   1.482   0.362  15.528 -1.3484  2.5975 -0.1450
 1834TIP3   OH226916   5.433   5.693   4.864  0.6143 -0.3990 -0.6174
 1834TIP3    H126917   5.410   5.785   4.851  0.1644 -0.5003 -0.5526
 1834TIP3    H226918   5.349   5.650   4.882  0.8562 -0.7761 -0.3922
 1835TIP3   OH226919   3.171   1.979  16.998  0.6568 -0.2570  0.3848
 1835TIP3    H126920   3.147   1.932  16.918  0.1732 -0.8877  0.8964
 1835TIP3    H226921   3.206   2.063  16.967 -1.6613  0.4739 -0.4070
 1836TIP3   OH226922   1.980   1.019   2.521 -0.5117  0.3410 -0.3151
 1836TIP3    H126923   1.930   1.097   2.498 -0.0391  0.5997 -0.4989
 1836TIP3    H226924   1.926   0.946   2.492 -0.7710  0.6150 -0.5291
 1837TIP3   OH226925   5.912   3.347  14.217 -0.1050 -0.1405 -0.1720
 1837TIP3    H126926   5.976   3.326  14.285  0.6734 -0.2073 -0.9052
 1837TIP3    H226927   5.831   3.364  14.265 -0.3144 -2.8500  0.6168
 1838TIP3   OH226928   5.583   1.175  11.866  0.2314 -0.1152  0.3326
 1838TIP3    H126929   5.628   1.221  11.796  0.3924 -0.0475  0.4801
 1838TIP3    H226930   5.490   1.187  11.847  0.2623 -1.1863 -0.5902
 1839TIP3   OH226931   6.014   4.987  14.142 -0.0304 -0.2096  0.0370
 1839TIP3    H126932   5.967   5.070  14.149 -2.3962 -1.2887 -1.5271
 1839TIP3    H226933   5.948   4.925  14.108  1.4722 -2.8503  1.5772
 1840TIP3   OH226934   2.644   1.426  14.492 -0.1880  0.7539 -0.2505
 1840TIP3    H126935   2.722   1.447  14.544 -0.1481 -1.3441  0.6135
 1840TIP3    H226936   2.636   1.499  14.430  2.1148  1.3052  0.0247
 1841TIP3   OH226937   4.533   2.269  13.888  0.4006 -0.5512  0.2636
 1841TIP3    H126938   4.537   2.180  13.854  1.7274  0.1627 -1.6496
 1841TIP3    H226939   4.607   2.275  13.949  0.2589 -0.7844  0.4589
 1842TIP3   OH226940   2.935   1.692   5.479 -0.5730  0.1213  0.3166
 1842TIP3    H126941   2.906   1.602   5.492 -1.5115  0.6339  2.1589
 1842TIP3    H226942   2.933   1.731   5.567 -0.0993  1.9019 -0.4126
 1843TIP3   OH226943   5.047   1.370   2.742 -0.1561  0.0488  0.0918
 1843TIP3    H126944   4.959   1.371   2.706 -0.4615  0.0173  0.8159
 1843TIP3    H226945   5.034   1.363   2.837  0.6131  0.8330  0.2622
 1844TIP3   OH226946   0.530   0.382  13.416 -0.5453 -0.2517 -0.1535
 1844TIP3    H126947   0.476   0.403  13.339  0.2994  0.3936 -0.5812
 1844TIP3    H226948   0.476   0.408  13.491 -0.7850  0.5130 -0.5769
 1845TIP3   OH226949   4.340   3.204  11.611 -0.1737 -0.2686  0.0550
 1845TIP3    H126950   4.288   3.149  11.669 -3.0612  4.9816  3.2199
 1845TIP3    H226951   4.306   3.186  11.524 -2.4471 -1.9332  1.1829
 1846TIP3   OH226952   0.285   5.133   5.561 -0.1064 -0.0500  0.2982
 1846TIP3    H126953   0.300   5.158   5.469 -0.6668 -4.3545 -1.1701
 1846TIP3    H226954   0.194   5.158   5.578 -0.2563  0.0619 -0.6025
 1847TIP3   OH226955   3.945   3.126   5.677 -0.9941  0.0956 -0.3381
 1847TIP3    H126956   3.948   3.202   5.618 -0.0096 -0.0693 -0.5117
 1847TIP3    H226957   4.035   3.112   5.703 -1.3140 -0.3477  0.5762
 1848TIP3   OH226958   2.769   2.097  12.791 -0.2880  0.4257 -1.2125
 1848TIP3    H126959   2.767   2.060  12.703  0.1560  1.1509 -1.5416
 1848TIP3    H226960   2.838   2.164  12.787  0.4736 -0.2369 -0.0337
 1849TIP3   OH226961   1.656   2.776  11.898  0.4660 -0.2723 -0.4079
 1849TIP3    H126962   1.705   2.728  11.965 -0.3438  0.3002  0.6270
 1849TIP3    H226963   1.623   2.707  11.840  0.8902 -0.8119 -0.0253
 1850TIP3   OH226964   5.731   5.955   3.719 -0.1232 -0.4356  0.4788
 1850TIP3    H126965   5.653   5.990   3.761 -0.9729 -1.1173 -0.4983
 1850TIP3    H226966   5.708   5.865   3.697  1.3061 -0.9871  1.1028
 1851TIP3   OH226967   4.558   0.048  11.413  0.2617  0.4904 -0.1915
 1851TIP3    H126968   4.593   0.034  11.501  1.2607  0.0375 -0.6386
 1851TIP3    H226969   4.568  -0.037  11.370  2.2735  1.3290 -1.5597
 1852TIP3   OH226970   2.895   3.919   1.458  0.0143 -0.2128 -0.0442
 1852TIP3    H126971   2.941   3.857   1.401 -0.7653 -0.8253 -0.0146
 1852TIP3    H226972   2.866   3.866   1.532 -0.6860  0.1788 -0.0312
 1853TIP3   OH226973   5.005   2.107  14.294  0.3920  0.0491 -0.7228
 1853TIP3    H126974   4.922   2.059  14.292 -0.0975  0.8779 -1.6287
 1853TIP3    H226975   5.070   2.044  14.262  0.1390 -0.6379  0.0859
 1854TIP3   OH226976   1.658   3.151  11.807  0.1268 -0.2359 -0.0943
 1854TIP3    H126977   1.721   3.079  11.805  1.1668  0.6333 -3.0111
 1854TIP3    H226978   1.709   3.226  11.837 -0.3007 -0.1650  0.4567
 1855TIP3   OH226979   0.941   6.090  15.409  0.2351 -1.3971  0.0615
 1855TIP3    H126980   1.006   6.025  15.382 -0.3306 -1.9146 -0.0652
 1855TIP3    H226981   0.919   6.066  15.499  0.2979 -1.1477  0.1464
 1856TIP3   OH226982   3.958   4.080  11.022  0.2617  0.1895  0.2243
 1856TIP3    H126983   3.864   4.087  11.002  0.3095 -0.9684 -0.5314
 1856TIP3    H226984   4.001   4.094  10.937  0.5981 -2.2730 -0.0790
 1857TIP3   OH226985   0.677   2.015   2.759  0.7559 -0.2548 -0.8993
 1857TIP3    H126986   0.643   1.985   2.675  0.1899 -1.4599 -0.2603
 1857TIP3    H226987   0.767   2.041   2.741  1.2841 -2.3721 -1.4965
 1858TIP3   OH226988   6.002   4.413  16.841 -0.8655  0.6215  0.0796
 1858TIP3    H126989   5.952   4.445  16.916 -0.0198 -0.1381  1.0152
 1858TIP3    H226990   6.088   4.455  16.850  0.1624 -1.5068  1.1583
 1859TIP3   OH226991   6.760   4.966  15.817 -0.3233 -0.3711 -0.4372
 1859TIP3    H126992   6.714   4.975  15.900  2.1538 -0.6618  1.0768
 1859TIP3    H226993   6.693   4.977  15.750 -2.2973  0.4958  1.5886
 1860TIP3   OH226994   5.844   0.477   0.316 -0.4792  0.6385  0.4736
 1860TIP3    H126995   5.922   0.465   0.369 -0.0407 -0.1546 -0.3412
 1860TIP3    H226996   5.793   0.397   0.329 -1.2362  1.1905  1.0870
 1861TIP3   OH226997   1.844   2.496   4.248 -0.1712 -0.4447 -0.0427
 1861TIP3    H126998   1.903   2.467   4.179 -0.3409 -2.1876  0.5027
 1861TIP3    H226999   1.783   2.555   4.203 -1.2609 -2.7400 -1.8039
 1862TIP3   OH227000   4.493   5.143   2.892 -0.0529 -0.1031  0.3123
 1862TIP3    H127001   4.410   5.155   2.939  1.0696 -0.7526  2.6572
 1862TIP3    H227002   4.538   5.227   2.900 -0.5985  0.3815 -1.3180
 1863TIP3   OH227003   0.063   5.358   1.744  0.6080  0.4595 -0.2264
 1863TIP3    H127004   0.072   5.309   1.825 -1.0245 -0.2455 -0.4329
 1863TIP3    H227005   0.011   5.301   1.687 -0.6290  2.0554 -0.7739
 1864TIP3   OH227006   3.706   2.251   1.391 -0.0384  0.8978  0.1010
 1864TIP3    H127007   3.611   2.265   1.393 -0.1183  0.5711 -1.0713
 1864TIP3    H227008   3.729   2.253   1.298  1.2683  1.9938  0.4193
 1865TIP3   OH227009   4.066   0.553   5.586 -0.0815 -0.3524 -0.6111
 1865TIP3    H127010   4.107   0.569   5.501  0.0810 -1.2935 -0.7244
 1865TIP3    H227011   4.137   0.521   5.641 -0.9039 -4.0414 -1.3878
 1866TIP3   OH227012   1.202   2.862   3.487  0.3390  0.1497  0.3623
 1866TIP3    H127013   1.202   2.766   3.491  0.2058 -0.0433 -2.5212
 1866TIP3    H227014   1.282   2.887   3.534  0.3802 -1.3400  1.1705
 1867TIP3   OH227015   4.339   2.594   4.737  0.6417  0.4239  0.4667
 1867TIP3    H127016   4.344   2.510   4.783  0.8305  0.6750  0.9167
 1867TIP3    H227017   4.421   2.639   4.759  0.2463  1.0064  0.7922
 1868TIP3   OH227018   1.699   0.325   4.463 -0.0376  0.2100  0.1385
 1868TIP3    H127019   1.622   0.292   4.508  0.1736  1.9794  1.9113
 1868TIP3    H227020   1.755   0.362   4.532  1.8767  0.0160 -1.2076
 1869TIP3   OH227021   3.746   1.285  16.306  0.0526  0.5454 -0.0022
 1869TIP3    H127022   3.696   1.211  16.342  0.4651  0.2184 -0.0878
 1869TIP3    H227023   3.831   1.280  16.349 -0.0111  1.1417  0.1967
 1870TIP3   OH227024   4.976   6.232   3.302 -0.4324 -0.5889 -0.0875
 1870TIP3    H127025   4.895   6.185   3.287 -0.0812 -0.5025 -2.5910
 1870TIP3    H227026   5.038   6.196   3.238  0.7159  1.1914 -0.0655
 1871TIP3   OH227027   1.226   6.610  17.227 -0.3574 -0.3454  0.0608
 1871TIP3    H127028   1.272   6.637  17.307 -1.9547  0.6979  0.6791
 1871TIP3    H227029   1.183   6.529  17.251  0.2196 -0.7295 -0.1713
 1872TIP3   OH227030   6.289   0.496  12.409 -0.0906  0.0572  0.1545
 1872TIP3    H127031   6.324   0.547  12.336 -0.2949 -0.9751 -0.6845
 1872TIP3    H227032   6.352   0.425  12.420 -1.4513 -1.3662 -0.8404
 1873TIP3   OH227033   0.040   2.409   5.822 -0.3355 -0.0010 -0.0267
 1873TIP3    H127034   0.118   2.441   5.868 -0.9158 -1.5918  2.2808
 1873TIP3    H227035  -0.015   2.486   5.811  0.6133  0.7499  0.3960
 1874TIP3   OH227036   2.573   5.875  11.111  0.0911 -0.5625 -0.4045
 1874TIP3    H127037   2.510   5.803  11.111 -0.8913  0.2747  0.5014
 1874TIP3    H227038   2.578   5.902  11.019 -0.9222 -0.5952 -0.4764
 1875TIP3   OH227039   5.304   3.506   2.206  0.1867  0.1820 -0.3574
 1875TIP3    H127040   5.378   3.460   2.167  1.1011  2.8585 -2.0627
 1875TIP3    H227041   5.343   3.560   2.275 -0.7274 -0.8288  1.0120
 1876TIP3   OH227042   2.337   4.341   5.074 -0.1519 -0.2436  0.5019
 1876TIP3    H127043   2.368   4.335   5.164 -1.2586 -1.5846  0.8355
 1876TIP3    H227044   2.242   4.331   5.081 -0.5204  1.8946 -0.6362
 1877TIP3   OH227045   3.242   0.603   5.645  0.6951  0.1514  0.2514
 1877TIP3    H127046   3.242   0.664   5.571  1.3129  0.5056  0.5311
 1877TIP3    H227047   3.279   0.654   5.718 -1.0930  0.2260  1.1708
 1878TIP3   OH227048   4.185   3.941   5.513  0.4687 -0.1981  0.1895
 1878TIP3    H127049   4.241   4.019   5.505  1.6925 -0.8843  1.6244
 1878TIP3    H227050   4.180   3.907   5.424  0.6551  0.9971 -0.3090
 1879TIP3   OH227051   2.334   1.629  16.071  0.7691  0.0205 -0.2527
 1879TIP3    H127052   2.245   1.597  16.060  0.3016  1.0825  0.2820
 1879TIP3    H227053   2.367   1.641  15.982  0.4832 -0.6456 -0.4506
 1880TIP3   OH227054   5.215   3.801   5.820  0.2812 -0.1745 -0.0265
 1880TIP3    H127055   5.266   3.757   5.889  1.3388  0.8995 -0.0821
 1880TIP3    H227056   5.125   3.772   5.834  0.4201  0.2188  1.9936
 1881TIP3   OH227057   1.674   3.499  12.657 -0.2767  0.0333 -0.4470
 1881TIP3    H127058   1.675   3.544  12.741  0.6559 -1.5493  0.4480
 1881TIP3    H227059   1.763   3.464  12.648 -0.0094  1.1659 -2.6726
 1882TIP3   OH227060   5.151   3.392  13.707  0.2451  0.0106  0.2933
 1882TIP3    H127061   5.197   3.454  13.650 -1.2863 -0.1253 -1.1770
 1882TIP3    H227062   5.111   3.329  13.647  0.3884 -1.4557  1.6603
 1883TIP3   OH227063   1.789   3.986  11.585  0.2461  0.3125 -0.5250
 1883TIP3    H127064   1.882   3.979  11.561  0.2330  0.6931 -0.6859
 1883TIP3    H227065   1.760   4.068  11.546 -0.4189 -0.2899 -1.3374
 1884TIP3   OH227066   0.937   0.368   0.314  0.1027 -0.8867  0.3758
 1884TIP3    H127067   0.988   0.309   0.258  0.8582  0.5509 -0.5052
 1884TIP3    H227068   0.916   0.442   0.257  1.8283  1.1633  2.2109
 1885TIP3   OH227069   4.547   2.436  11.196 -0.2564  0.6426  0.5509
 1885TIP3    H127070   4.600   2.377  11.249  1.4116  2.5752  1.1495
 1885TIP3    H227071   4.564   2.409  11.105  0.7029  0.3699  0.8004
 1886TIP3   OH227072   2.985   6.767  16.421  0.2971 -0.1469  0.3965
 1886TIP3    H127073   2.940   6.815  16.352  0.0745 -0.0348  0.6183
 1886TIP3    H227074   3.036   6.700  16.375  0.8763  0.5053  0.0589
 1887TIP3   OH227075   5.881   4.361  11.069 -0.6451 -0.8132  0.3076
 1887TIP3    H127076   5.857   4.269  11.063 -0.3610 -0.8098 -1.1236
 1887TIP3    H227077   5.849   4.388  11.155  1.4302 -2.8638  1.8830
 1888TIP3   OH227078   0.442   4.687   0.656 -0.2133 -0.0446  0.0900
 1888TIP3    H127079   0.434   4.593   0.674 -0.2492 -0.0752 -0.0745
 1888TIP3    H227080   0.536   4.705   0.665  0.0729 -0.4750 -1.5928
 1889TIP3   OH227081   4.762   4.674   4.410 -0.1503  0.1918  0.9633
 1889TIP3    H127082   4.851   4.667   4.376 -0.0710 -0.6602  1.3319
 1889TIP3    H227083   4.756   4.764   4.443  0.4950  0.3292  0.7130
 1890TIP3   OH227084   0.452   1.643  13.135  0.0848 -0.2850 -0.2698
 1890TIP3    H127085   0.483   1.642  13.226 -0.3677 -1.8732 -0.1051
 1890TIP3    H227086   0.486   1.562  13.098 -0.3208  0.0233 -1.3284
 1891TIP3   OH227087   0.558   1.791   3.316 -0.1438 -0.1534 -0.1007
 1891TIP3    H127088   0.487   1.847   3.285 -0.0076  0.2868  0.3591
 1891TIP3    H227089   0.536   1.774   3.408 -0.0674 -0.6734 -0.1765
 1892TIP3   OH227090   0.799   3.787  16.533  0.4699 -0.3346 -0.0660
 1892TIP3    H127091   0.721   3.808  16.585  1.3353  4.2834 -0.2365
 1892TIP3    H227092   0.771   3.794  16.442  1.2139  2.9530 -0.1615
 1893TIP3   OH227093   6.567   0.063  12.098 -0.1998  0.6378  0.6517
 1893TIP3    H127094   6.659   0.066  12.125  0.0238 -1.4231  0.3153
 1893TIP3    H227095   6.535  -0.020  12.133 -1.6225  0.7949 -0.2096
 1894TIP3   OH227096   0.833   0.448  15.505 -0.2083  0.4879  0.3161
 1894TIP3    H127097   0.900   0.507  15.471 -0.0176 -0.2613 -0.6394
 1894TIP3    H227098   0.846   0.450  15.600  1.2249  0.2987  0.1493
 1895TIP3   OH227099   0.559   0.437   0.099  0.0691 -0.3260  0.1949
 1895TIP3    H127100   0.585   0.472   0.184 -0.5132  0.2882  0.1279
 1895TIP3    H227101   0.493   0.498   0.067  0.2327 -0.5876 -0.6703
 1896TIP3   OH227102   4.154   0.211   3.183 -1.0884 -0.1223 -0.5564
 1896TIP3    H127103   4.218   0.282   3.177 -1.1082 -0.1408 -1.0270
 1896TIP3    H227104   4.095   0.226   3.110 -1.4869 -0.2398 -0.2586
 1897TIP3   OH227105   3.723   5.764   6.715  0.2620 -0.1613  0.3598
 1897TIP3    H127106   3.652   5.771   6.779  1.1593 -0.7500  1.4585
 1897TIP3    H227107   3.789   5.826   6.747 -0.8201  2.6136 -2.2225
 1898TIP3   OH227108   3.783   0.055   4.475 -0.0237 -0.0500  0.6829
 1898TIP3    H127109   3.749   0.142   4.453 -0.2888 -0.3488 -0.0943
 1898TIP3    H227110   3.739   0.033   4.557 -0.7308  0.1182  0.3577
 1899TIP3   OH227111   3.463   5.678   5.574 -0.8456  0.1749 -0.4838
 1899TIP3    H127112   3.551   5.711   5.555 -0.2252  0.1091  2.0099
 1899TIP3    H227113   3.418   5.753   5.613 -1.4952 -0.1648 -0.5826
 1900TIP3   OH227114   1.084   5.089   2.383  0.3567  0.2494  0.0011
 1900TIP3    H127115   1.118   5.145   2.313  0.1062  1.1912  0.6124
 1900TIP3    H227116   1.016   5.037   2.342 -0.0202  1.0324 -0.3883
 1901TIP3   OH227117   5.172   2.828  14.778 -0.0324 -0.0772 -0.1179
 1901TIP3    H127118   5.229   2.753  14.796 -0.1938  0.1673  1.5937
 1901TIP3    H227119   5.085   2.790  14.769  0.3606 -0.4936 -3.0855
 1902TIP3   OH227120   0.145   5.647   5.256 -0.4414 -0.1080  0.1364
 1902TIP3    H127121   0.105   5.641   5.343 -0.4229 -1.6646  0.0763
 1902TIP3    H227122   0.071   5.659   5.196 -0.8401 -2.3172  0.0909
 1903TIP3   OH227123   4.055   1.596  16.772  0.0898  0.1799  0.6607
 1903TIP3    H127124   4.043   1.539  16.848  0.7055 -0.2758  0.4361
 1903TIP3    H227125   3.970   1.597  16.728 -0.0021 -0.3554  0.8198
 1904TIP3   OH227126   1.492   6.779   0.424 -0.1435  0.3830  0.2158
 1904TIP3    H127127   1.583   6.790   0.450 -0.3655  3.1754  0.1880
 1904TIP3    H227128   1.442   6.820   0.495 -1.4263 -1.3824  0.3883
 1905TIP3   OH227129   2.336   2.444   1.025  0.0160  0.1106  0.4310
 1905TIP3    H127130   2.303   2.525   1.065  0.7296  1.9350 -2.3883
 1905TIP3    H227131   2.260   2.402   0.986 -0.4547 -0.9731  2.3923
 1906TIP3   OH227132   1.913   5.802   2.450 -0.4132  0.4426  0.1042
 1906TIP3    H127133   1.964   5.830   2.526 -0.1954 -1.1041  0.5566
 1906TIP3    H227134   1.823   5.826   2.471 -0.5510 -1.0653  1.4452
 1907TIP3   OH227135   0.836   2.059   4.788  0.2448 -0.0686 -0.2851
 1907TIP3    H127136   0.897   2.120   4.829  1.4107 -0.0981 -1.8790
 1907TIP3    H227137   0.786   2.114   4.727  0.3372 -0.4512 -0.7103
 1908TIP3   OH227138   4.466   4.534  11.839  0.5072  0.1517 -0.0891
 1908TIP3    H127139   4.453   4.626  11.862 -2.1114 -0.7006  2.5110
 1908TIP3    H227140   4.536   4.503  11.896 -0.6489 -0.0972  1.2519
 1909TIP3   OH227141   5.155   5.744  15.522 -0.0505 -0.2407 -0.0794
 1909TIP3    H127142   5.081   5.689  15.494 -0.1493 -0.3249  0.3344
 1909TIP3    H227143   5.190   5.698  15.599 -1.4705  1.3596  1.6328
 1910TIP3   OH227144   3.855   4.151   6.264  1.0738 -0.3202  0.2787
 1910TIP3    H127145   3.816   4.236   6.243  0.9065 -0.2342  0.9179
 1910TIP3    H227146   3.926   4.141   6.200  0.5239 -0.1157 -0.3797
 1911TIP3   OH227147   3.335   1.241  12.519 -0.1384 -0.1250 -0.4784
 1911TIP3    H127148   3.372   1.153  12.528  0.2708  0.1237  0.3499
 1911TIP3    H227149   3.409   1.296  12.494 -0.5978 -0.1828 -2.0967
 1912TIP3   OH227150   1.099   5.555  15.898 -0.1967 -0.3032  0.0276
 1912TIP3    H127151   1.005   5.546  15.884 -0.0975 -1.3596 -0.0666
 1912TIP3    H227152   1.109   5.637  15.947 -1.0554  0.4081 -0.9528
 1913TIP3   OH227153   3.488   0.163  17.066  0.2275 -0.4915 -0.1874
 1913TIP3    H127154   3.488   0.251  17.027  1.1232 -0.8983 -1.1582
 1913TIP3    H227155   3.574   0.157  17.108 -0.0962 -0.6654  0.4550
 1914TIP3   OH227156   3.225   6.759  15.948 -0.7141 -0.1433  0.1849
 1914TIP3    H127157   3.197   6.677  15.908 -0.4443  0.6435 -1.7128
 1914TIP3    H227158   3.149   6.788  15.998 -0.7470 -1.6112  1.0465
 1915TIP3   OH227159   2.279   6.441   0.538 -0.1553  0.0800  0.4062
 1915TIP3    H127160   2.348   6.386   0.576 -0.5525 -0.1237  0.8397
 1915TIP3    H227161   2.289   6.525   0.583  0.8402  0.5838 -0.6831
 1916TIP3   OH227162   5.794   4.075   4.596  0.5242 -0.0958  0.2290
 1916TIP3    H127163   5.723   4.019   4.567 -0.4930  0.8963  0.7493
 1916TIP3    H227164   5.758   4.164   4.595  1.4683  0.3371  1.3268
 1917TIP3   OH227165   3.644   1.161  12.776 -0.0613 -0.3925  0.1098
 1917TIP3    H127166   3.575   1.222  12.806  2.2483  1.3992  2.2544
 1917TIP3    H227167   3.647   1.172  12.681 -1.6572  0.6708  0.1442
 1918TIP3   OH227168   0.931   0.301   0.699 -0.5773 -0.4217  0.1011
 1918TIP3    H127169   0.941   0.213   0.663  0.6437 -0.1710 -0.2195
 1918TIP3    H227170   0.848   0.299   0.745 -1.3411 -1.2755 -1.2453
 1919TIP3   OH227171   2.105   3.088  16.442  0.1733 -0.0752 -0.1513
 1919TIP3    H127172   2.010   3.073  16.437  0.3637 -1.2878 -0.4431
 1919TIP3    H227173   2.130   3.055  16.528  0.4291 -0.3364 -0.3254
 1920TIP3   OH227174   3.917   4.729  11.824 -0.1471  0.4253 -0.6634
 1920TIP3    H127175   3.834   4.680  11.820 -0.0706  0.3854 -1.8936
 1920TIP3    H227176   3.983   4.662  11.841 -0.4093  0.5308  0.9730
 1921TIP3   OH227177   2.206   2.524   4.857  0.4645  0.3315 -0.1775
 1921TIP3    H127178   2.147   2.562   4.922 -1.0456 -0.3380 -1.1055
 1921TIP3    H227179   2.204   2.430   4.874 -0.9048 -0.0017 -1.8716
 1922TIP3   OH227180   2.765   2.009  11.146  0.0837  0.2234 -0.6801
 1922TIP3    H127181   2.826   1.997  11.073 -0.0969  0.0529 -0.8039
 1922TIP3    H227182   2.702   1.938  11.137  0.8556 -0.6380  0.4631
 1923TIP3   OH227183   6.622   5.172   4.084  0.1789  0.1372 -0.3517
 1923TIP3    H127184   6.608   5.236   4.014  0.2908  0.5669  0.0083
 1923TIP3    H227185   6.534   5.157   4.120  0.2069  0.4167 -0.1607
 1924TIP3   OH227186   2.358   2.150   5.228 -0.3069 -0.2013 -0.2017
 1924TIP3    H127187   2.272   2.119   5.199 -0.4453 -0.0611  0.0584
 1924TIP3    H227188   2.399   2.073   5.268 -1.2494  0.2995  1.8291
 1925TIP3   OH227189   1.396   0.064  16.237  1.3597 -0.0793  0.0746
 1925TIP3    H127190   1.429  -0.011  16.286 -0.9770 -0.7163  0.8360
 1925TIP3    H227191   1.430   0.053  16.148  0.7408 -2.2971  0.0629
 1926TIP3   OH227192   3.403   3.028   2.337  0.8566 -0.5862  0.2156
 1926TIP3    H127193   3.454   3.016   2.416  0.7152 -1.6228  0.1654
 1926TIP3    H227194   3.327   3.080   2.365  0.2103 -1.9321  1.0222
 1927TIP3   OH227195   3.074   3.072  15.408  0.0608  0.1234  0.0405
 1927TIP3    H127196   3.087   3.036  15.320  0.6939  0.5820 -0.0633
 1927TIP3    H227197   3.163   3.088  15.441 -0.1885  0.8952  0.3605
 1928TIP3   OH227198   5.503   1.846   0.442  0.0588  0.3153  0.0987
 1928TIP3    H127199   5.518   1.906   0.515  0.4918  0.9938 -0.5301
 1928TIP3    H227200   5.432   1.790   0.471  0.6499  0.1530  1.2903
 1929TIP3   OH227201   2.680   5.979   1.243 -0.6589  0.0980 -0.3139
 1929TIP3    H127202   2.719   5.980   1.330 -0.5747  0.0558 -0.3508
 1929TIP3    H227203   2.710   6.061   1.203 -2.3136  1.0936  0.3999
 1930TIP3   OH227204   3.689   1.681   1.377 -0.0236 -0.3371 -0.6106
 1930TIP3    H127205   3.698   1.774   1.401  0.2621 -0.6427  0.5504
 1930TIP3    H227206   3.628   1.681   1.303 -0.4101  0.7342 -0.3180
 1931TIP3   OH227207   6.043   3.889   6.303  0.6547 -0.1239 -0.0813
 1931TIP3    H127208   5.955   3.899   6.340  0.8557  2.1808 -0.0839
 1931TIP3    H227209   6.091   3.841   6.370 -0.1114  0.3052  0.8108
 1932TIP3   OH227210   4.319   3.316   5.752 -0.6538 -0.1904 -0.3057
 1932TIP3    H127211   4.373   3.383   5.709  0.4697 -2.3337 -2.4403
 1932TIP3    H227212   4.350   3.315   5.842 -0.3499  1.7794 -0.3417
 1933TIP3   OH227213   2.428   6.733   2.518  0.6421 -0.1723  0.1490
 1933TIP3    H127214   2.432   6.669   2.589  2.0105 -0.1548  0.1094
 1933TIP3    H227215   2.422   6.818   2.562  0.3830 -0.2269  0.2207
 1934TIP3   OH227216   0.455   3.349  12.881 -0.0685  0.0922  0.1254
 1934TIP3    H127217   0.400   3.363  12.959 -1.0148 -0.2349 -0.4651
 1934TIP3    H227218   0.399   3.299  12.822  0.9127 -0.3294 -0.4619
 1935TIP3   OH227219   5.033   6.558   2.399 -0.0192  0.2504 -0.5485
 1935TIP3    H127220   5.012   6.651   2.397  0.4849  0.3892  0.1156
 1935TIP3    H227221   5.021   6.528   2.309  0.5176  1.1130 -0.9128
 1936TIP3   OH227222   2.696   1.503  13.472  0.0883 -0.1342 -0.0518
 1936TIP3    H127223   2.780   1.522  13.431 -0.8985  2.1450 -1.2489
 1936TIP3    H227224   2.654   1.589  13.482 -2.4894 -1.2411 -0.4250
 1937TIP3   OH227225   2.159   0.057   3.391 -0.3260  0.2166 -0.2609
 1937TIP3    H127226   2.234   0.001   3.375 -0.7290 -0.2438 -0.5564
 1937TIP3    H227227   2.095   0.032   3.325 -1.6116 -0.9499  1.3396
 1938TIP3   OH227228   3.345   0.923   2.786  0.2339 -0.4557 -0.0585
 1938TIP3    H127229   3.387   0.929   2.700  0.4543 -1.1135 -0.0023
 1938TIP3    H227230   3.417   0.922   2.848  0.0759 -0.0817  0.1346
 1939TIP3   OH227231   5.394   6.043  15.348  0.2851 -0.3842 -0.4153
 1939TIP3    H127232   5.442   6.058  15.430  0.6657 -3.5094  0.0728
 1939TIP3    H227233   5.303   6.065  15.369  0.2897 -1.5960  1.0556
 1940TIP3   OH227234   3.424   0.163   4.870 -0.0163  0.6420 -0.2991
 1940TIP3    H127235   3.517   0.158   4.894 -0.2592 -0.8537  0.4476
 1940TIP3    H227236   3.422   0.139   4.778  0.3454  0.7367 -0.3351
 1941TIP3   OH227237   0.825   5.568  13.080  0.4520  0.2282  0.0070
 1941TIP3    H127238   0.761   5.526  13.022  1.5902 -1.4046 -0.1433
 1941TIP3    H227239   0.900   5.586  13.024  1.2900 -0.7024  0.7956
 1942TIP3   OH227240   6.387   4.698   0.856  0.0273  0.2313  0.6440
 1942TIP3    H127241   6.312   4.655   0.898 -0.0965  0.6878  0.8871
 1942TIP3    H227242   6.372   4.684   0.762  0.5495 -1.2078  0.7434
 1943TIP3   OH227243   4.754   2.946   1.420 -0.1763 -0.4569  0.1156
 1943TIP3    H127244   4.660   2.935   1.434 -0.2060 -0.4936 -0.1168
 1943TIP3    H227245   4.793   2.865   1.454 -0.3551 -1.1087 -1.1653
 1944TIP3   OH227246   1.008   2.920   4.036 -0.3395  0.1321 -0.0052
 1944TIP3    H127247   0.939   2.964   3.987 -0.4367  1.5204  1.3168
 1944TIP3    H227248   0.987   2.827   4.027 -1.6513  0.4630 -0.6722
 1945TIP3   OH227249   4.597   4.879   5.435 -0.0663 -0.7773 -0.1916
 1945TIP3    H127250   4.656   4.911   5.503  0.1262  0.3262 -0.8558
 1945TIP3    H227251   4.514   4.862   5.480 -0.6805  2.1737 -0.0146
 1946TIP3   OH227252   1.923   1.826  12.358 -0.4872  0.1539 -0.0003
 1946TIP3    H127253   2.014   1.835  12.387 -0.4416 -0.6058  0.1247
 1946TIP3    H227254   1.928   1.765  12.285 -0.8768  0.2837 -0.1340
 1947TIP3   OH227255   0.395   0.808   6.345  0.0689  0.8374  0.4279
 1947TIP3    H127256   0.323   0.840   6.399  0.6042  1.7626  0.6170
 1947TIP3    H227257   0.391   0.861   6.265 -1.3019 -1.1510 -0.9164
 1948TIP3   OH227258   5.357   3.100   2.672 -0.0517  0.2687  0.3545
 1948TIP3    H127259   5.292   3.076   2.738  1.4755  0.7985  2.1427
 1948TIP3    H227260   5.440   3.074   2.710  0.8517 -0.0694 -1.7218
 1949TIP3   OH227261   5.834   2.478  11.626 -0.1060  0.4975 -0.4439
 1949TIP3    H127262   5.744   2.489  11.596 -0.4617 -0.7343  0.1194
 1949TIP3    H227263   5.886   2.524  11.560 -1.0542  0.1038 -1.5120
 1950TIP3   OH227264   1.946   1.588  14.354 -0.3931  0.1846  0.6989
 1950TIP3    H127265   1.932   1.659  14.416 -1.0194  0.6102  0.0793
 1950TIP3    H227266   2.041   1.576  14.351 -0.2819  1.0289  0.7718
 1951TIP3   OH227267   4.371   4.164   5.490  0.3060  0.4334  0.4251
 1951TIP3    H127268   4.413   4.216   5.421  0.2846 -0.2598 -0.1243
 1951TIP3    H227269   4.310   4.225   5.531  0.3371  0.8700 -0.1512
 1952TIP3   OH227270   3.052   4.404   1.462 -0.1173  0.0922  0.3368
 1952TIP3    H127271   2.974   4.433   1.415 -1.4976 -0.0362  2.4115
 1952TIP3    H227272   3.125   4.441   1.413 -1.5372  1.4207 -0.8799
 1953TIP3   OH227273   6.350   6.022   4.414 -0.1723 -0.4920  0.3394
 1953TIP3    H127274   6.373   6.082   4.485  1.3402 -0.1594 -0.4092
 1953TIP3    H227275   6.264   5.988   4.440 -0.3537  0.7759  1.5658
 1954TIP3   OH227276   1.105   5.323  14.924 -0.2822  0.3935 -0.2842
 1954TIP3    H127277   1.057   5.310  14.842 -2.5754 -1.0576  1.2011
 1954TIP3    H227278   1.043   5.301  14.993  1.7079  1.1233  1.8859
 1955TIP3   OH227279   3.000   1.797   5.758 -0.5520 -0.0482 -0.4268
 1955TIP3    H127280   3.092   1.775   5.752 -0.5265 -0.3571  0.8663
 1955TIP3    H227281   2.998   1.883   5.801 -0.9154 -1.3665  2.4267
 1956TIP3   OH227282   2.497   6.403   3.330  0.7210 -0.4491  0.0307
 1956TIP3    H127283   2.454   6.363   3.255  0.9361 -0.9309  0.1644
 1956TIP3    H227284   2.503   6.333   3.395  0.0123  0.1014  0.7238
 1957TIP3   OH227285   4.097   4.936   1.891 -0.5805 -0.3735  0.0859
 1957TIP3    H127286   4.137   4.888   1.819 -1.5469  0.4625 -1.0377
 1957TIP3    H227287   4.032   4.876   1.927 -1.5916 -0.0407 -1.1357
 1958TIP3   OH227288   2.334   1.966  15.898 -0.0050  0.2314  0.6407
 1958TIP3    H127289   2.295   1.996  15.980  0.0649 -1.3483  1.2856
 1958TIP3    H227290   2.382   2.042  15.865 -0.9288  1.2188  1.4945
 1959TIP3   OH227291   6.398   2.355   0.978  0.1593  0.1935 -0.3449
 1959TIP3    H127292   6.448   2.360   1.060 -0.6669  1.0049  0.1386
 1959TIP3    H227293   6.449   2.409   0.917  0.1801  0.5507 -0.0230
 1960TIP3   OH227294   6.406   4.695  10.933 -0.1474  0.0437  0.2399
 1960TIP3    H127295   6.445   4.639  11.001  0.8281 -0.4040 -0.6556
 1960TIP3    H227296   6.376   4.634  10.866 -0.1832  0.5320 -0.1937
 1961TIP3   OH227297   0.802   1.318   4.350  0.0100 -0.1333  0.0790
 1961TIP3    H127298   0.896   1.318   4.367  0.5505 -0.0423 -2.4763
 1961TIP3    H227299   0.762   1.304   4.436  2.3107  0.4753  1.3399
 1962TIP3   OH227300   2.564   5.043  15.615  0.0340  0.4283 -0.5395
 1962TIP3    H127301   2.480   4.998  15.603  0.1590  0.2660 -0.8441
 1962TIP3    H227302   2.629   4.974  15.601  0.2317  0.7168 -1.0942
 1963TIP3   OH227303   1.205   6.229  11.459  0.0328 -0.1181  0.0100
 1963TIP3    H127304   1.184   6.194  11.546  0.2648  0.8289  0.4654
 1963TIP3    H227305   1.247   6.157  11.413 -0.6963 -0.8403  0.4458
 1964TIP3   OH227306   0.863   0.585  16.348  0.4645  0.6412 -0.4043
 1964TIP3    H127307   0.875   0.621  16.260 -1.4636 -1.2801 -1.5652
 1964TIP3    H227308   0.918   0.639  16.404  4.2546  0.1295 -3.1889
 1965TIP3   OH227309   3.306   2.725  14.059 -0.3848 -0.7376  0.0925
 1965TIP3    H127310   3.349   2.803  14.025 -1.2413 -0.3550 -0.1225
 1965TIP3    H227311   3.355   2.652  14.021 -0.6541 -0.3148 -1.1091
 1966TIP3   OH227312   6.606   2.134  14.788  0.1438 -0.1139 -0.3546
 1966TIP3    H127313   6.674   2.113  14.852 -0.5313 -0.0440  0.3946
 1966TIP3    H227314   6.524   2.125  14.836 -0.7728 -4.5461 -2.2546
 1967TIP3   OH227315   3.268   3.337   0.255  0.3507 -0.1365 -0.0650
 1967TIP3    H127316   3.347   3.310   0.208  0.8120 -0.8369  1.0771
 1967TIP3    H227317   3.262   3.277   0.328 -1.1222  0.0743  0.0104
 1968TIP3   OH227318   2.859   2.304   6.027  0.1048 -0.4914 -0.3604
 1968TIP3    H127319   2.789   2.239   6.026  1.1161 -1.6736  1.2721
 1968TIP3    H227320   2.839   2.358   6.104  1.3729 -1.3411  0.6019
 1969TIP3   OH227321   3.094   3.203  11.302  0.5284  0.0957 -0.2517
 1969TIP3    H127322   3.091   3.292  11.266 -0.7633  0.6618  1.1301
 1969TIP3    H227323   3.121   3.215  11.393  0.0830 -0.8906  0.0179
 1970TIP3   OH227324   5.241   0.146   0.186  0.1450 -0.1568 -0.0890
 1970TIP3    H127325   5.206   0.086   0.252 -2.2154 -0.1190 -1.2111
 1970TIP3    H227326   5.228   0.233   0.224  0.0779 -0.2015 -0.0077
 1971TIP3   OH227327   3.638   2.326  16.456 -0.0538  0.0564 -0.3526
 1971TIP3    H127328   3.626   2.231  16.454 -0.2922  0.0758  0.0360
 1971TIP3    H227329   3.632   2.353  16.364  0.1525 -0.3198 -0.4760
 1972TIP3   OH227330   2.215   2.906  15.491 -0.3268  0.0520 -0.6774
 1972TIP3    H127331   2.270   2.973  15.449 -0.0629  0.4107  0.2124
 1972TIP3    H227332   2.263   2.882  15.570 -1.2540  0.0622 -0.0995
 1973TIP3   OH227333   4.553   3.675  15.456  0.7242 -0.3083 -0.5234
 1973TIP3    H127334   4.630   3.637  15.497 -1.1875 -1.2129  2.4942
 1973TIP3    H227335   4.584   3.758  15.419  3.8783 -2.2625 -2.8326
 1974TIP3   OH227336   5.265   2.428   0.297  0.1309 -0.5466 -0.1144
 1974TIP3    H127337   5.310   2.487   0.236 -0.8836 -0.2892 -0.6392
 1974TIP3    H227338   5.315   2.346   0.293  0.1927 -0.4723 -1.1641
 1975TIP3   OH227339   5.182   5.604   4.037  0.2818  0.0568 -0.0629
 1975TIP3    H127340   5.176   5.520   4.084 -0.7691 -0.3169 -0.8361
 1975TIP3    H227341   5.121   5.662   4.083 -0.4363 -0.1854 -0.6964
 1976TIP3   OH227342   5.847   5.733  12.940  0.4333 -1.0899 -0.1981
 1976TIP3    H127343   5.939   5.733  12.969  0.2540  0.1380  0.4595
 1976TIP3    H227344   5.826   5.826  12.931 -1.3566 -1.2385  1.7361
 1977TIP3   OH227345   2.452   3.303  11.610  0.1282 -0.1367  0.9350
 1977TIP3    H127346   2.455   3.208  11.603 -0.5670 -0.1251  0.2980
 1977TIP3    H227347   2.375   3.320  11.665 -0.8419  0.0839 -0.4255
 1978TIP3   OH227348   4.398   4.581  16.389 -0.1089  0.0095 -0.4126
 1978TIP3    H127349   4.466   4.647  16.406  0.2977 -0.8309  1.3950
 1978TIP3    H227350   4.441   4.516  16.333  0.6568 -0.5843  0.8252
 1979TIP3   OH227351   1.156   2.535  15.713 -0.1048  0.3850 -0.5675
 1979TIP3    H127352   1.099   2.539  15.637 -2.0489 -1.0299  0.7082
 1979TIP3    H227353   1.231   2.484  15.684 -1.3414 -1.1298 -1.2823
 1980TIP3   OH227354   1.175   4.728   0.032 -0.1199  0.0003 -0.0975
 1980TIP3    H127355   1.264   4.710   0.060  0.1040  0.3222 -0.5909
 1980TIP3    H227356   1.140   4.786   0.100 -0.5892 -1.5974  1.0883
 1981TIP3   OH227357   6.758   4.056   2.920  0.0757 -0.0279  0.0971
 1981TIP3    H127358   6.800   4.020   2.998 -0.0659  0.1108  0.2367
 1981TIP3    H227359   6.799   4.142   2.908 -0.3841  0.2443  0.4148
 1982TIP3   OH227360   2.039   2.124  10.465  0.0357  0.3066  0.3975
 1982TIP3    H127361   1.946   2.104  10.466  0.0823  0.0353  1.5699
 1982TIP3    H227362   2.047   2.206  10.417 -0.9858  1.0916  1.5049
 1983TIP3   OH227363   1.800   6.570   3.246  0.1931  0.1034  0.1893
 1983TIP3    H127364   1.718   6.582   3.197 -0.3265 -0.9516  0.7713
 1983TIP3    H227365   1.862   6.541   3.180 -0.5130 -1.3503  0.1292
 1984TIP3   OH227366   4.686   3.067   2.397 -0.7688 -0.5703  0.1130
 1984TIP3    H127367   4.713   2.976   2.408 -1.2285 -0.6548  0.5853
 1984TIP3    H227368   4.768   3.117   2.405 -0.5973 -0.9014  0.4410
 1985TIP3   OH227369   4.908   1.549   4.750  0.2706 -0.0896  0.0940
 1985TIP3    H127370   4.903   1.489   4.675  0.1052 -0.7227  0.6087
 1985TIP3    H227371   4.988   1.524   4.795  0.6356  0.6170 -0.1276
 1986TIP3   OH227372   0.541   3.854  17.088 -0.1243  0.2484 -0.3743
 1986TIP3    H127373   0.588   3.934  17.066  0.0987  0.9284  2.2499
 1986TIP3    H227374   0.449   3.876  17.078 -0.0520  0.7054 -0.0565
 1987TIP3   OH227375   6.188   5.252   4.810 -0.0388 -0.8538 -0.5737
 1987TIP3    H127376   6.269   5.203   4.794  1.0941  0.8584 -0.3566
 1987TIP3    H227377   6.119   5.186   4.807  1.5499 -2.7357  1.2838
 1988TIP3   OH227378   2.919   5.532  10.907  0.1211 -0.2746  0.3621
 1988TIP3    H127379   2.987   5.468  10.930 -0.8388 -0.8398  1.7028
 1988TIP3    H227380   2.864   5.486  10.843  1.4580  0.5034 -1.4615
 1989TIP3   OH227381   2.242   3.103   4.798 -0.4027 -0.1514  0.4457
 1989TIP3    H127382   2.227   3.123   4.891 -1.6127  0.0046  0.2323
 1989TIP3    H227383   2.214   3.012   4.789 -0.9515  0.0506  0.0936
 1990TIP3   OH227384   2.856   2.088   3.581 -0.4768 -0.3186 -0.1325
 1990TIP3    H127385   2.933   2.131   3.544  0.7220 -1.4951  0.8897
 1990TIP3    H227386   2.800   2.160   3.610  0.5472  0.5626 -0.2835
 1991TIP3   OH227387   1.462   1.219   2.616 -0.7929  0.2357  0.0082
 1991TIP3    H127388   1.449   1.196   2.708 -3.2422 -2.2950 -0.8204
 1991TIP3    H227389   1.404   1.294   2.602 -0.5329  0.5297  0.4909
 1992TIP3   OH227390   3.099   6.691  15.519 -0.1416  0.4060  0.0152
 1992TIP3    H127391   3.160   6.662  15.451 -0.3660  0.3180 -0.1482
 1992TIP3    H227392   3.150   6.755  15.570 -0.2167  1.0661 -0.7133
 1993TIP3   OH227393   3.364   3.119   0.824 -0.4016 -0.4680  0.2260
 1993TIP3    H127394   3.320   3.038   0.798 -2.2959  0.3266  0.8071
 1993TIP3    H227395   3.402   3.100   0.910 -0.5995 -0.8144  0.2366
 1994TIP3   OH227396   2.492   5.602   0.294  0.4905  0.0746  0.0275
 1994TIP3    H127397   2.574   5.556   0.308  0.1150 -0.1192  1.7667
 1994TIP3    H227398   2.471   5.585   0.202  2.7741  0.8326 -0.6978
 1995TIP3   OH227399   0.990   2.372   4.808 -0.9135  0.7155  0.8039
 1995TIP3    H127400   1.031   2.458   4.821  1.3664 -0.3054  0.8328
 1995TIP3    H227401   0.963   2.372   4.716  0.5904  0.8836  0.3383
 1996TIP3   OH227402   0.369   2.038  12.931  0.6574  0.2035 -0.0429
 1996TIP3    H127403   0.357   2.115  12.875  0.1350 -0.8247 -1.3992
 1996TIP3    H227404   0.404   1.971  12.873  1.3678 -0.5223  1.1813
 1997TIP3   OH227405   6.296   0.907  15.727  0.2660  0.6086 -0.7785
 1997TIP3    H127406   6.389   0.905  15.747  0.2527  1.8252 -0.4867
 1997TIP3    H227407   6.292   0.915  15.631  0.3836 -2.0348 -1.0685
 1998TIP3   OH227408   5.299   3.377   4.142  0.4594  0.1235  0.1687
 1998TIP3    H127409   5.217   3.392   4.191  1.0907 -0.9169  1.6112
 1998TIP3    H227410   5.276   3.310   4.078  0.1531 -0.0841  0.4895
 1999TIP3   OH227411   5.205   6.165  11.616  0.4687  0.3184 -0.3708
 1999TIP3    H127412   5.283   6.194  11.568  1.4275 -0.0870  0.8933
 1999TIP3    H227413   5.136   6.225  11.588  0.8557 -0.1838 -2.6012
 2000TIP3   OH227414   5.029   3.300   3.759 -0.0401 -0.0341  0.3535
 2000TIP3    H127415   5.074   3.374   3.718  1.0970 -1.2648 -0.7032
 2000TIP3    H227416   4.940   3.332   3.774  0.3690  1.4800 -0.2667
 2001TIP3   OH227417   6.718   4.229   1.800  0.5639 -0.1786 -0.2069
 2001TIP3    H127418   6.808   4.255   1.785  0.5176  0.7359  0.9505
 2001TIP3    H227419   6.671   4.312   1.813 -0.2888 -0.6803  0.0009
 2002TIP3   OH227420   0.015   0.912  12.301  0.2963 -0.1020  0.1862
 2002TIP3    H127421  -0.050   0.914  12.371 -2.5836  0.0048 -2.2967
 2002TIP3    H227422   0.058   0.998  12.307 -3.4557  2.1166 -1.1308
 2003TIP3   OH227423   0.865   5.215  12.227 -0.0397 -0.0788  0.2813
 2003TIP3    H127424   0.770   5.209  12.221 -0.0249 -0.2580  0.2345
 2003TIP3    H227425   0.898   5.142  12.175  0.1178 -0.3196  0.7150
 2004TIP3   OH227426   1.892   0.132   1.778 -0.3052  0.1617 -0.3071
 2004TIP3    H127427   1.921   0.049   1.740  0.3352  0.2037  0.0846
 2004TIP3    H227428   1.861   0.183   1.703 -0.5814 -0.3814 -0.5659
 2005TIP3   OH227429   3.537   1.291  11.294  0.0245  0.2619 -0.1653
 2005TIP3    H127430   3.534   1.344  11.374 -0.3395  0.9243 -0.6086
 2005TIP3    H227431   3.453   1.308  11.251 -0.4090 -1.2373  0.0278
 2006TIP3   OH227432   2.362   6.599  16.113 -0.1306 -0.3663 -0.4222
 2006TIP3    H127433   2.332   6.659  16.182 -0.4569 -0.8631 -0.1233
 2006TIP3    H227434   2.322   6.632  16.033  1.5033  1.1541 -0.6808
 2007TIP3   OH227435   0.992   6.637   2.005 -0.5995  0.0529 -0.0528
 2007TIP3    H127436   1.023   6.710   2.059 -1.1732  1.0110 -0.9882
 2007TIP3    H227437   1.067   6.578   1.999  0.1282  0.9384  0.0784
 2008TIP3   OH227438   3.018   5.303  15.678  0.5716 -0.0559  0.4374
 2008TIP3    H127439   3.016   5.392  15.643  0.0745 -0.0488  0.4888
 2008TIP3    H227440   3.072   5.309  15.757  1.4897 -0.0211 -0.1780
 2009TIP3   OH227441   1.186   0.735   3.845 -0.2174 -0.4218 -0.1658
 2009TIP3    H127442   1.118   0.794   3.876 -0.2758  0.0793 -1.2379
 2009TIP3    H227443   1.156   0.705   3.760 -0.5202 -2.5686  0.6312
 2010TIP3   OH227444   4.640   4.463   5.034  0.3169 -0.4729 -0.4278
 2010TIP3    H127445   4.671   4.408   5.106 -0.8784 -0.5906  0.0223
 2010TIP3    H227446   4.548   4.440   5.025 -0.0129  0.8965 -0.7614
 2011TIP3   OH227447   2.023   2.889   4.573  0.4552 -0.1691  0.1308
 2011TIP3    H127448   2.015   2.798   4.545 -0.0390  0.2536 -1.1566
 2011TIP3    H227449   1.977   2.939   4.506  0.9717  1.0605  0.6664
 2012TIP3   OH227450   1.749   3.410   3.839  0.0085  0.2854  0.1754
 2012TIP3    H127451   1.761   3.505   3.851 -2.0615  0.5465  0.5352
 2012TIP3    H227452   1.758   3.374   3.927 -1.2594  0.4439  0.3941
 2013TIP3   OH227453   1.188   0.764  16.037  0.2179  0.0330  0.8791
 2013TIP3    H127454   1.202   0.859  16.047 -0.3746  0.2224  0.0366
 2013TIP3    H227455   1.272   0.731  16.006  0.6629  0.1518  1.9171
 2014TIP3   OH227456   0.819   5.761   5.772  0.0030  0.5875  0.1013
 2014TIP3    H127457   0.777   5.704   5.837 -2.0313  1.8823  0.0208
 2014TIP3    H227458   0.912   5.744   5.782 -0.4000 -1.1314  1.5732
 2015TIP3   OH227459   0.576   4.940  12.581 -0.0477  0.0940 -0.5457
 2015TIP3    H127460   0.645   5.006  12.581  0.2916 -0.2313 -2.0440
 2015TIP3    H227461   0.592   4.889  12.660 -0.5879  2.0280  0.9011
 2016TIP3   OH227462   0.787   0.250   4.445 -0.4303 -0.3381 -0.0535
 2016TIP3    H127463   0.812   0.314   4.512  0.3453  1.1747 -1.6859
 2016TIP3    H227464   0.870   0.225   4.404 -0.9773 -0.1414 -1.3399
 2017TIP3   OH227465   4.960   5.656  12.439  0.8204  0.1808  0.6014
 2017TIP3    H127466   5.048   5.621  12.453  0.6932 -1.0964 -1.3577
 2017TIP3    H227467   4.970   5.751  12.446  2.9204  0.2598 -2.0575
 2018TIP3   OH227468   1.997   1.342  17.148 -0.3434  0.3274 -0.5719
 2018TIP3    H127469   2.063   1.397  17.191  0.3092  0.1886 -1.3683
 2018TIP3    H227470   1.985   1.268  17.208  1.6627 -0.6385 -1.2682
 2019TIP3   OH227471   1.368   5.170  12.476 -1.0382 -0.0432  0.1724
 2019TIP3    H127472   1.300   5.174  12.544 -2.4065  1.0552 -1.1797
 2019TIP3    H227473   1.345   5.094  12.423 -2.5644  1.4938 -1.5327
 2020TIP3   OH227474   0.606   0.015  11.349  0.3373  0.3535  0.5911
 2020TIP3    H127475   0.691  -0.007  11.309 -0.9085 -3.0566 -0.6140
 2020TIP3    H227476   0.581   0.098  11.309  1.3453 -0.5622 -2.2334
 2021TIP3   OH227477   3.759   1.123  12.389 -0.2402 -0.0556 -0.6357
 2021TIP3    H127478   3.847   1.156  12.408  0.1208 -0.8818 -0.7777
 2021TIP3    H227479   3.700   1.187  12.426  0.4096  1.3586 -1.9390
 2022TIP3   OH227480   2.841   4.143  11.522 -0.2641  0.6722  0.3808
 2022TIP3    H127481   2.912   4.200  11.551  0.4598  0.2438 -0.4718
 2022TIP3    H227482   2.771   4.202  11.497 -0.0727  1.1215  0.8972
 2023TIP3   OH227483   5.414   5.122   2.042 -0.0593  0.7645  0.1062
 2023TIP3    H127484   5.400   5.203   1.992 -1.0951  0.2111 -0.5246
 2023TIP3    H227485   5.353   5.059   2.004  1.9265 -0.8504 -0.5586
 2024TIP3   OH227486   0.862   1.995   0.657 -0.4914  0.0578 -0.3745
 2024TIP3    H127487   0.947   2.003   0.700  0.2045 -1.2916 -1.4114
 2024TIP3    H227488   0.803   2.048   0.711  1.1094  1.5742  0.0044
 2025TIP3   OH227489   1.892   2.609   3.032 -0.3044 -0.5236 -0.2351
 2025TIP3    H127490   1.879   2.585   3.124 -1.1531 -0.2271 -0.2747
 2025TIP3    H227491   1.980   2.575   3.011  0.3015  0.2473  0.9436
 2026TIP3   OH227492   3.482   4.495   6.038 -0.2643  0.3563 -0.2038
 2026TIP3    H127493   3.393   4.507   6.071 -0.1690 -1.3744  0.7996
 2026TIP3    H227494   3.472   4.496   5.943 -1.7173 -1.6572 -0.1552
 2027TIP3   OH227495   6.184   4.807  17.072  0.3741  0.0004  0.3057
 2027TIP3    H127496   6.092   4.812  17.096  0.0664  0.2500 -0.8845
 2027TIP3    H227497   6.213   4.721  17.103 -0.9921 -1.2702 -1.7272
 2028TIP3   OH227498   3.301   4.126   3.578 -0.1574  0.0162 -0.1953
 2028TIP3    H127499   3.280   4.095   3.490 -0.6125 -1.4723  0.4098
 2028TIP3    H227500   3.337   4.214   3.564 -2.8594  1.0208 -1.6517
 2029TIP3   OH227501   2.676   4.804  14.634 -0.1040  0.1395 -0.2826
 2029TIP3    H127502   2.684   4.744  14.560 -0.2996 -1.1470  0.7011
 2029TIP3    H227503   2.593   4.780  14.675  0.2031  0.5511  0.5948
 2030TIP3   OH227504   2.552   3.044  14.942 -0.4610  0.0071  0.1115
 2030TIP3    H127505   2.637   3.078  14.913 -1.0628  0.2944 -1.4464
 2030TIP3    H227506   2.573   2.971  14.999  0.8391  1.0752  1.0446
 2031TIP3   OH227507   1.727   1.731   3.322  0.3705 -0.9134 -0.1299
 2031TIP3    H127508   1.813   1.709   3.286 -0.1477 -1.2271 -1.2139
 2031TIP3    H227509   1.720   1.826   3.313 -0.4922 -1.1579 -2.6319
 2032TIP3   OH227510   1.253   1.185  16.620 -0.2741  0.2302 -0.0130
 2032TIP3    H127511   1.228   1.272  16.651 -1.8350 -0.7430  1.5833
 2032TIP3    H227512   1.292   1.142  16.696 -0.9427 -0.9967 -0.3381
 2033TIP3   OH227513   3.641   2.420  14.229 -0.2061  0.1114 -0.3574
 2033TIP3    H127514   3.552   2.400  14.257 -0.0836 -1.4911 -0.9934
 2033TIP3    H227515   3.689   2.436  14.310 -1.2252  1.9065 -0.0412
 2034TIP3   OH227516   4.563   1.743  11.434  0.2533  0.1749 -0.0553
 2034TIP3    H127517   4.623   1.745  11.508 -0.7349 -0.4736  0.7831
 2034TIP3    H227518   4.619   1.753  11.357  1.4024 -0.2565  0.7157
 2035TIP3   OH227519   3.905   2.563  15.479 -0.3235  0.1283  0.0357
 2035TIP3    H127520   3.990   2.607  15.473 -0.6820  0.7294 -0.9853
 2035TIP3    H227521   3.862   2.585  15.396 -0.6586 -1.8768 -0.3635
 2036TIP3   OH227522   1.500   6.621  10.663  0.0102 -0.3982  0.3499
 2036TIP3    H127523   1.466   6.669  10.588  1.5362 -0.5576 -0.4954
 2036TIP3    H227524   1.514   6.532  10.630 -1.4319 -1.0909  1.4932
 2037TIP3   OH227525   4.259   5.453   3.000 -0.0499 -0.6553  0.5655
 2037TIP3    H127526   4.251   5.359   3.015 -0.0321 -0.9129 -0.8843
 2037TIP3    H227527   4.170   5.484   2.987 -0.1252 -0.3181  1.8095
 2038TIP3   OH227528   4.557   4.113  12.891 -0.3259  0.1165 -0.1948
 2038TIP3    H127529   4.586   4.045  12.952 -0.8586  0.3366  0.3158
 2038TIP3    H227530   4.518   4.180  12.947  0.2671  0.8936 -0.6833
 2039TIP3   OH227531   4.847   0.173   5.450  0.0857  0.0580  0.2134
 2039TIP3    H127532   4.764   0.133   5.425 -0.1741  0.9496 -0.4455
 2039TIP3    H227533   4.829   0.216   5.534 -0.3002  0.7324 -0.2009
 2040TIP3   OH227534   0.658   4.836   5.325  0.1072 -0.2524 -0.3481
 2040TIP3    H127535   0.671   4.744   5.302  0.8285 -0.3847  0.5215
 2040TIP3    H227536   0.586   4.836   5.388  0.8293 -0.3524  0.4885
 2041TIP3   OH227537   0.024   0.775  15.046 -0.1440  0.0161 -0.2263
 2041TIP3    H127538   0.031   0.692  15.095 -1.3773 -0.6352 -1.1126
 2041TIP3    H227539   0.085   0.764  14.973  2.1657  1.2308  1.3894
 2042TIP3   OH227540   0.594   2.131   0.058 -0.1560 -0.0191  0.2013
 2042TIP3    H127541   0.509   2.122   0.016 -0.3747  0.3110  0.5543
 2042TIP3    H227542   0.649   2.175  -0.006 -0.3628  0.1016  0.1073
 2043TIP3   OH227543   1.347   2.618   2.730  0.1687  0.0609 -0.2800
 2043TIP3    H127544   1.370   2.549   2.792 -0.1468  0.7235  0.5945
 2043TIP3    H227545   1.385   2.589   2.647  1.7216 -0.2168  0.4945
 2044TIP3   OH227546   3.983   6.083   1.938 -0.1356  0.3093  0.1211
 2044TIP3    H127547   4.051   6.127   1.888  0.7872 -1.0534  0.1155
 2044TIP3    H227548   3.902   6.099   1.889  0.6245 -0.3521 -1.4168
 2045TIP3   OH227549   6.278   0.426   6.586  0.4809 -0.4060  0.3994
 2045TIP3    H127550   6.187   0.399   6.575  1.1881 -2.8838  0.1055
 2045TIP3    H227551   6.274   0.522   6.590 -2.3370 -0.5060  2.5192
 2046TIP3   OH227552   0.480   6.198  17.179 -0.3547 -0.7434 -0.1788
 2046TIP3    H127553   0.551   6.260  17.168 -1.3632  0.9358  1.9416
 2046TIP3    H227554   0.402   6.245  17.149 -0.8055 -1.9703 -1.0047
 2047TIP3   OH227555   2.798   2.226   6.303  0.6038  0.5702  0.0962
 2047TIP3    H127556   2.733   2.224   6.373 -1.3879 -0.7072 -1.6782
 2047TIP3    H227557   2.763   2.287   6.239  1.4774  0.3377 -0.6317
 2048TIP3   OH227558   2.191   2.530  11.862 -0.0978  0.4124 -0.1703
 2048TIP3    H127559   2.190   2.530  11.957  1.3180 -0.3636 -0.1217
 2048TIP3    H227560   2.175   2.438  11.838 -1.7959  0.8214 -0.7446
 2049TIP3   OH227561   5.721   5.481   3.547 -0.9693  0.3322  0.0717
 2049TIP3    H127562   5.656   5.415   3.527 -1.0305 -0.0223  1.3436
 2049TIP3    H227563   5.685   5.563   3.512 -2.2783  0.2086  1.0615
 2050TIP3   OH227564   4.654   2.144  12.211  0.0401  0.4238  0.1834
 2050TIP3    H127565   4.606   2.106  12.285 -1.2671  2.8276  0.6595
 2050TIP3    H227566   4.739   2.168  12.247  1.1745 -2.5021 -0.2947
 2051TIP3   OH227567   1.819   3.033   1.921  0.1099  0.0911  0.2337
 2051TIP3    H127568   1.828   3.008   2.013  3.2621  1.0631  0.3402
 2051TIP3    H227569   1.890   3.096   1.907 -0.0398 -0.2964 -2.9574
 2052TIP3   OH227570   2.798   0.194   2.178  0.2780 -0.2619  0.8074
 2052TIP3    H127571   2.846   0.151   2.106  0.6142  0.8091  0.3744
 2052TIP3    H227572   2.754   0.268   2.136 -1.0613 -0.7105  1.3711
 2053TIP3   OH227573   0.764   0.290   6.576  0.5429 -0.1844  0.3330
 2053TIP3    H127574   0.716   0.308   6.496  1.5013  0.1539 -0.1794
 2053TIP3    H227575   0.803   0.374   6.600 -0.9512  0.1022  2.0070
 2054TIP3   OH227576   0.725   4.714  13.723  0.1566  0.2332 -0.5131
 2054TIP3    H127577   0.743   4.793  13.673  0.7381  0.7658  0.5187
 2054TIP3    H227578   0.758   4.643  13.667 -0.7762  0.6414 -1.6465
 2055TIP3   OH227579   2.404   6.094   6.028  0.4021 -0.2683  0.2393
 2055TIP3    H127580   2.347   6.020   6.051 -0.4113  0.0693 -0.6040
 2055TIP3    H227581   2.425   6.135   6.112  0.2104 -0.9920  0.6505
 2056TIP3   OH227582   4.058   0.118   4.398 -0.3683 -0.2236 -0.3334
 2056TIP3    H127583   4.086   0.158   4.480 -1.3793  4.4350 -1.9799
 2056TIP3    H227584   3.982   0.066   4.423 -0.3140  0.5839  1.7750
 2057TIP3   OH227585   3.122   2.566  11.918 -0.4007 -0.1550  0.1633
 2057TIP3    H127586   3.034   2.586  11.887 -0.2759 -1.5512 -1.2230
 2057TIP3    H227587   3.179   2.591  11.845  0.6391  2.8877  1.8908
 2058TIP3   OH227588   5.782   3.010  16.482 -0.3625  0.1341  0.9792
 2058TIP3    H127589   5.725   2.933  16.479  0.4824 -0.5141  1.3062
 2058TIP3    H227590   5.809   3.017  16.573  0.3212  0.2615  0.7664
 2059TIP3   OH227591   2.655   4.032  10.772  0.0680  0.2617 -0.0442
 2059TIP3    H127592   2.564   4.032  10.803  0.1535  0.4190  0.2174
 2059TIP3    H227593   2.702   4.084  10.838  0.0253  1.7324 -1.1162
 2060TIP3   OH227594   0.055   4.110  15.986  0.0839 -0.0157 -0.0382
 2060TIP3    H127595   0.087   4.071  16.067  0.1753  1.6142  0.7621
 2060TIP3    H227596   0.131   4.154  15.949 -0.3767  0.8125 -0.0224
 2061TIP3   OH227597   2.290   2.232  12.019  0.3238  0.4334 -0.3552
 2061TIP3    H127598   2.282   2.243  12.114 -0.8207  0.4711 -0.4404
 2061TIP3    H227599   2.201   2.243  11.986  0.5992 -0.2256 -1.3705
 2062TIP3   OH227600   4.320   6.393   4.797 -0.5933 -0.2838 -0.4316
 2062TIP3    H127601   4.236   6.417   4.837 -1.0796  0.1350 -1.6614
 2062TIP3    H227602   4.385   6.445   4.844 -0.6114 -2.5377  2.3880
 2063TIP3   OH227603   1.374   4.475   0.211  0.2321  1.1117  0.1746
 2063TIP3    H127604   1.384   4.570   0.215  1.6094  0.9662  0.5960
 2063TIP3    H227605   1.433   4.448   0.140  1.0959  0.4318  1.1148
 2064TIP3   OH227606   3.367   2.410  15.346  0.3815  0.4686  0.3924
 2064TIP3    H127607   3.356   2.316  15.361 -0.1651  0.4157 -0.3055
 2064TIP3    H227608   3.446   2.416  15.291 -0.1856  0.3311 -0.4541
 2065TIP3   OH227609   2.838   3.554  12.703  0.3012 -0.6277  0.5309
 2065TIP3    H127610   2.910   3.500  12.736  1.5887  0.6738  0.0069
 2065TIP3    H227611   2.838   3.538  12.608 -1.0645 -1.7049  0.6968
 2066TIP3   OH227612   5.305   5.354  14.471  0.0419 -0.1517  0.2953
 2066TIP3    H127613   5.398   5.329  14.467  0.1711  0.3290  0.3009
 2066TIP3    H227614   5.276   5.322  14.557 -0.0435 -1.1249 -0.0740
 2067TIP3   OH227615   0.276   6.022  14.375 -0.1401 -0.6270 -0.5476
 2067TIP3    H127616   0.231   5.970  14.441  1.5647 -1.9749 -0.3694
 2067TIP3    H227617   0.331   6.083  14.425 -0.2391 -0.3783 -0.7381
 2068TIP3   OH227618   6.614   6.386   4.199  0.5937  0.2239 -0.2252
 2068TIP3    H127619   6.593   6.299   4.167 -1.2526  0.5964 -0.1329
 2068TIP3    H227620   6.650   6.432   4.123 -0.5375  0.0444 -0.8955
 2069TIP3   OH227621   1.455   3.081  13.254 -0.9346 -0.0805  0.5000
 2069TIP3    H127622   1.507   3.014  13.209  1.2322  1.8668 -0.0774
 2069TIP3    H227623   1.391   3.109  13.188  0.8456  1.2467 -0.7700
 2070TIP3   OH227624   4.584   2.608  15.678 -0.2496 -0.3991  0.5037
 2070TIP3    H127625   4.492   2.582  15.678 -0.7365  1.2204  1.1664
 2070TIP3    H227626   4.617   2.578  15.762  0.3000 -2.3659 -0.3402
 2071TIP3   OH227627   5.892   6.490  12.152  0.3290 -0.2015  0.5160
 2071TIP3    H127628   5.821   6.554  12.157  0.5503  0.1297 -0.4583
 2071TIP3    H227629   5.866   6.420  12.212 -1.0843 -0.3474 -0.2312
 2072TIP3   OH227630   6.453   5.645   0.681  0.0619  0.1459  0.1965
 2072TIP3    H127631   6.439   5.551   0.686 -0.6223  0.2599  0.5792
 2072TIP3    H227632   6.518   5.664   0.748  0.8331 -0.1667 -0.4571
 2073TIP3   OH227633   5.507   3.746   1.813  0.1007  0.0430 -0.3608
 2073TIP3    H127634   5.423   3.755   1.768 -0.5127 -1.2304  0.4901
 2073TIP3    H227635   5.541   3.835   1.817 -1.0673  0.5416 -0.9748
 2074TIP3   OH227636   0.273   5.950   0.497 -0.2963 -0.2706  0.0194
 2074TIP3    H127637   0.240   5.898   0.423  0.8563  0.5016 -1.0801
 2074TIP3    H227638   0.366   5.928   0.502 -0.1609  0.4131  0.6473
 2075TIP3   OH227639   0.280   1.010   0.047  0.5778 -0.8951  0.3984
 2075TIP3    H127640   0.316   0.970  -0.031 -0.3956 -0.6778 -0.1782
 2075TIP3    H227641   0.186   1.017   0.030  0.6632  1.3672  0.5875
 2076TIP3   OH227642   3.844   3.871   4.101  0.1261  0.1714 -0.7835
 2076TIP3    H127643   3.910   3.809   4.133  0.4042  1.0402  0.3810
 2076TIP3    H227644   3.770   3.816   4.076 -0.5770 -0.5548  2.4364
 2077TIP3   OH227645   5.924   2.985   2.784 -0.0507 -0.4407 -0.1674
 2077TIP3    H127646   5.892   2.980   2.694  0.6071 -1.9053 -0.3413
 2077TIP3    H227647   5.885   3.065   2.818 -0.5713 -0.0215 -1.6503
 2078TIP3   OH227648   3.475   3.165  11.566 -0.0449  0.1385 -0.3748
 2078TIP3    H127649   3.554   3.219  11.576 -0.8166  1.1027  0.9508
 2078TIP3    H227650   3.500   3.079  11.598  0.8130  0.0864 -1.1627
 2079TIP3   OH227651   2.396   0.607   2.944  0.2134  0.0001 -0.6485
 2079TIP3    H127652   2.354   0.637   2.863  0.4968  0.0097 -0.7914
 2079TIP3    H227653   2.410   0.513   2.931  2.1084  0.3419 -1.4508
 2080TIP3   OH227654   2.290   1.815   3.025 -0.0737 -0.4476 -0.0624
 2080TIP3    H127655   2.205   1.817   2.981 -1.0110  2.1865  1.5902
 2080TIP3    H227656   2.349   1.861   2.964  0.1054 -1.8506 -0.9947
 2081TIP3   OH227657   5.502   3.424   2.520 -0.5477 -0.3050  0.1332
 2081TIP3    H127658   5.528   3.444   2.430 -2.7427  1.4849 -0.1822
 2081TIP3    H227659   5.581   3.441   2.572  0.5330 -0.6430 -1.3400
 2082TIP3   OH227660   1.997   0.265   5.975  0.0212 -0.1873  0.6272
 2082TIP3    H127661   2.045   0.247   6.056  0.1787 -0.1964  0.5330
 2082TIP3    H227662   1.926   0.200   5.973  1.8133 -2.2544 -0.7495
 2083TIP3   OH227663   2.891   2.276  13.026  0.2206 -0.6463 -0.5127
 2083TIP3    H127664   2.808   2.315  13.053 -0.6502 -2.4041 -0.5184
 2083TIP3    H227665   2.921   2.331  12.954 -0.9097  0.0442 -0.4780
 2084TIP3   OH227666   0.024   4.512   3.057 -0.0178 -0.0666  0.0599
 2084TIP3    H127667   0.084   4.583   3.032  0.2231 -0.3960 -0.3097
 2084TIP3    H227668   0.002   4.469   2.974 -1.6265  0.7077  0.0571
 2085TIP3   OH227669   4.913   6.632  17.049  0.5341 -0.0517  0.1198
 2085TIP3    H127670   4.856   6.609  17.122  1.2336 -1.3338  0.2859
 2085TIP3    H227671   4.972   6.699  17.085  1.9887 -1.8735  1.2902
 2086TIP3   OH227672   6.306   1.334   6.235 -0.3206  0.1183 -0.0947
 2086TIP3    H127673   6.349   1.397   6.177  1.9775 -1.1039  0.1576
 2086TIP3    H227674   6.307   1.375   6.321 -0.3716  0.4009 -0.2263
 2087TIP3   OH227675   5.341   5.583  13.098 -0.8430  0.2455 -0.1791
 2087TIP3    H127676   5.422   5.580  13.047 -1.2411 -1.6131 -0.8088
 2087TIP3    H227677   5.365   5.548  13.184 -1.1777 -1.5028 -0.7557
 2088TIP3   OH227678   1.036   0.956   0.849 -0.3888  0.0948 -0.5709
 2088TIP3    H127679   1.077   0.911   0.775 -1.3331 -0.2715 -0.8855
 2088TIP3    H227680   0.955   0.909   0.864 -0.6711  0.7667  0.0854
 2089TIP3   OH227681   4.444   6.079   2.576  0.3467  0.3807  0.1889
 2089TIP3    H127682   4.383   6.144   2.541 -0.0255  0.4749  0.9933
 2089TIP3    H227683   4.502   6.129   2.632  1.0645  0.2603 -0.4304
 2090TIP3   OH227684   5.250   5.449  14.961 -0.3343 -0.2610  0.6769
 2090TIP3    H127685   5.208   5.526  15.000 -1.7770 -1.0758  0.8076
 2090TIP3    H227686   5.302   5.411  15.031  0.7471  0.8207  0.4898
 2091TIP3   OH227687   2.178   2.880   5.155 -0.5110 -0.4122 -0.1817
 2091TIP3    H127688   2.261   2.874   5.202 -0.8189  0.5979  0.5214
 2091TIP3    H227689   2.166   2.974   5.139 -2.0478 -0.4102  0.7362
 2092TIP3   OH227690   6.696   3.882   5.713 -0.0669 -0.5330  0.8855
 2092TIP3    H127691   6.655   3.910   5.631  0.1826 -1.0683  0.5783
 2092TIP3    H227692   6.623   3.877   5.775 -0.5812 -2.0342  0.1953
 2093TIP3   OH227693   6.044   1.146   0.921  0.1040  0.1462 -0.3157
 2093TIP3    H127694   5.999   1.064   0.940 -0.6902  0.8976  1.2916
 2093TIP3    H227695   6.058   1.145   0.826 -3.8951  0.1226 -1.0843
 2094TIP3   OH227696   6.575   1.194   4.105 -0.2662 -0.0957 -0.4116
 2094TIP3    H127697   6.602   1.137   4.033 -0.5182 -0.1550 -0.4589
 2094TIP3    H227698   6.634   1.172   4.177 -0.1901 -0.2278 -0.5159
 2095TIP3   OH227699   1.028   3.488   4.735  0.4029  0.2499  0.0433
 2095TIP3    H127700   1.005   3.440   4.656  0.7402 -0.6477  0.4812
 2095TIP3    H227701   1.007   3.428   4.807 -1.3845  1.6173  0.7572
 2096TIP3   OH227702   2.725   1.909   0.594  0.2266  0.3915 -0.1108
 2096TIP3    H127703   2.781   1.903   0.516 -1.4413  1.6037 -1.4809
 2096TIP3    H227704   2.765   1.979   0.646  0.4093  0.7484 -0.7204
 2097TIP3   OH227705   1.712   0.377   6.040  0.0681 -0.1075  0.1857
 2097TIP3    H127706   1.778   0.403   5.976 -0.1317 -0.2798 -0.0943
 2097TIP3    H227707   1.736   0.423   6.119  0.2669  0.1810 -0.0406
 2098TIP3   OH227708   2.943   4.831   1.360 -0.2537  0.6045  0.0790
 2098TIP3    H127709   2.882   4.853   1.431  0.2021 -0.4630  0.8257
 2098TIP3    H227710   2.893   4.846   1.280 -0.8080  1.7416  0.6167
 2099TIP3   OH227711   1.565   5.718  14.910  0.1645 -0.3127  0.5494
 2099TIP3    H127712   1.540   5.651  14.846  0.4664  0.4917 -0.4475
 2099TIP3    H227713   1.603   5.669  14.983  0.8833 -1.2008 -0.3897
 2100TIP3   OH227714   3.001   1.869  11.429 -0.6798  0.4924 -0.0904
 2100TIP3    H127715   3.058   1.945  11.442 -1.4206  0.9678  0.5101
 2100TIP3    H227716   2.916   1.898  11.462 -0.6240 -1.0928  1.6151
 2101TIP3   OH227717   0.275   5.564   1.615  0.4158  0.3052 -0.1299
 2101TIP3    H127718   0.309   5.494   1.672 -2.7701 -1.3880 -0.0670
 2101TIP3    H227719   0.258   5.637   1.675 -2.2006 -1.2005  1.1950
 2102TIP3   OH227720   4.285   5.041   0.586  0.0654  0.7590 -0.3830
 2102TIP3    H127721   4.194   5.072   0.582  0.3627  1.7537  0.1344
 2102TIP3    H227722   4.293   4.980   0.512 -1.3778 -0.3632  0.3363
 2103TIP3   OH227723   4.849   4.183  15.787  0.2572 -0.0988  0.2092
 2103TIP3    H127724   4.842   4.171  15.882 -1.1036 -1.4442 -0.0207
 2103TIP3    H227725   4.777   4.242  15.765 -0.1020 -0.6485 -0.1121
 2104TIP3   OH227726   5.038   6.379  11.532 -0.3333  0.0195 -0.2335
 2104TIP3    H127727   5.075   6.432  11.461  0.4837 -0.7635 -0.4183
 2104TIP3    H227728   4.968   6.329  11.491 -0.4277  0.2037 -0.2962
 2105TIP3   OH227729   4.256   1.432  12.543 -0.2151 -0.0784 -0.0514
 2105TIP3    H127730   4.326   1.435  12.477 -0.9318 -1.5640 -0.9344
 2105TIP3    H227731   4.282   1.497  12.609  1.5965 -0.0514 -0.7398
 2106TIP3   OH227732   0.391   0.133   2.662  0.3856 -0.6115  0.2819
 2106TIP3    H127733   0.374   0.197   2.730 -2.9764 -1.4924  0.4466
 2106TIP3    H227734   0.343   0.166   2.586  1.1977 -1.3908 -0.5975
 2107TIP3   OH227735   3.766   0.802   1.100  0.2428  0.1081  0.1912
 2107TIP3    H127736   3.784   0.860   1.173 -0.0359 -0.9233  1.1126
 2107TIP3    H227737   3.726   0.724   1.140  0.4464 -0.6461 -1.0072
 2108TIP3   OH227738   4.993   5.562  10.533 -0.5091  0.5945 -0.4321
 2108TIP3    H127739   4.978   5.471  10.557  2.4778  0.7403  2.7609
 2108TIP3    H227740   4.921   5.610  10.574 -1.0664 -0.1487 -0.5272
 2109TIP3   OH227741   4.661   1.002   6.101 -0.3774 -0.0080  0.6582
 2109TIP3    H127742   4.580   1.037   6.138 -1.4162 -0.8277 -0.7420
 2109TIP3    H227743   4.635   0.921   6.058  1.2241 -0.3688  0.3044
 2110TIP3   OH227744   4.907   5.868  14.758  0.1082 -0.1012  0.2734
 2110TIP3    H127745   4.991   5.914  14.750 -0.4100  1.4085  2.4874
 2110TIP3    H227746   4.849   5.915  14.698  0.3791  0.0725  0.1416
 2111TIP3   OH227747   4.237   0.970  14.868  0.1513  0.1773  0.4488
 2111TIP3    H127748   4.230   0.903  14.935  0.5540  0.4154  0.7358
 2111TIP3    H227749   4.269   1.048  14.914  0.2646  0.3952  0.0154
 2112TIP3   OH227750   4.853   5.075  16.404  0.0422  0.4933  0.2443
 2112TIP3    H127751   4.844   5.121  16.488  1.7177  0.4329  0.5052
 2112TIP3    H227752   4.912   5.002  16.424  0.0948  0.2084 -0.8988
 2113TIP3   OH227753   4.386   3.402   3.742  0.2838 -0.3348 -0.0116
 2113TIP3    H127754   4.301   3.375   3.776 -0.2251 -0.2524 -1.1509
 2113TIP3    H227755   4.437   3.321   3.737 -0.1312 -0.5802 -0.3940
 2114TIP3   OH227756   2.690   2.053  13.727  0.2083  0.1459 -0.6689
 2114TIP3    H127757   2.710   2.142  13.755  0.9835 -0.5464  1.0989
 2114TIP3    H227758   2.761   2.030  13.667  0.5702  0.3687 -0.3310
 2115TIP3   OH227759   4.048   2.777  16.946 -0.2694 -0.2400 -0.4095
 2115TIP3    H127760   4.143   2.781  16.942 -0.2952  0.5590 -0.2986
 2115TIP3    H227761   4.019   2.814  16.862 -0.4844 -0.6351 -0.5139
 2116TIP3   OH227762   6.460   6.079   5.657 -0.4632  0.4313  0.2043
 2116TIP3    H127763   6.450   6.160   5.608 -0.2588  0.6385  0.5040
 2116TIP3    H227764   6.466   6.011   5.589  2.5124  0.9707 -0.2049
 2117TIP3   OH227765   4.791   3.467  12.159  0.4253 -0.7701  0.7996
 2117TIP3    H127766   4.804   3.550  12.114  2.4454 -1.2668  0.3520
 2117TIP3    H227767   4.790   3.490  12.252 -0.4998 -0.1032  0.6381
 2118TIP3   OH227768   0.593   5.726  14.196  0.5076  0.3820  0.4716
 2118TIP3    H127769   0.514   5.711  14.247  0.2592  0.4751  0.1170
 2118TIP3    H227770   0.610   5.642  14.153 -0.1997  0.7452 -0.5605
 2119TIP3   OH227771   5.642   2.838   3.232  0.4833  1.1359 -0.7322
 2119TIP3    H127772   5.692   2.781   3.173  0.4864  0.1262  0.2127
 2119TIP3    H227773   5.550   2.816   3.215  0.5110 -0.7463  1.0725
 2120TIP3   OH227774   1.580   1.228  14.670  0.3544  0.6763  0.1907
 2120TIP3    H127775   1.598   1.175  14.592  1.3581 -0.7031  1.2961
 2120TIP3    H227776   1.571   1.317  14.637 -3.3726 -0.3101 -2.0109
 2121TIP3   OH227777   2.225   0.127   5.432 -0.2913 -0.8369 -0.0748
 2121TIP3    H127778   2.189   0.205   5.390 -1.6796 -0.9171  0.9087
 2121TIP3    H227779   2.161   0.104   5.499  1.1924 -1.4974  1.1862
 2122TIP3   OH227780   5.555   1.129   1.602  0.2894 -0.0640  1.0008
 2122TIP3    H127781   5.548   1.224   1.607  2.7928  0.2679 -0.0346
 2122TIP3    H227782   5.465   1.097   1.600 -0.6077  2.3838 -0.2434
 2123TIP3   OH227783   1.714   3.241  14.330 -0.1142  0.1048  0.4503
 2123TIP3    H127784   1.737   3.152  14.354  0.3963  0.3786  1.0160
 2123TIP3    H227785   1.635   3.232  14.276 -0.2541 -0.6587  0.7655
 2124TIP3   OH227786   1.411   4.348   3.539 -0.2366 -0.5791  0.3149
 2124TIP3    H127787   1.443   4.258   3.529 -0.8369 -0.7055 -0.6387
 2124TIP3    H227788   1.331   4.339   3.589 -0.0397 -0.5219  0.6404
 2125TIP3   OH227789   2.966   4.035   0.815 -0.1242  0.3528 -0.0330
 2125TIP3    H127790   2.954   4.036   0.910  0.2771  0.3315  0.0214
 2125TIP3    H227791   3.054   4.072   0.802  0.7842 -1.7484 -0.2402
 2126TIP3   OH227792   6.032   2.789   4.043 -0.0431  0.5205 -0.3092
 2126TIP3    H127793   6.018   2.708   3.995  3.6805 -1.0588  0.9500
 2126TIP3    H227794   6.025   2.764   4.135 -1.3764  2.2490  0.1175
 2127TIP3   OH227795   3.846   1.595   2.944  0.0845  0.2114 -0.8104
 2127TIP3    H127796   3.866   1.555   3.029 -1.2200  3.1309  1.0410
 2127TIP3    H227797   3.927   1.640   2.920 -0.6170  2.6894  1.0281
 2128TIP3   OH227798   0.147   0.023  13.861 -0.5746  0.8637  0.3934
 2128TIP3    H127799   0.164  -0.040  13.790  0.4913  2.0142 -0.4096
 2128TIP3    H227800   0.067   0.068  13.835  0.7318  2.4952 -1.0298
 2129TIP3   OH227801   3.822   2.985  15.444 -0.2234  0.5371  0.0692
 2129TIP3    H127802   3.874   2.966  15.366 -0.0919 -0.3527  0.3534
 2129TIP3    H227803   3.757   2.915  15.447 -0.8353  1.1045  0.2409
 2130TIP3   OH227804   6.164   0.932  15.233  0.3359 -0.0556 -0.4021
 2130TIP3    H127805   6.180   0.959  15.143  0.0790 -1.2577 -0.8230
 2130TIP3    H227806   6.101   0.861  15.226  1.4771 -1.2144  0.5979
 2131TIP3   OH227807   2.295   1.238   1.516  0.2041 -0.5079 -0.5100
 2131TIP3    H127808   2.350   1.316   1.522 -0.3611 -0.1928  1.3085
 2131TIP3    H227809   2.271   1.232   1.424  0.1167  1.5722 -0.6631
 2132TIP3   OH227810   0.217   5.676   4.394 -0.1403  0.6831 -0.8988
 2132TIP3    H127811   0.161   5.607   4.431 -0.1438  0.9274 -0.4424
 2132TIP3    H227812   0.290   5.629   4.354  1.5087  0.4560  2.0596
 2133TIP3   OH227813   5.433   1.610   3.469  0.3710  0.1896 -0.8467
 2133TIP3    H127814   5.396   1.522   3.457  1.9636 -0.6068 -0.2817
 2133TIP3    H227815   5.393   1.641   3.550  0.7466 -0.5558 -0.3607
 2134TIP3   OH227816   5.083   1.428  16.343  0.1839 -0.4143 -0.2843
 2134TIP3    H127817   5.090   1.342  16.301 -1.6151 -0.3356 -0.7909
 2134TIP3    H227818   5.096   1.491  16.272 -1.0350 -0.2851 -0.4121
 2135TIP3   OH227819   6.506   0.598   0.357 -0.4009  0.1370 -0.4861
 2135TIP3    H127820   6.548   0.683   0.371  0.6257 -0.4041 -0.1605
 2135TIP3    H227821   6.579   0.536   0.351 -1.1588 -0.8502  0.1510
 2136TIP3   OH227822   4.737   4.159  13.201 -0.4063  0.0933  0.3358
 2136TIP3    H127823   4.743   4.196  13.289 -2.7275  0.8398  0.2398
 2136TIP3    H227824   4.769   4.229  13.143  0.8170 -0.2824  0.5346
 2137TIP3   OH227825   0.741   5.566   1.711  0.9444  0.1430 -0.1438
 2137TIP3    H127826   0.713   5.634   1.649 -0.9655  0.3407  0.8835
 2137TIP3    H227827   0.727   5.484   1.664 -1.9936  0.1927  0.4719
 2138TIP3   OH227828   6.571   0.634   6.057  0.1789  0.0965 -0.1930
 2138TIP3    H127829   6.552   0.624   6.150 -0.2022  0.1363 -0.2627
 2138TIP3    H227830   6.619   0.555   6.034 -2.1962 -1.3518 -0.5873
 2139TIP3   OH227831   2.761   1.103  14.706 -0.0312 -0.2001  0.4010
 2139TIP3    H127832   2.738   1.161  14.633  2.5920 -0.5211 -0.8172
 2139TIP3    H227833   2.775   1.162  14.780 -1.6624  0.2407  0.3876
 2140TIP3   OH227834   4.186   6.393  10.594 -0.5454 -0.1770  0.1188
 2140TIP3    H127835   4.238   6.321  10.559 -0.9411 -0.4755  0.1405
 2140TIP3    H227836   4.243   6.434  10.660 -0.3533 -0.5233  0.1732
 2141TIP3   OH227837   1.734   1.328   3.699  0.3683  0.5771 -0.3566
 2141TIP3    H127838   1.658   1.269   3.692  0.3723  0.6142 -0.6984
 2141TIP3    H227839   1.803   1.284   3.650  1.2120 -0.4744  1.6592
 2142TIP3   OH227840   6.058   4.005  13.293 -0.1094 -0.0843  0.0600
 2142TIP3    H127841   5.991   4.040  13.353 -0.1606 -1.7594  1.0306
 2142TIP3    H227842   6.141   4.024  13.337  0.0285  1.1144 -0.6762
 2143TIP3   OH227843   5.471   4.520   0.846 -0.1812  0.1091 -0.0916
 2143TIP3    H127844   5.477   4.431   0.812 -0.8085  0.3869 -0.9479
 2143TIP3    H227845   5.494   4.576   0.772 -1.8892  0.7317 -0.1892
 2144TIP3   OH227846   3.241   2.507   4.406 -0.2217  0.3186  0.0423
 2144TIP3    H127847   3.301   2.541   4.472  1.0796 -0.1607 -0.8397
 2144TIP3    H227848   3.219   2.419   4.438  0.6267 -0.0222 -0.2712
 2145TIP3   OH227849   2.132   2.959   0.540 -0.2092  1.1319 -0.3153
 2145TIP3    H127850   2.187   2.884   0.516 -0.4123  1.0689 -0.5972
 2145TIP3    H227851   2.085   2.980   0.459  0.3923  2.0330 -0.4381
 2146TIP3   OH227852   5.875   6.376   2.463 -0.3007  0.1079  0.2678
 2146TIP3    H127853   5.809   6.401   2.528 -1.9245 -1.7511 -0.5679
 2146TIP3    H227854   5.826   6.369   2.381  1.0406 -0.8365 -0.4828
 2147TIP3   OH227855   1.675   3.671  13.391  0.0754  0.3258  0.6697
 2147TIP3    H127856   1.692   3.586  13.350  0.2948  0.4142  0.5704
 2147TIP3    H227857   1.749   3.685  13.450  0.3540  0.7095  0.2469
 2148TIP3   OH227858   0.151   6.124  12.358 -0.6997  0.5846  0.4345
 2148TIP3    H127859   0.059   6.127  12.333 -0.8920 -2.3303  0.4545
 2148TIP3    H227860   0.152   6.146  12.451 -1.0483  2.7054 -0.0090
 2149TIP3   OH227861   1.710   2.798  15.335  0.1601  0.3706  0.1348
 2149TIP3    H127862   1.745   2.877  15.296  0.8944  0.3866  0.7943
 2149TIP3    H227863   1.621   2.821  15.362 -0.7306  0.0780 -2.3285
 2150TIP3   OH227864   1.662   6.528  12.245 -0.3004  0.0617 -0.4221
 2150TIP3    H127865   1.741   6.491  12.284 -1.0923 -0.3504  0.8848
 2150TIP3    H227866   1.671   6.512  12.152  2.1291  1.9105 -0.6275
 2151TIP3   OH227867   3.291   4.403  13.458 -0.3117 -0.1298 -0.2246
 2151TIP3    H127868   3.207   4.360  13.441  0.9348 -1.9283 -2.1297
 2151TIP3    H227869   3.337   4.403  13.374  1.9297  0.1280  0.9181
 2152TIP3   OH227870   3.728   1.452   1.654  0.3862 -0.0788 -0.0608
 2152TIP3    H127871   3.658   1.394   1.625  0.2664  1.0617 -2.2138
 2152TIP3    H227872   3.687   1.539   1.657  1.4417  0.4399 -0.3728
 2153TIP3   OH227873   2.912   5.387   1.860 -0.6468 -0.3301 -0.2451
 2153TIP3    H127874   2.971   5.324   1.902  0.6941  2.1423  1.8305
 2153TIP3    H227875   2.846   5.406   1.926 -1.5350 -0.1652 -1.1524
 2154TIP3   OH227876   0.119   5.985   3.947 -0.0148  0.1453  0.2926
 2154TIP3    H127877   0.101   5.892   3.928  2.8571 -0.6060  0.7675
 2154TIP3    H227878   0.073   6.001   4.030 -1.5980 -0.4522 -0.4339
 2155TIP3   OH227879   6.160   5.731  12.947 -0.6678  0.4622  0.0069
 2155TIP3    H127880   6.247   5.711  12.913 -1.2508 -1.1142 -0.6334
 2155TIP3    H227881   6.145   5.665  13.014 -1.3429  0.7639  0.1592
 2156TIP3   OH227882   5.601   5.865   5.000 -0.6625  0.2025 -0.1099
 2156TIP3    H127883   5.545   5.792   4.977  0.2970 -0.5374 -0.1738
 2156TIP3    H227884   5.545   5.924   5.050 -0.6220 -2.3178  3.2781
 2157TIP3   OH227885   6.023   3.403   6.687  0.1386  0.2274  0.2235
 2157TIP3    H127886   5.943   3.368   6.727  0.6722 -1.5798 -0.1973
 2157TIP3    H227887   6.034   3.351   6.607  1.4845  0.7723  0.0404
 2158TIP3   OH227888   1.309   6.575   4.864 -0.7476 -0.0287 -0.1900
 2158TIP3    H127889   1.296   6.638   4.936  0.0319 -0.9389  0.7768
 2158TIP3    H227890   1.258   6.611   4.792 -1.7476  0.7978  0.8875
 2159TIP3   OH227891   6.231   5.301  13.108  0.8767 -0.7049  0.3018
 2159TIP3    H127892   6.190   5.239  13.048 -1.7444 -1.2119  2.4187
 2159TIP3    H227893   6.188   5.385  13.089 -0.0077 -0.8809  1.4348
 2160TIP3   OH227894   2.413   5.570  15.712  0.6857  0.6943 -0.3033
 2160TIP3    H127895   2.355   5.593  15.640 -0.2698  1.8546  0.7926
 2160TIP3    H227896   2.443   5.482  15.692 -1.0439  0.2638 -1.1692
 2161TIP3   OH227897   0.140   4.397  16.052 -0.2634  0.7003  0.5843
 2161TIP3    H127898   0.213   4.343  16.024  0.0495  0.0735  2.4736
 2161TIP3    H227899   0.172   4.443  16.129 -0.7855  3.0398 -0.4892
 2162TIP3   OH227900   1.872   5.684   3.955 -0.1567 -0.2006 -0.0830
 2162TIP3    H127901   1.919   5.668   4.037 -0.1070 -0.7074 -0.2053
 2162TIP3    H227902   1.932   5.735   3.902 -0.2111  0.1818  0.2179
 2163TIP3   OH227903   0.915   6.197  13.839  0.0879  0.1333  0.0843
 2163TIP3    H127904   0.855   6.126  13.861 -1.8880  1.1929 -1.5326
 2163TIP3    H227905   0.905   6.260  13.910 -1.9364  0.9801 -0.8833
 2164TIP3   OH227906   4.130   1.883   2.072  0.3127 -0.6336 -0.4058
 2164TIP3    H127907   4.057   1.876   2.133 -0.6233 -0.5455 -1.4713
 2164TIP3    H227908   4.199   1.928   2.121 -1.2181  1.5645 -0.1188
 2165TIP3   OH227909   3.325   1.565  15.158  0.1637 -0.1213 -0.6694
 2165TIP3    H127910   3.347   1.591  15.069 -1.1288 -0.2447 -1.0372
 2165TIP3    H227911   3.230   1.563  15.161  0.1172 -3.3648 -0.2767
 2166TIP3   OH227912   4.769   4.658  12.887 -0.0718 -0.0756  0.1168
 2166TIP3    H127913   4.811   4.658  12.973  2.0533 -0.2326 -0.8429
 2166TIP3    H227914   4.707   4.586  12.890 -0.2866  0.1470  1.6239
 2167TIP3   OH227915   6.664   1.180  13.416 -0.5431 -0.0657 -0.4655
 2167TIP3    H127916   6.743   1.129  13.432 -0.5687 -0.5018 -1.6362
 2167TIP3    H227917   6.598   1.115  13.393 -1.3375  0.2651  0.7541
 2168TIP3   OH227918   2.554   4.230  16.140  0.2096 -0.6160 -0.1604
 2168TIP3    H127919   2.556   4.149  16.189  0.1595  0.9284  2.5984
 2168TIP3    H227920   2.484   4.282  16.180 -0.7449  0.3129 -2.7653
 2169TIP3   OH227921   4.079   6.357  16.985  0.3683 -0.4865 -0.4604
 2169TIP3    H127922   4.063   6.410  16.907 -1.1155 -0.9787 -0.5116
 2169TIP3    H227923   4.174   6.343  16.986  0.8900  2.4298 -0.2636
 2170TIP3   OH227924   2.304   5.261  16.655  0.1435 -0.2739  0.2464
 2170TIP3    H127925   2.250   5.312  16.595 -1.1416 -0.3733  1.2611
 2170TIP3    H227926   2.267   5.280  16.742  0.5918 -1.7547  0.7984
 2171TIP3   OH227927   1.234   1.346   6.502  0.8699 -0.1591 -0.2410
 2171TIP3    H127928   1.154   1.387   6.534 -0.0349 -3.1675  1.8513
 2171TIP3    H227929   1.304   1.385   6.554  0.3682  0.4069  0.0234
 2172TIP3   OH227930   6.585   0.873   0.160 -0.8015 -0.3383  0.5444
 2172TIP3    H127931   6.611   0.874   0.252  0.8167 -1.1434  0.1270
 2172TIP3    H227932   6.527   0.948   0.150 -0.1855  0.3535  1.9877
 2173TIP3   OH227933   6.204   0.972   5.615 -0.1898  0.1664  0.7127
 2173TIP3    H127934   6.143   0.898   5.616 -0.1104  0.0715 -0.3997
 2173TIP3    H227935   6.290   0.931   5.616 -0.0364  0.3111  4.2197
 2174TIP3   OH227936   3.976   0.781   2.467  0.1206 -0.2390  0.0481
 2174TIP3    H127937   3.932   0.744   2.390  0.9148 -1.4868  0.1538
 2174TIP3    H227938   3.907   0.826   2.515 -0.2727  1.1896 -1.7330
 2175TIP3   OH227939   2.611   5.881   4.629  0.4527 -0.0399  0.2985
 2175TIP3    H127940   2.609   5.810   4.693  2.2437  1.4595  2.1070
 2175TIP3    H227941   2.704   5.896   4.611  0.1002  1.4925 -0.4660
 2176TIP3   OH227942   0.828   3.815  13.397  0.2092 -0.3895  0.2310
 2176TIP3    H127943   0.809   3.895  13.349  3.1003  0.1190 -0.2253
 2176TIP3    H227944   0.823   3.840  13.489  0.5993  0.2076  0.0921
 2177TIP3   OH227945   1.192   6.741  15.387  0.2904  0.0778 -0.0144
 2177TIP3    H127946   1.158   6.792  15.313  1.5153 -1.2190 -1.5372
 2177TIP3    H227947   1.261   6.795  15.424  1.2241 -0.1917 -1.2900
 2178TIP3   OH227948   5.330   0.368   3.978  0.2825  0.1443  0.1533
 2178TIP3    H127949   5.401   0.433   3.973 -0.8622  1.3631 -1.0728
 2178TIP3    H227950   5.301   0.358   3.887 -1.3569 -0.0354  0.6697
 2179TIP3   OH227951   4.977   1.305   1.557 -0.0808  0.4954 -0.7084
 2179TIP3    H127952   4.889   1.266   1.555 -0.4816  1.4076 -1.3970
 2179TIP3    H227953   4.983   1.347   1.642 -1.7525  3.5649 -1.9595
 2180TIP3   OH227954   5.304   4.529   2.140 -0.5598 -0.5622  0.6657
 2180TIP3    H127955   5.392   4.500   2.162  0.2574 -0.1194 -1.7451
 2180TIP3    H227956   5.315   4.618   2.106 -1.4483 -1.4785 -2.3317
 2181TIP3   OH227957   4.613   0.492  17.132  0.3058  0.1099  0.7202
 2181TIP3    H127958   4.691   0.493  17.077  0.3129 -0.3852  0.7185
 2181TIP3    H227959   4.600   0.400  17.155  0.7342  0.3836  2.1718
 2182TIP3   OH227960   4.077   2.686   1.243  0.0555 -0.5908  0.1050
 2182TIP3    H127961   4.122   2.721   1.320 -0.9869  1.3982 -0.1409
 2182TIP3    H227962   4.125   2.606   1.222  1.9604  0.1718  1.2905
 2183TIP3   OH227963   4.743   4.105  15.091 -0.4065 -0.0415 -0.0545
 2183TIP3    H127964   4.821   4.060  15.059 -0.8488  0.0739 -1.3300
 2183TIP3    H227965   4.722   4.169  15.023 -1.5767 -0.0159  0.3128
 2184TIP3   OH227966   2.726   4.333   3.151 -0.4036 -0.1440 -0.2766
 2184TIP3    H127967   2.736   4.275   3.227  0.4895 -0.0899 -0.3410
 2184TIP3    H227968   2.732   4.421   3.188 -0.1960 -0.1145 -0.3807
 2185TIP3   OH227969   3.926   4.038  11.991  0.1305 -0.2434  0.1268
 2185TIP3    H127970   4.002   4.095  11.982 -0.2539 -0.0939 -2.9701
 2185TIP3    H227971   3.851   4.095  11.976 -0.2765 -1.3298 -2.4979
 2186TIP3   OH227972   2.459   5.405   0.080 -0.3886 -0.0575  0.5795
 2186TIP3    H127973   2.512   5.327   0.062  0.5449  0.3251  1.5500
 2186TIP3    H227974   2.370   5.380   0.055 -0.0494 -1.3157  0.5591
 2187TIP3   OH227975   4.056   2.183   4.818  0.3292 -0.2017  0.3920
 2187TIP3    H127976   4.145   2.176   4.785  0.2126 -0.1391  0.0617
 2187TIP3    H227977   4.048   2.274   4.848 -0.1180  0.2688 -1.0440
 2188TIP3   OH227978   6.468   0.987  14.617  0.0949  0.0705  0.0533
 2188TIP3    H127979   6.380   0.998  14.654 -0.3104  0.4564 -0.9694
 2188TIP3    H227980   6.482   0.892  14.617  0.3434  0.0795  1.6681
 2189TIP3   OH227981   3.961   1.620  12.030 -1.0671 -0.0309 -0.1358
 2189TIP3    H127982   4.032   1.558  12.015  0.1857  1.0596  0.9493
 2189TIP3    H227983   3.950   1.621  12.126  0.5693  3.0427  0.1321
 2190TIP3   OH227984   3.698   3.094  10.793  0.1985 -0.1407  0.2287
 2190TIP3    H127985   3.744   3.164  10.747 -0.5433 -0.1596 -0.5612
 2190TIP3    H227986   3.613   3.087  10.748 -0.2209 -0.7136  1.0794
 2191TIP3   OH227987   1.688   4.217   0.311  0.1689 -0.1926 -0.9105
 2191TIP3    H127988   1.656   4.239   0.224 -1.3633  1.5770  0.0137
 2191TIP3    H227989   1.707   4.302   0.351  1.6117 -1.0092  0.2261
 2192TIP3   OH227990   1.479   5.377   6.322 -0.1520  0.2629 -0.2246
 2192TIP3    H127991   1.557   5.338   6.361  0.2084  1.1612 -0.0302
 2192TIP3    H227992   1.425   5.402   6.397  0.1791  1.2535 -0.2981
 2193TIP3   OH227993   2.891   1.651   4.507 -0.4548 -0.4832  0.0963
 2193TIP3    H127994   2.938   1.731   4.529 -1.8146 -0.1175  1.8988
 2193TIP3    H227995   2.808   1.659   4.553 -1.9049 -1.5510 -2.1453
 2194TIP3   OH227996   5.940   2.235  15.879 -0.2700  0.0828 -0.0168
 2194TIP3    H127997   5.978   2.168  15.935 -0.7513  0.5415  0.8795
 2194TIP3    H227998   5.905   2.187  15.804  0.3166 -0.5436  0.1083
 2195TIP3   OH227999   3.421   3.465   3.181  0.6005 -0.4837 -0.2480
 2195TIP3    H128000   3.402   3.529   3.112 -1.9202  0.1563  0.9090
 2195TIP3    H228001   3.346   3.407   3.182  2.1309 -2.5758 -0.2059
 2196TIP3   OH228002   6.403   5.943  12.146 -0.6002 -0.4451  0.6744
 2196TIP3    H128003   6.311   5.961  12.163 -0.4501  0.6642  0.3674
 2196TIP3    H228004   6.436   6.022  12.104  0.5921 -0.6655  1.1481
 2197TIP3   OH228005   3.360   3.178  17.035 -0.1453 -0.0944  0.1900
 2197TIP3    H128006   3.441   3.189  17.085 -0.6992  0.3232  1.0242
 2197TIP3    H228007   3.376   3.101  16.981  0.7846 -0.0547  0.3799
 2198TIP3   OH228008   2.633   5.213   5.922 -0.0625  0.1530  0.2009
 2198TIP3    H128009   2.650   5.272   5.848 -0.7615 -0.3444 -0.3787
 2198TIP3    H228010   2.715   5.164   5.932  0.3511  0.8668  0.3639
 2199TIP3   OH228011   1.141   1.586  15.225  0.3710  0.2815 -0.1009
 2199TIP3    H128012   1.071   1.568  15.163  0.2791 -1.6301  0.4867
 2199TIP3    H228013   1.203   1.641  15.177 -0.1636 -0.3504 -1.5621
 2200TIP3   OH228014   2.744   2.237  11.884 -0.0259 -0.1655 -0.6849
 2200TIP3    H128015   2.826   2.238  11.934 -0.5434 -0.6166  0.2069
 2200TIP3    H228016   2.675   2.244  11.950 -0.7118  0.6149 -1.4490
 2201TIP3   OH228017   6.349   3.339  13.289  0.0970 -0.5394  0.0407
 2201TIP3    H128018   6.302   3.259  13.264  1.3960 -1.7618  1.3713
 2201TIP3    H228019   6.438   3.327  13.256  0.0087  0.9539 -0.8582
 2202TIP3   OH228020   5.339   5.006   0.229 -0.0150 -0.2138 -0.0481
 2202TIP3    H128021   5.280   5.066   0.184 -1.2256 -1.3921 -0.1013
 2202TIP3    H228022   5.373   4.949   0.160  0.0038 -0.5015  0.1937
 2203TIP3   OH228023   0.812   5.066  11.507  0.3592 -0.1811 -0.1041
 2203TIP3    H128024   0.848   4.988  11.549 -0.6661 -0.5577  0.1177
 2203TIP3    H228025   0.726   5.078  11.548  0.7202  1.3946  0.2518
 2204TIP3   OH228026   0.669   6.444  15.035  0.4276  0.1753  0.0445
 2204TIP3    H128027   0.593   6.502  15.020  0.9688  0.8796 -0.0244
 2204TIP3    H228028   0.729   6.465  14.963  0.1376 -1.3328 -0.6788
 2205TIP3   OH228029   1.980   3.228   1.857  0.0764  0.6927 -0.0491
 2205TIP3    H128030   2.074   3.210   1.866  0.3664  2.2701  0.2988
 2205TIP3    H228031   1.974   3.323   1.854 -1.4265  0.5923 -1.2320
 2206TIP3   OH228032   6.595   2.815   5.672 -0.3927  0.0522 -0.5589
 2206TIP3    H128033   6.629   2.755   5.739  1.0073  0.1601 -1.1494
 2206TIP3    H228034   6.603   2.767   5.590  0.1246  0.7995 -0.9523
 2207TIP3   OH228035   3.905   5.920  15.314 -0.1242  0.2836  0.1254
 2207TIP3    H128036   3.813   5.896  15.302 -0.1776  0.9041 -0.8033
 2207TIP3    H228037   3.901   5.996  15.372 -0.2096  0.3803 -0.0044
 2208TIP3   OH228038   0.498   6.514  13.182  0.0413 -0.2669  0.1604
 2208TIP3    H128039   0.481   6.574  13.109 -1.0870  0.6964  1.1927
 2208TIP3    H228040   0.591   6.492  13.173  0.4048  1.3796 -0.4349
 2209TIP3   OH228041   0.858   2.557  16.398  0.0392  0.2089  0.3874
 2209TIP3    H128042   0.782   2.553  16.456  0.0992 -0.5964  0.4268
 2209TIP3    H228043   0.923   2.606  16.447 -0.3582  0.6572  0.4705
 2210TIP3   OH228044   1.635   4.616   1.532 -0.2383 -0.1187  0.9036
 2210TIP3    H128045   1.612   4.676   1.461 -2.0573  0.0100  1.5696
 2210TIP3    H228046   1.691   4.668   1.589  1.8057 -0.4081 -0.6839
 2211TIP3   OH228047   4.029   5.631  13.125 -0.3651  0.2439 -0.3609
 2211TIP3    H128048   4.110   5.583  13.140 -0.8151 -0.7386 -1.0180
 2211TIP3    H228049   4.011   5.674  13.209  0.5880  0.1102 -0.0797
 2212TIP3   OH228050   1.267   4.777  15.140 -1.1230 -0.0247 -0.4692
 2212TIP3    H128051   1.298   4.732  15.218  0.5390  1.9321  0.0784
 2212TIP3    H228052   1.337   4.766  15.075 -1.2789  0.6098 -0.7650
 2213TIP3   OH228053   6.769   5.941   4.782 -0.3308 -0.4414 -0.4783
 2213TIP3    H128054   6.796   5.964   4.871 -2.5904  0.4575  0.0499
 2213TIP3    H228055   6.835   5.878   4.752  1.7526  0.9265  0.9461
 2214TIP3   OH228056   4.690   1.153   3.625 -0.2727 -0.1780 -0.2403
 2214TIP3    H128057   4.657   1.240   3.605  0.9365  0.5808  0.8933
 2214TIP3    H228058   4.769   1.169   3.677  0.9282 -1.9269 -1.4384
 2215TIP3   OH228059   1.176   4.987   0.942 -0.3289 -0.3695 -0.6477
 2215TIP3    H128060   1.247   5.052   0.943 -0.0117 -0.6948 -1.2711
 2215TIP3    H228061   1.141   4.988   1.031  0.0513  0.2434 -0.4971
 2216TIP3   OH228062   3.852   6.570  12.570  0.1291 -0.2197  0.4746
 2216TIP3    H128063   3.814   6.551  12.485 -2.5259  0.6507  1.3858
 2216TIP3    H228064   3.947   6.566  12.555 -0.1974  1.2911 -2.8328
 2217TIP3   OH228065   3.364   5.883   0.424 -0.6452 -1.2636 -0.1157
 2217TIP3    H128066   3.338   5.915   0.510  0.5921 -1.8855  0.5194
 2217TIP3    H228067   3.406   5.958   0.382  1.6190 -1.7544  1.0935
 2218TIP3   OH228068   3.382   3.941   2.651 -0.6369  0.3086 -0.1101
 2218TIP3    H128069   3.443   4.015   2.661  1.8952 -1.7800  1.0412
 2218TIP3    H228070   3.409   3.899   2.569  0.6713 -1.5619  1.2010
 2219TIP3   OH228071   0.061   4.752   5.853 -0.9197  0.1511 -0.1261
 2219TIP3    H128072   0.074   4.833   5.903  0.0901 -0.1184  0.0581
 2219TIP3    H228073   0.105   4.684   5.904 -0.8957 -0.3380 -0.7847
 2220TIP3   OH228074   1.852   1.068   5.502 -0.3938  0.4350  0.1656
 2220TIP3    H128075   1.891   1.155   5.493 -1.3738  1.4074  3.8212
 2220TIP3    H228076   1.762   1.085   5.529 -0.2667 -1.6770  2.1987
 2221TIP3   OH228077   2.765   4.427  10.531  0.6741 -0.0856  0.0657
 2221TIP3    H128078   2.776   4.337  10.502  1.2875  0.0958 -0.2729
 2221TIP3    H228079   2.775   4.423  10.626  0.7570 -0.3594  0.0464
 2222TIP3   OH228080   5.982   0.017   3.683 -0.4263  0.3311  0.0922
 2222TIP3    H128081   5.959   0.110   3.672 -4.0642 -0.3302  0.7996
 2222TIP3    H228082   6.038   0.016   3.761  1.5238  2.0757 -1.1721
 2223TIP3   OH228083   6.341   4.872  13.495  0.1513 -0.0822  0.0193
 2223TIP3    H128084   6.401   4.925  13.547 -0.1288 -0.0486  0.3158
 2223TIP3    H228085   6.379   4.871  13.407  2.1814 -2.5046  0.8176
 2224TIP3   OH228086   2.098   5.649   4.629  0.1554  0.6987  0.1797
 2224TIP3    H128087   2.174   5.660   4.572 -1.0887  0.2783 -1.6288
 2224TIP3    H228088   2.131   5.600   4.705  1.8068  1.1114 -0.2403
 2225TIP3   OH228089   3.653   5.719   0.668 -0.3073  0.8381 -0.2871
 2225TIP3    H128090   3.746   5.729   0.646  0.0105 -0.2584  0.4469
 2225TIP3    H228091   3.641   5.771   0.747 -0.8626  2.7580 -1.5771
 2226TIP3   OH228092   1.205   4.822  13.503 -0.2261 -0.0315 -0.2826
 2226TIP3    H128093   1.118   4.783  13.489 -0.9735  1.0332  1.0825
 2226TIP3    H228094   1.266   4.757  13.468 -1.5918 -0.2966 -2.3550
 2227TIP3   OH228095   1.940   2.686   6.035  0.0123 -0.4127 -0.3557
 2227TIP3    H128096   1.955   2.780   6.026 -1.4168 -0.1707 -0.5741
 2227TIP3    H228097   1.869   2.667   5.973  0.1471 -1.5915 -0.1741
 2228TIP3   OH228098   0.015   5.372  13.714  0.4208 -0.2198  0.0473
 2228TIP3    H128099  -0.049   5.303  13.731  2.6505 -2.3205  0.4578
 2228TIP3    H228100   0.011   5.385  13.619 -0.2631 -0.7038  0.0030
 2229TIP3   OH228101   0.851   0.028  10.889 -0.1464 -0.0047  0.0769
 2229TIP3    H128102   0.903  -0.052  10.886  0.8595  0.6392 -0.1309
 2229TIP3    H228103   0.874   0.068  10.973 -2.8295 -1.3172  1.5698
 2230TIP3   OH228104   2.984   0.735   1.222  0.6961 -0.0594 -0.0106
 2230TIP3    H128105   2.920   0.802   1.245 -0.2933 -0.9541 -0.0939
 2230TIP3    H228106   3.047   0.736   1.295  1.8272  2.2727 -0.9130
 2231TIP3   OH228107   4.481   2.774  17.191  0.2757 -0.1805 -0.2989
 2231TIP3    H128108   4.519   2.859  17.172 -0.3451 -0.1435 -1.4295
 2231TIP3    H228109   4.474   2.773  17.287 -2.2644  2.2238 -0.3227
 2232TIP3   OH228110   2.105   1.008  12.073 -0.5555  0.2765 -0.1321
 2232TIP3    H128111   2.019   0.979  12.105 -0.1661 -2.0004 -0.9557
 2232TIP3    H228112   2.159   0.929  12.075  1.2039  1.3999 -0.7406
 2233TIP3   OH228113   2.991   1.950  14.362 -0.6661 -0.1963  0.2181
 2233TIP3    H128114   2.996   2.036  14.320 -1.8075 -0.7893 -1.2366
 2233TIP3    H228115   2.999   1.888  14.289  1.1865 -1.3706  1.3548
 2234TIP3   OH228116   1.461   5.277  15.261  0.6667  0.1841  0.0875
 2234TIP3    H128117   1.426   5.191  15.239 -0.0892  0.6289 -0.5366
 2234TIP3    H228118   1.497   5.267  15.349  0.6858 -0.7889 -0.0228
 2235TIP3   OH228119   3.564   3.726  13.370 -0.1450 -0.3895 -0.0507
 2235TIP3    H128120   3.564   3.778  13.450  1.9476  0.0129 -0.2642
 2235TIP3    H228121   3.548   3.788  13.300  0.1805 -0.3912 -0.1264
 2236TIP3   OH228122   1.210   3.309   3.991  0.1180 -0.6174 -0.2958
 2236TIP3    H128123   1.191   3.241   3.926  1.4379 -0.3628 -0.9736
 2236TIP3    H228124   1.139   3.373   3.981  0.6942 -0.2093 -2.0157
 2237TIP3   OH228125   0.279   1.410   5.174  0.4002 -0.3749  0.0173
 2237TIP3    H128126   0.289   1.324   5.213  1.9177  0.2002  0.9988
 2237TIP3    H228127   0.365   1.431   5.139  1.0596  2.0387  2.6737
 2238TIP3   OH228128   6.596   4.527  11.698  0.2800  0.4951 -0.7034
 2238TIP3    H128129   6.688   4.523  11.671  1.0577 -0.5906  1.8715
 2238TIP3    H228130   6.598   4.556  11.789 -1.9533  0.4492 -0.5745
 2239TIP3   OH228131   5.026   1.220  11.412  0.2685  0.3293 -0.2892
 2239TIP3    H128132   5.037   1.303  11.459 -0.1010  0.0017  0.4023
 2239TIP3    H228133   5.087   1.160  11.456  0.6377  0.2727 -0.8782
 2240TIP3   OH228134   6.212   0.161  17.107  0.6900 -0.1138  0.1661
 2240TIP3    H128135   6.187   0.088  17.051  2.6768 -0.3998 -0.4337
 2240TIP3    H228136   6.264   0.121  17.177  0.3455  0.5436  0.8214
 2241TIP3   OH228137   4.775   4.262   2.810 -0.3129  0.1986  0.5163
 2241TIP3    H128138   4.824   4.235   2.732 -0.5571  2.4767 -0.5135
 2241TIP3    H228139   4.839   4.310   2.863 -0.2110 -1.1274  1.6851
 2242TIP3   OH228140   3.703   2.193   3.425 -0.0293  0.2876  0.1133
 2242TIP3    H128141   3.680   2.187   3.333 -0.4761 -1.4588  0.2977
 2242TIP3    H228142   3.637   2.140   3.470 -0.4977  2.0349  1.5749
 2243TIP3   OH228143   4.627   3.162   0.614 -0.3135 -0.0056 -0.1479
 2243TIP3    H128144   4.557   3.224   0.593 -0.2719  0.1971  0.3236
 2243TIP3    H228145   4.699   3.188   0.556 -0.5675 -0.1173 -0.5238
 2244TIP3   OH228146   2.570   1.703   0.704 -0.0256 -0.5948 -0.5064
 2244TIP3    H128147   2.604   1.771   0.646 -1.3457  0.9186  0.3906
 2244TIP3    H228148   2.570   1.623   0.652  1.2879  0.1432 -1.6984
 2245TIP3   OH228149   3.615   6.688  14.179 -0.3803  0.3679  0.4720
 2245TIP3    H128150   3.664   6.685  14.261  1.7882 -0.2611 -0.7517
 2245TIP3    H228151   3.614   6.597  14.149 -0.0936  0.7420 -0.7417
 2246TIP3   OH228152   1.214   4.702  15.710 -0.6040 -0.2253 -0.3167
 2246TIP3    H128153   1.300   4.683  15.748  0.6172  0.5920 -2.4481
 2246TIP3    H228154   1.174   4.616  15.696 -0.2446 -0.6045  0.9088
 2247TIP3   OH228155   2.024   5.865  16.486  0.0354 -0.4095 -0.2891
 2247TIP3    H128156   2.089   5.879  16.418 -1.8954  2.6913 -1.6901
 2247TIP3    H228157   1.940   5.883  16.444 -1.5831 -1.8160  2.0710
 2248TIP3   OH228158   1.250   1.148   0.822  0.2370  0.0675 -0.0205
 2248TIP3    H128159   1.160   1.121   0.840  0.5646 -1.5111 -0.5516
 2248TIP3    H228160   1.259   1.233   0.865 -1.3385  0.0069  0.4900
 2249TIP3   OH228161   5.827   6.182  15.948  0.1162 -0.3461  0.5163
 2249TIP3    H128162   5.795   6.222  16.029 -1.3971  2.7590 -1.4271
 2249TIP3    H228163   5.765   6.110  15.931 -0.8896  0.3883  0.9899
 2250TIP3   OH228164   2.892   3.672   6.125 -0.2685  0.2678  0.3235
 2250TIP3    H128165   2.911   3.750   6.177 -0.0225  0.0753  0.5232
 2250TIP3    H228166   2.842   3.616   6.183 -0.9391  0.5173 -0.0074
 2251TIP3   OH228167   4.723   5.183   4.667 -0.4185  0.3643 -0.8780
 2251TIP3    H128168   4.806   5.144   4.639  0.1896  0.9722  0.0137
 2251TIP3    H228169   4.666   5.177   4.591  1.4411  2.7822 -2.6089
 2252TIP3   OH228170   5.549   4.830   4.373  0.3081  0.1508 -0.3449
 2252TIP3    H128171   5.520   4.740   4.384 -2.7849  1.3068  2.8245
 2252TIP3    H228172   5.496   4.865   4.302 -1.3713  0.4276  0.9916
 2253TIP3   OH228173   2.180   2.738   3.959 -0.1231 -0.0069 -0.6372
 2253TIP3    H128174   2.156   2.781   4.041  0.0698  1.9985 -1.5690
 2253TIP3    H228175   2.119   2.664   3.951 -0.4800  0.0765  1.0210
 2254TIP3   OH228176   6.191   3.892   2.249  0.6750  0.6041 -0.0285
 2254TIP3    H128177   6.166   3.800   2.262  0.9692  0.4825 -0.3132
 2254TIP3    H228178   6.141   3.939   2.316 -0.4668  0.3965 -0.6989
 2255TIP3   OH228179   5.373   3.768   3.952  0.1268  0.6426 -0.1056
 2255TIP3    H128180   5.378   3.708   4.026 -2.0811 -1.6325 -1.6396
 2255TIP3    H228181   5.309   3.834   3.978  2.5059  2.4774  1.5576
 2256TIP3   OH228182   4.523   5.408  13.178  0.2638 -0.5342  0.6244
 2256TIP3    H128183   4.572   5.485  13.148 -0.3682 -0.1461  0.5656
 2256TIP3    H228184   4.583   5.364  13.239  1.0059 -0.5463 -0.1001
 2257TIP3   OH228185   5.272   5.248   5.007  0.0116  0.0482  0.1278
 2257TIP3    H128186   5.326   5.321   5.038  1.1696 -1.1242  0.9736
 2257TIP3    H228187   5.182   5.278   5.020  0.4101  2.0023 -1.2083
 2258TIP3   OH228188   4.541   3.151  16.444 -0.7280 -0.2068  0.1915
 2258TIP3    H128189   4.451   3.174  16.422 -1.2406  0.2015  2.4423
 2258TIP3    H228190   4.545   3.158  16.539  1.8285  0.2469  0.1299
 2259TIP3   OH228191   3.872   3.334   0.260  0.0499  0.2434  0.0854
 2259TIP3    H128192   3.963   3.330   0.230  0.5001  0.4500  1.3519
 2259TIP3    H228193   3.833   3.251   0.231  0.6549  0.1237 -0.4079
 2260TIP3   OH228194   1.420   4.597  15.858  0.3290  0.2607 -0.0037
 2260TIP3    H128195   1.374   4.536  15.915  0.4337 -0.4823 -0.6937
 2260TIP3    H228196   1.492   4.631  15.911  0.3788 -0.3631  0.3296
 2261TIP3   OH228197   3.957   1.940   4.895 -0.1517  0.1786 -0.3257
 2261TIP3    H128198   3.970   2.032   4.873 -0.6912  0.0969 -1.0231
 2261TIP3    H228199   3.862   1.929   4.899 -0.0886  0.0002  1.3133
 2262TIP3   OH228200   1.525   6.090   1.166 -0.1025 -0.3978 -0.1287
 2262TIP3    H128201   1.440   6.055   1.194  0.3354 -2.5678 -1.2999
 2262TIP3    H228202   1.503   6.163   1.108 -1.1342 -0.3471  0.3051
 2263TIP3   OH228203   5.022   2.787  11.497  0.5302  0.1495 -0.6036
 2263TIP3    H128204   4.956   2.771  11.565  1.3396 -2.9427 -0.4018
 2263TIP3    H228205   4.989   2.743  11.419  2.1617 -1.2565 -0.5664
 2264TIP3   OH228206   3.633   2.977  15.829 -0.6924 -0.4867  0.3531
 2264TIP3    H128207   3.578   2.915  15.878 -1.9358  0.4793  0.2409
 2264TIP3    H228208   3.694   2.922  15.781 -0.3081 -1.5260  1.9543
 2265TIP3   OH228209   1.917   2.606  15.539  0.1354  0.1673  0.4698
 2265TIP3    H128210   1.894   2.514  15.525 -0.7955  0.5211 -0.4931
 2265TIP3    H228211   1.853   2.637  15.603 -1.1857  0.7612 -1.0733
 2266TIP3   OH228212   5.414   0.955   6.193  0.0804 -0.3548  0.1414
 2266TIP3    H128213   5.449   1.044   6.188 -0.1829 -0.2733 -0.3959
 2266TIP3    H228214   5.417   0.932   6.286  0.6283  0.0206  0.2191
 2267TIP3   OH228215   2.464   3.514   3.814 -0.3565  0.0855 -0.9671
 2267TIP3    H128216   2.554   3.543   3.827 -0.5000  0.3400 -0.5211
 2267TIP3    H228217   2.419   3.591   3.777 -0.4022 -0.0282 -1.1522
 2268TIP3   OH228218   6.568   3.967   1.768 -0.3556 -0.3739 -0.0939
 2268TIP3    H128219   6.599   3.966   1.858 -2.2712 -0.4885  0.6154
 2268TIP3    H228220   6.616   4.038   1.726 -2.1651  2.3276  2.0931
 2269TIP3   OH228221   3.350   1.238   2.065  0.0511  0.0113  0.2739
 2269TIP3    H128222   3.270   1.257   2.114 -0.7167  1.5920 -1.4814
 2269TIP3    H228223   3.406   1.192   2.128 -1.8927 -0.3980  1.7918
 2270TIP3   OH228224   5.036   4.971  13.071 -0.5317  0.4161  0.7500
 2270TIP3    H128225   5.095   5.043  13.092 -0.7710  0.1819  2.3536
 2270TIP3    H228226   4.959   4.985  13.126  0.6058 -2.5913  3.4309
 2271TIP3   OH228227   1.526   4.201   1.964  0.2407 -0.1102  0.2389
 2271TIP3    H128228   1.605   4.250   1.941 -1.4177  2.3443 -0.6438
 2271TIP3    H228229   1.531   4.190   2.059  1.0248  1.1753  0.3652
 2272TIP3   OH228230   2.015   4.524  13.056  0.1125 -0.1648  0.2171
 2272TIP3    H128231   2.063   4.570  13.125  1.1083 -0.3635 -0.3182
 2272TIP3    H228232   2.050   4.560  12.975  1.5486 -2.4239 -0.2457
 2273TIP3   OH228233   2.950   1.083   5.962  0.2291 -0.4245 -0.2565
 2273TIP3    H128234   2.998   1.003   5.987  1.3692  0.5021  0.6633
 2273TIP3    H228235   2.876   1.086   6.023  0.3977 -0.5926 -0.0396
 2274TIP3   OH228236   2.071   0.476   5.819 -0.1460  0.0882  0.2118
 2274TIP3    H128237   2.014   0.414   5.865 -0.7140 -0.2759 -0.9371
 2274TIP3    H228238   2.053   0.561   5.860 -2.8912  0.3314 -1.2438
 2275TIP3   OH228239   6.312   1.290   3.077 -0.8921  0.1740  0.8323
 2275TIP3    H128240   6.276   1.243   3.002  1.5342 -2.6677  1.2488
 2275TIP3    H228241   6.328   1.222   3.143  2.0588  1.6528  1.8184
 2276TIP3   OH228242   1.848   5.640  11.066 -0.1689  0.2611 -0.2945
 2276TIP3    H128243   1.755   5.619  11.058  0.0061 -1.6168  1.5794
 2276TIP3    H228244   1.850   5.716  11.125 -0.5201  0.0266  0.0279
 2277TIP3   OH228245   4.388   3.679  15.124  0.0672  0.1586 -0.1214
 2277TIP3    H128246   4.437   3.614  15.175 -0.1564  1.5344  1.9551
 2277TIP3    H228247   4.454   3.744  15.099 -0.0624  0.1594 -0.4609
 2278TIP3   OH228248   3.977   3.910  16.692  0.0693  0.5333 -0.0163
 2278TIP3    H128249   4.026   3.980  16.647 -0.8082  1.8414  0.9828
 2278TIP3    H228250   4.029   3.891  16.770  0.1308  0.3257 -0.1090
 2279TIP3   OH228251   5.120   4.958   5.662  0.2795  0.2284 -0.1861
 2279TIP3    H128252   5.193   4.910   5.701  1.3371  0.6483 -1.5623
 2279TIP3    H228253   5.140   5.050   5.681 -0.6079  0.2752  0.5797
 2280TIP3   OH228254   1.718   2.398   0.883  0.5310 -0.1060 -0.1602
 2280TIP3    H128255   1.629   2.424   0.904  0.3564 -0.0846 -0.8839
 2280TIP3    H228256   1.741   2.454   0.808  1.3464  0.2781  0.3641
 2281TIP3   OH228257   5.870   1.270   3.288  0.1073  0.3433 -0.4265
 2281TIP3    H128258   5.845   1.270   3.196  0.3093  0.4309 -0.4807
 2281TIP3    H228259   5.800   1.319   3.332 -0.6464 -0.7698 -0.3535
 2282TIP3   OH228260   1.232   2.383  15.232  0.3917 -0.1657  0.4402
 2282TIP3    H128261   1.264   2.364  15.143  2.1561 -1.8755  1.3594
 2282TIP3    H228262   1.157   2.325  15.243 -0.8110  1.1679 -0.4295
 2283TIP3   OH228263   5.682   2.748  15.187 -0.3206  0.3079  0.0799
 2283TIP3    H128264   5.768   2.785  15.170  1.3827 -2.9644  0.7362
 2283TIP3    H228265   5.679   2.736  15.282 -0.4743 -1.6534 -0.1216
 2284TIP3   OH228266   6.149   0.451  16.457  0.0526 -0.0323  0.8788
 2284TIP3    H128267   6.080   0.498  16.503  0.6712  3.2502 -1.1888
 2284TIP3    H228268   6.111   0.429  16.372  0.3054 -1.9460  1.2283
 2285TIP3   OH228269   5.375   0.604   4.260  0.1899 -0.2608  0.1491
 2285TIP3    H128270   5.432   0.547   4.210  1.7868  2.0003 -0.7726
 2285TIP3    H228271   5.288   0.565   4.251  1.1049 -2.2207 -0.8316
 2286TIP3   OH228272   6.409   4.804  12.050 -0.0249 -0.0265 -0.0169
 2286TIP3    H128273   6.440   4.770  12.134  2.5085  0.0463 -0.8538
 2286TIP3    H228274   6.365   4.886  12.072 -0.9707 -0.8672  1.3895
 2287TIP3   OH228275   1.632   5.569  12.786  0.3290 -0.0399 -0.2019
 2287TIP3    H128276   1.569   5.511  12.743 -0.3183 -0.6789  1.4943
 2287TIP3    H228277   1.717   5.529  12.770  0.1638 -0.0312 -1.1972
 2288TIP3   OH228278   1.678   1.011  16.022  0.0634  0.2687  0.0065
 2288TIP3    H128279   1.729   1.031  15.944 -0.4702 -0.0305 -0.4219
 2288TIP3    H228280   1.713   0.927  16.052 -0.7078 -0.3444 -0.7531
 2289TIP3   OH228281   3.003   4.108   5.855 -0.3860  0.6488 -0.2030
 2289TIP3    H128282   2.912   4.113   5.826 -1.1903 -0.3841  1.8782
 2289TIP3    H228283   3.031   4.199   5.865 -1.2911  0.9746 -0.5812
 2290TIP3   OH228284   1.644   2.627  15.718 -0.9604  0.1342  0.2715
 2290TIP3    H128285   1.568   2.591  15.672  0.1461  0.3148 -1.8192
 2290TIP3    H228286   1.657   2.713  15.679  0.8662 -0.2723 -0.1034
 2291TIP3   OH228287   0.277   3.247  11.505 -0.6375 -0.2592  0.0274
 2291TIP3    H128288   0.234   3.218  11.425 -1.6330  0.5649  0.2456
 2291TIP3    H228289   0.222   3.318  11.537 -0.1185 -0.4198  1.3182
 2292TIP3   OH228290   2.812   5.204  11.047 -0.5571 -0.3166  0.4537
 2292TIP3    H128291   2.896   5.228  11.008 -0.9005  0.7137  0.2959
 2292TIP3    H228292   2.810   5.253  11.130  0.3676 -2.8240  2.0591
 2293TIP3   OH228293   1.736   5.326   5.811  0.0271 -0.5547  0.2335
 2293TIP3    H128294   1.789   5.280   5.747  0.3378 -0.8785  0.7137
 2293TIP3    H228295   1.799   5.375   5.864 -0.4485  2.9789 -2.1489
 2294TIP3   OH228296   6.306   0.385  11.838  0.1618 -0.1258  0.2316
 2294TIP3    H128297   6.372   0.446  11.870  1.3482 -0.0875 -2.0822
 2294TIP3    H228298   6.351   0.301  11.834 -0.7253 -0.6619  1.0366
 2295TIP3   OH228299   5.408   5.940   2.000  0.6177  0.0822 -0.5149
 2295TIP3    H128300   5.491   5.930   1.952  1.0582  1.6143 -0.1243
 2295TIP3    H228301   5.407   6.032   2.026 -0.4883 -0.2893  0.8277
 2296TIP3   OH228302   1.728   5.884  13.101  0.2148 -0.3849 -0.4395
 2296TIP3    H128303   1.709   5.800  13.142 -1.9262 -0.8661 -2.2704
 2296TIP3    H228304   1.668   5.945  13.143  0.6799 -0.0830 -0.2077
 2297TIP3   OH228305   1.495   2.624   4.742 -0.2960  0.2134 -0.1723
 2297TIP3    H128306   1.431   2.668   4.685 -0.2608  0.1557 -0.2556
 2297TIP3    H228307   1.442   2.562   4.792 -0.6000  1.4432  1.0764
 2298TIP3   OH228308   2.105   3.954  16.120 -0.0251 -0.3204  0.3426
 2298TIP3    H128309   2.153   4.037  16.119 -0.1795 -0.1968  1.6157
 2298TIP3    H228310   2.168   3.891  16.155 -0.3396 -0.4666  0.6392
 2299TIP3   OH228311   1.406   4.921  16.600 -0.5021 -0.5416 -0.0875
 2299TIP3    H128312   1.416   4.922  16.504 -2.0338 -2.0896 -0.3124
 2299TIP3    H228313   1.354   4.999  16.619 -2.2977 -1.5106 -0.8398
 2300TIP3   OH228314   5.647   1.993   3.816  0.5484  0.2888 -0.1259
 2300TIP3    H128315   5.697   1.972   3.737 -1.6134 -0.3098 -1.4381
 2300TIP3    H228316   5.556   1.981   3.790 -0.3373  1.7971  1.9944
 2301TIP3   OH228317   3.526   2.633  11.479 -0.1942 -0.1989  0.2193
 2301TIP3    H128318   3.508   2.633  11.385 -0.0147  0.5426  0.1815
 2301TIP3    H228319   3.443   2.607  11.519 -0.1471 -0.9690 -0.1576
 2302TIP3   OH228320   3.282   1.933  14.966  0.1707  0.0255 -0.0452
 2302TIP3    H128321   3.319   1.856  14.924 -0.8092  0.1254 -1.1380
 2302TIP3    H228322   3.262   1.905  15.055  1.2361 -0.5209  0.0399
 2303TIP3   OH228323   5.569   6.761  14.404 -0.3437 -0.0679  0.5696
 2303TIP3    H128324   5.624   6.687  14.428 -1.4766 -1.0028  0.3525
 2303TIP3    H228325   5.630   6.826  14.370  0.7631 -0.5719  1.5091
 2304TIP3   OH228326   6.335   5.834  15.488 -0.4024  0.5508  0.2010
 2304TIP3    H128327   6.280   5.904  15.451  0.5914  2.0709  1.4903
 2304TIP3    H228328   6.299   5.820  15.575 -0.1817 -0.1139  0.1867
 2305TIP3   OH228329   0.334   3.965  13.720  0.7608  0.3443  0.3629
 2305TIP3    H128330   0.299   4.050  13.695 -2.3375 -1.4235 -1.9807
 2305TIP3    H228331   0.354   3.922  13.637  1.8759 -1.3725  1.4586
 2306TIP3   OH228332   4.405   5.768   0.646 -0.5794  0.6078  0.3642
 2306TIP3    H128333   4.378   5.854   0.612  0.0248  0.1143 -1.4393
 2306TIP3    H228334   4.404   5.710   0.570  3.3783  0.0130  0.5749
 2307TIP3   OH228335   0.321   2.854   3.017 -0.4701 -0.6476 -0.2538
 2307TIP3    H128336   0.236   2.810   3.014 -0.4009 -0.8958  0.8041
 2307TIP3    H228337   0.342   2.858   3.111 -0.3023  1.2968 -0.3291
 2308TIP3   OH228338   4.253   2.450   0.289  0.0315  0.1888 -0.1094
 2308TIP3    H128339   4.299   2.368   0.304  0.4391  0.0169 -2.0655
 2308TIP3    H228340   4.285   2.480   0.204 -2.0601  1.0302 -0.6516
 2309TIP3   OH228341   2.850   6.130  12.153  0.6408  0.3328 -0.2437
 2309TIP3    H128342   2.821   6.102  12.067  0.3249 -0.1740  0.0228
 2309TIP3    H228343   2.873   6.222  12.142  0.7597  0.2298 -0.9049
 2310TIP3   OH228344   1.252   6.144  14.026 -0.0600 -0.1937 -0.1644
 2310TIP3    H128345   1.166   6.128  14.065 -0.9713  1.1045 -1.5652
 2310TIP3    H228346   1.308   6.169  14.100 -0.7214 -1.5581  0.8377
 2311TIP3   OH228347   2.797   3.697   1.929  0.0385 -0.1179 -0.0765
 2311TIP3    H128348   2.705   3.713   1.911 -0.0526 -0.4467  0.0927
 2311TIP3    H228349   2.801   3.680   2.023  0.5194  1.6817  0.2599
 2312TIP3   OH228350   3.423   4.911   5.743  0.1826  0.0852 -0.6005
 2312TIP3    H128351   3.358   4.925   5.675  0.6200 -0.8555 -1.2338
 2312TIP3    H228352   3.380   4.853   5.806 -0.3391  1.2231  0.1191
 2313TIP3   OH228353   2.089   3.836  11.016  0.3126  0.2043  0.0225
 2313TIP3    H128354   2.034   3.804  11.088 -1.4981 -0.1903 -1.4511
 2313TIP3    H228355   2.071   3.776  10.944  4.1029 -1.0462 -0.0804
 2314TIP3   OH228356   3.795   5.275  12.605  0.2496  0.0966  0.3298
 2314TIP3    H128357   3.834   5.264  12.691 -0.0563 -0.3339  0.4129
 2314TIP3    H228358   3.740   5.353  12.613 -0.2352 -0.2805  0.6893
 2315TIP3   OH228359   5.889   4.933  11.652 -0.6618  0.3908  0.2205
 2315TIP3    H128360   5.966   4.989  11.641  0.1494 -0.9727 -1.4915
 2315TIP3    H228361   5.892   4.872  11.578 -2.9608 -0.2345  0.5581
 2316TIP3   OH228362   3.910   0.103   1.824 -0.1762 -0.4316 -0.0441
 2316TIP3    H128363   3.846   0.164   1.788 -0.7622  0.0113  1.6655
 2316TIP3    H228364   3.984   0.109   1.765 -0.7683  0.8917 -0.7021
 2317TIP3   OH228365   4.427   1.377  11.299 -0.0110  0.3919 -0.0351
 2317TIP3    H128366   4.355   1.414  11.351  0.4085 -0.4817  1.2107
 2317TIP3    H228367   4.383   1.335  11.225 -0.8733 -0.7252  1.0732
 2318TIP3   OH228368   0.967   6.199   2.145 -0.0062 -0.2185 -0.1290
 2318TIP3    H128369   0.981   6.200   2.050  1.1341  1.8625  0.0091
 2318TIP3    H228370   0.941   6.289   2.166  2.0684  0.0226  1.8070
 2319TIP3   OH228371   6.151   2.704  16.624 -0.4384  0.5244 -0.1381
 2319TIP3    H128372   6.172   2.797  16.622  0.6030  0.2878 -0.2833
 2319TIP3    H228373   6.170   2.672  16.536 -0.0920  0.0196  0.1169
 2320TIP3   OH228374   1.698   6.108  12.052  0.2529  0.0563  0.1943
 2320TIP3    H128375   1.659   6.154  12.126  1.0148  0.6643  0.2350
 2320TIP3    H228376   1.691   6.015  12.075 -1.9766  0.0784 -0.2344
 2321TIP3   OH228377   3.709   1.638  10.688  0.4961  0.1177 -0.7365
 2321TIP3    H128378   3.658   1.581  10.745  2.2064 -0.6198  0.1363
 2321TIP3    H228379   3.749   1.579  10.625  1.2513  0.5156 -0.6408
 2322TIP3   OH228380   6.467   5.827  11.612  0.0271  0.2251  0.3881
 2322TIP3    H128381   6.533   5.876  11.563  2.6925 -1.8502  1.6917
 2322TIP3    H228382   6.460   5.873  11.695  0.9502 -0.3575  0.8002
 2323TIP3   OH228383   4.593   6.483  15.245  0.2796 -0.1669  0.3620
 2323TIP3    H128384   4.651   6.479  15.169 -1.4932 -2.1975 -0.9841
 2323TIP3    H228385   4.505   6.481  15.208 -0.6485 -0.3299  2.4639
 2324TIP3   OH228386   4.690   0.711   2.569 -0.2228 -0.0851 -0.1502
 2324TIP3    H128387   4.625   0.734   2.502 -1.4445  1.2317  1.4017
 2324TIP3    H228388   4.749   0.786   2.573 -0.6005  0.1825  0.7253
 2325TIP3   OH228389   1.847   3.580  16.589 -0.3453  0.4626 -0.2130
 2325TIP3    H128390   1.759   3.543  16.599 -0.4922  0.7310 -0.4635
 2325TIP3    H228391   1.884   3.534  16.514 -0.6482  1.0318 -0.7261
 2326TIP3   OH228392   1.306   5.789   0.380  0.7209 -0.2163 -0.0525
 2326TIP3    H128393   1.366   5.827   0.316  2.0569  1.2711  1.9680
 2326TIP3    H228394   1.221   5.828   0.359  0.9878 -0.2843 -1.3182
 2327TIP3   OH228395   6.406   6.573   3.503  0.2273 -0.2067 -0.1774
 2327TIP3    H128396   6.355   6.610   3.574  0.5468 -0.2425  0.0700
 2327TIP3    H228397   6.352   6.501   3.469 -0.0663  0.0174 -0.1846
 2328TIP3   OH228398   0.990   6.072  11.187  0.2584  0.5173  0.0712
 2328TIP3    H128399   1.032   6.115  11.112  0.8636 -0.3448 -0.1072
 2328TIP3    H228400   0.915   6.025  11.148 -0.2157  1.1456  0.2169
 2329TIP3   OH228401   2.715   3.872  15.433 -0.0448 -0.1388 -0.5447
 2329TIP3    H128402   2.760   3.831  15.359  0.6913 -1.3768  0.5471
 2329TIP3    H228403   2.782   3.880  15.500 -1.0846 -0.6154  0.5913
 2330TIP3   OH228404   5.121   0.213  13.865 -0.0216  0.3794 -0.2950
 2330TIP3    H128405   5.158   0.132  13.830 -1.0717 -0.8449  1.2657
 2330TIP3    H228406   5.196   0.273  13.870  0.5429 -0.0084 -2.6605
 2331TIP3   OH228407   2.724   4.130  12.858 -0.5624  0.3985  0.0254
 2331TIP3    H128408   2.694   4.178  12.780 -0.0720  0.3116 -0.2201
 2331TIP3    H228409   2.643   4.109  12.905 -0.7942  1.3756  0.0938
 2332TIP3   OH228410   1.208   6.455  14.226  0.2720  0.0477 -0.2499
 2332TIP3    H128411   1.176   6.383  14.280  2.6897 -0.5873  0.4970
 2332TIP3    H228412   1.298   6.430  14.205  0.3159  1.6228 -2.2444
 2333TIP3   OH228413   0.509   6.214  14.972 -0.3468  0.0904 -0.6967
 2333TIP3    H128414   0.563   6.292  14.990 -0.7331  0.5837 -1.5688
 2333TIP3    H228415   0.420   6.248  14.965 -0.5959 -0.5215 -0.5310
 2334TIP3   OH228416   0.664   1.634  12.827 -0.0847 -0.1878  0.6851
 2334TIP3    H128417   0.630   1.571  12.890 -0.5218 -1.0655 -0.3916
 2334TIP3    H228418   0.697   1.581  12.755 -0.3285  0.7963 -0.1888
 2335TIP3   OH228419   3.404   0.895  14.550  0.2824 -0.6057  0.0922
 2335TIP3    H128420   3.450   0.851  14.623  1.0748 -0.6867 -0.4425
 2335TIP3    H228421   3.320   0.851  14.545  0.5189 -1.1203  0.4771
 2336TIP3   OH228422   5.593   5.826  13.562  0.1129  0.3643  0.2755
 2336TIP3    H128423   5.581   5.814  13.656 -3.3522 -1.3316 -0.2119
 2336TIP3    H228424   5.619   5.917  13.552 -4.1668  2.1547  2.7274
 2337TIP3   OH228425   2.844   6.745   2.350  0.6755  0.3496 -0.2987
 2337TIP3    H128426   2.811   6.817   2.298 -0.4396  0.0007 -0.1085
 2337TIP3    H228427   2.924   6.779   2.391 -0.3727  1.8334  0.6105
 2338TIP3   OH228428   5.699   3.295   3.519 -0.5634 -0.4813 -0.0423
 2338TIP3    H128429   5.793   3.297   3.539 -0.7046  0.9540  0.6390
 2338TIP3    H228430   5.660   3.249   3.593 -0.5035 -0.0850  0.2401
 2339TIP3   OH228431   1.454   2.256   6.463 -0.7358  0.2288  0.0013
 2339TIP3    H128432   1.396   2.320   6.422 -0.2793 -0.4088 -1.7339
 2339TIP3    H228433   1.535   2.304   6.480 -1.0254  0.5721  0.4344
 2340TIP3   OH228434   5.941   3.967  12.046  0.2001 -0.0734  0.1845
 2340TIP3    H128435   5.872   3.926  11.994 -0.3684  0.7686  0.2452
 2340TIP3    H228436   5.981   4.031  11.987  1.1666 -0.7865  0.0430
 2341TIP3   OH228437   1.377   0.949   1.644  0.2464  0.4795 -0.1115
 2341TIP3    H128438   1.449   0.917   1.591 -0.3553  1.2213 -1.4442
 2341TIP3    H228439   1.316   0.876   1.649  0.1718  0.5007 -0.7071
 2342TIP3   OH228440   4.875   2.492   2.638 -0.8061  0.5137 -0.1276
 2342TIP3    H128441   4.936   2.560   2.667  0.0951  0.2130 -1.2557
 2342TIP3    H228442   4.850   2.519   2.549 -2.3232  0.6268  0.3112
 2343TIP3   OH228443   6.318   4.460   1.353  0.3828 -0.2665 -0.4774
 2343TIP3    H128444   6.232   4.483   1.318  0.4071 -0.0884 -0.4201
 2343TIP3    H228445   6.315   4.365   1.363  0.1243 -0.2402 -0.2970
 2344TIP3   OH228446   0.413   0.977  12.066  0.1178  0.0893  0.3057
 2344TIP3    H128447   0.484   0.913  12.064  1.3205  1.3706 -1.6709
 2344TIP3    H228448   0.446   1.048  12.122  0.0165  0.2673  0.1427
 2345TIP3   OH228449   1.982   3.348  16.091 -0.0836  0.5611  0.0673
 2345TIP3    H128450   1.932   3.358  16.172 -0.1893 -1.1910  0.2564
 2345TIP3    H228451   2.056   3.292  16.115  0.3080  0.6567 -0.8702
 2346TIP3   OH228452   2.035   5.755  14.286  0.4985 -0.3403  0.6198
 2346TIP3    H128453   2.075   5.764  14.199 -0.5151  0.6317  0.2251
 2346TIP3    H228454   2.096   5.799  14.345  0.5628  0.1753  0.1845
 2347TIP3   OH228455   4.395   6.007  16.514 -0.2059  0.4130 -0.1619
 2347TIP3    H128456   4.472   5.999  16.457 -0.4630  0.9125 -0.5860
 2347TIP3    H228457   4.322   6.016  16.454 -0.7445 -1.1017  0.2151
 2348TIP3   OH228458   5.382   6.596  15.578  0.2885 -0.1184 -0.1556
 2348TIP3    H128459   5.388   6.509  15.616 -1.8038 -0.1182  0.2741
 2348TIP3    H228460   5.341   6.649  15.646  2.0000  1.3703 -0.2166
 2349TIP3   OH228461   0.259   1.643   6.392  0.2188  0.3586 -0.5075
 2349TIP3    H128462   0.240   1.581   6.321  0.7449  0.2410 -0.5568
 2349TIP3    H228463   0.354   1.634   6.405  0.1756  0.6173 -0.0113
 2350TIP3   OH228464   3.594   2.826   4.847 -0.1886 -0.0473  0.2157
 2350TIP3    H128465   3.611   2.789   4.934 -2.6871 -0.7262  0.4962
 2350TIP3    H228466   3.504   2.859   4.852  0.3335  1.8405 -1.5011
 2351TIP3   OH228467   0.983   1.839  12.989 -0.2146 -0.1547  0.3345
 2351TIP3    H128468   1.073   1.858  12.962 -0.9970  1.4615 -1.3387
 2351TIP3    H228469   0.960   1.909  13.050 -0.0350 -1.1609  1.6079
 2352TIP3   OH228470   5.781   4.103   0.584  0.8110 -0.0811 -0.0954
 2352TIP3    H128471   5.862   4.132   0.543  0.8656 -0.5731 -0.3511
 2352TIP3    H228472   5.807   4.028   0.638  0.5901 -0.0058  0.1168
 2353TIP3   OH228473   3.197   6.031   5.544 -0.2935 -0.6575 -0.1584
 2353TIP3    H128474   3.176   5.953   5.492 -0.9246 -0.4172 -0.2785
 2353TIP3    H228475   3.144   6.101   5.506  0.0293 -0.2378  0.1468
 2354TIP3   OH228476   4.285   4.081   0.452 -0.8720 -0.2572 -0.2073
 2354TIP3    H128477   4.335   4.076   0.533 -0.7850  0.7331 -0.1866
 2354TIP3    H228478   4.197   4.107   0.479 -1.2042 -1.2100 -0.3202
 2355TIP3   OH228479   1.617   0.830  16.868 -0.7824  0.4234 -0.2956
 2355TIP3    H128480   1.609   0.740  16.839 -1.2646  0.4710 -0.3173
 2355TIP3    H228481   1.575   0.832  16.955 -0.6381  0.5914 -0.2274
 2356TIP3   OH228482   5.556   6.505  11.946  0.3485  0.9511 -0.4471
 2356TIP3    H128483   5.494   6.483  12.015 -0.6534 -0.2205 -1.6523
 2356TIP3    H228484   5.615   6.569  11.985  0.8753 -0.8876  2.0230
 2357TIP3   OH228485   5.413   5.474   3.476  0.2001  0.0906 -0.0055
 2357TIP3    H128486   5.336   5.418   3.468 -0.2190  0.6227  0.2034
 2357TIP3    H228487   5.391   5.552   3.425 -0.7636  1.6868  2.6596
 2358TIP3   OH228488   0.475   0.959   5.048 -0.9245  1.1033 -0.1777
 2358TIP3    H128489   0.490   0.930   4.958  0.2345  0.3167  0.2596
 2358TIP3    H228490   0.543   1.025   5.064 -0.3784  0.3937  0.4991
 2359TIP3   OH228491   4.341   3.178   0.270 -0.1926  0.0965 -0.2004
 2359TIP3    H128492   4.269   3.123   0.242 -0.7955  1.3949 -1.3061
 2359TIP3    H228493   4.340   3.252   0.210  0.2721  1.5718  1.4942
 2360TIP3   OH228494   1.101   5.655  12.504  0.5056 -0.1452 -0.2474
 2360TIP3    H128495   1.146   5.738  12.486 -0.2349  0.3014 -0.0654
 2360TIP3    H228496   1.107   5.606  12.422  0.3034  0.3930 -0.5889
 2361TIP3   OH228497   5.292   1.737  16.124  0.6873  0.0576  0.7119
 2361TIP3    H128498   5.304   1.714  16.031  1.4516 -1.4036  1.1418
 2361TIP3    H228499   5.214   1.793  16.125  0.2989 -0.4149 -0.7370
 2362TIP3   OH228500   5.747   1.154   2.334 -0.9508 -0.1456  0.2206
 2362TIP3    H128501   5.725   1.224   2.395 -1.3106  1.4637 -1.6209
 2362TIP3    H228502   5.842   1.158   2.325 -0.7684 -1.1141  1.4289
 2363TIP3   OH228503   2.621   4.507  13.800 -0.0308  0.5477  0.7285
 2363TIP3    H128504   2.624   4.436  13.864  0.0419  0.5576  0.7356
 2363TIP3    H228505   2.573   4.577  13.844  0.4416  0.7350  0.9478
 2364TIP3   OH228506   5.807   3.177  16.984  0.1511  0.0046 -0.4554
 2364TIP3    H128507   5.787   3.127  16.905  0.2023  0.5921 -0.8494
 2364TIP3    H228508   5.776   3.266  16.965 -1.1667 -0.1645  0.7381
 2365TIP3   OH228509   1.101   3.080  14.403 -0.0944  0.5005 -0.5543
 2365TIP3    H128510   1.156   3.156  14.382 -1.0098  0.8375 -1.8904
 2365TIP3    H228511   1.075   3.093  14.494 -0.4137  1.9153 -0.8279
 2366TIP3   OH228512   2.308   6.491   2.325  0.2860 -0.2131 -0.1009
 2366TIP3    H128513   2.348   6.476   2.239  0.2798  1.4722 -0.4205
 2366TIP3    H228514   2.321   6.584   2.342 -0.0148 -0.4459  1.5895
 2367TIP3   OH228515   3.690   3.885   3.636 -0.2193  0.0085 -0.2688
 2367TIP3    H128516   3.639   3.892   3.555  1.9256  1.2957 -1.5984
 2367TIP3    H228517   3.627   3.852   3.700 -1.9435 -1.4013 -2.4887
 2368TIP3   OH228518   1.528   0.774   0.293 -0.5201 -0.3258  0.1746
 2368TIP3    H128519   1.516   0.782   0.387 -0.5403  1.9521  0.0383
 2368TIP3    H228520   1.623   0.766   0.281 -0.2485  2.0136  0.3221
 2369TIP3   OH228521   3.814   2.870   3.286  0.4829 -0.3757 -0.3385
 2369TIP3    H128522   3.902   2.881   3.321  0.4929 -0.3527 -0.3701
 2369TIP3    H228523   3.757   2.869   3.363  0.2682  1.9835 -0.3894
 2370TIP3   OH228524   1.570   6.449   0.976 -0.4086  0.1542  0.0868
 2370TIP3    H128525   1.664   6.428   0.974 -0.4278 -0.1889  1.8594
 2370TIP3    H228526   1.529   6.379   0.926  0.1912 -0.2353  0.1284
 2371TIP3   OH228527   3.635   0.324  10.789 -0.7402  0.2211  0.3541
 2371TIP3    H128528   3.683   0.389  10.840  0.9362 -0.0139 -0.8503
 2371TIP3    H228529   3.563   0.373  10.749  1.1276  1.6796 -1.4367
 2372TIP3   OH228530   1.118   1.767  11.216  0.1431 -0.2367  0.0303
 2372TIP3    H128531   1.112   1.690  11.272  1.5760 -0.2302  0.2224
 2372TIP3    H228532   1.210   1.794  11.221 -0.0689  0.7707 -0.9837
 2373TIP3   OH228533   1.799   3.625  11.083  0.5693  0.6045 -0.1468
 2373TIP3    H128534   1.727   3.600  11.025  0.0116 -0.1461  0.8473
 2373TIP3    H228535   1.840   3.542  11.107  0.1690  0.8046  1.3127
 2374TIP3   OH228536   0.226   6.716   4.930 -0.4324 -0.0674  0.0375
 2374TIP3    H128537   0.133   6.703   4.918 -0.8397  1.7757  0.7357
 2374TIP3    H228538   0.238   6.811   4.921  1.0544 -0.0274  1.7424
 2375TIP3   OH228539   3.283   0.856  13.447 -0.4642  0.1047 -0.7217
 2375TIP3    H128540   3.201   0.849  13.398 -0.7877 -1.3378 -0.0276
 2375TIP3    H228541   3.256   0.864  13.539  0.1537  1.7777 -0.6395
 2376TIP3   OH228542   5.383   3.163   0.854 -0.2532 -0.1490 -0.6342
 2376TIP3    H128543   5.399   3.203   0.940 -1.3193  1.4472 -1.1134
 2376TIP3    H228544   5.403   3.233   0.792 -0.0024 -1.1165 -1.6657
 2377TIP3   OH228545   3.685   2.518   6.255  0.2855 -0.3774 -0.1888
 2377TIP3    H128546   3.592   2.518   6.278  0.4335 -0.1622  0.4215
 2377TIP3    H228547   3.692   2.453   6.184 -0.3442 -0.3126 -0.3162
 2378TIP3   OH228548   2.351   2.062  15.054  0.4871  0.4931  0.0827
 2378TIP3    H128549   2.274   2.034  15.103 -0.2730  1.1394 -0.7086
 2378TIP3    H228550   2.394   1.980  15.029 -0.9338  0.0191 -0.9868
 2379TIP3   OH228551   0.685   2.243   3.830  0.5806 -0.0469 -0.1280
 2379TIP3    H128552   0.627   2.318   3.843 -0.9933 -1.2853  0.3002
 2379TIP3    H228553   0.632   2.180   3.781  1.4827 -1.3224  0.4860
 2380TIP3   OH228554   5.025   2.266   1.316  0.4505  0.1817 -0.4039
 2380TIP3    H128555   4.980   2.181   1.321 -0.6965  0.7844  0.0257
 2380TIP3    H228556   5.106   2.248   1.269  0.0650 -1.0891 -0.6198
 2381TIP3   OH228557   1.745   2.878  15.627 -0.6740  0.2023  0.2899
 2381TIP3    H128558   1.731   2.886  15.533  0.9064  1.6191  0.1272
 2381TIP3    H228559   1.689   2.945  15.666 -0.4424  0.4134  0.2619
 2382TIP3   OH228560   5.826   3.710   3.185 -0.3923 -0.0379 -0.1352
 2382TIP3    H128561   5.767   3.688   3.113  0.0441  0.9751 -0.8300
 2382TIP3    H228562   5.903   3.655   3.170 -1.0700 -1.2349  0.6752
 2383TIP3   OH228563   2.561   4.826  12.090 -0.0699 -0.2850 -0.2182
 2383TIP3    H128564   2.534   4.872  12.010 -1.8923  0.5245  0.8061
 2383TIP3    H228565   2.494   4.759  12.103 -0.0937 -0.0726  0.8748
 2384TIP3   OH228566   4.422   6.544   1.590  0.2046  0.3137 -0.0312
 2384TIP3    H128567   4.459   6.606   1.527  1.8919 -2.4254 -1.9648
 2384TIP3    H228568   4.345   6.509   1.546  1.9840 -2.4002 -1.2583
 2385TIP3   OH228569   0.716   4.342  14.264 -0.3151  0.1297  0.0950
 2385TIP3    H128570   0.669   4.395  14.200 -1.1014 -0.6656  0.0051
 2385TIP3    H228571   0.780   4.293  14.212  0.3648  0.8934  0.1692
 2386TIP3   OH228572   1.534   3.934  11.829  0.1842  0.2677 -0.0197
 2386TIP3    H128573   1.484   3.881  11.891 -1.0499  1.4244  0.0273
 2386TIP3    H228574   1.615   3.885  11.815  0.3271 -0.2238  2.1880
 2387TIP3   OH228575   5.258   3.003   0.487  0.6236 -0.2349  0.1115
 2387TIP3    H128576   5.177   3.047   0.513  0.5569 -0.8085  0.9230
 2387TIP3    H228577   5.294   2.970   0.569  1.1309 -0.9004 -0.3725
 2388TIP3   OH228578   1.989   1.506  10.849 -0.0019  0.2135 -0.4196
 2388TIP3    H128579   1.967   1.434  10.909  0.7178  1.1567  1.0164
 2388TIP3    H228580   1.992   1.464  10.763  0.5290 -1.5233  0.3904
 2389TIP3   OH228581   0.603   6.146   4.936  0.3202  0.1012 -0.1881
 2389TIP3    H128582   0.583   6.239   4.937 -0.1669  0.0002 -0.1892
 2389TIP3    H228583   0.544   6.108   5.001  0.8014 -0.1553  0.1105
 2390TIP3   OH228584   2.469   0.159  13.497 -0.2619 -0.3347  0.0655
 2390TIP3    H128585   2.518   0.088  13.454 -1.0453 -1.5027  1.0404
 2390TIP3    H228586   2.510   0.168  13.583 -1.1839 -0.7235  0.5579
 2391TIP3   OH228587   3.474   6.156  16.302 -0.3351 -0.3491  0.4074
 2391TIP3    H128588   3.424   6.127  16.378 -0.3664 -0.7402  0.2386
 2391TIP3    H228589   3.550   6.200  16.339 -1.2133  1.0096  0.6837
 2392TIP3   OH228590   0.462   3.823  11.141 -1.0732  0.6487  0.7404
 2392TIP3    H128591   0.557   3.813  11.135 -1.3680 -1.6330 -1.4538
 2392TIP3    H228592   0.446   3.913  11.112  0.3158  0.3862 -1.0007
 2393TIP3   OH228593   2.329   2.574  10.618 -0.1341 -0.6115  0.2976
 2393TIP3    H128594   2.356   2.488  10.585 -0.6230  0.5369 -3.5675
 2393TIP3    H228595   2.246   2.558  10.662 -0.5829 -2.0647 -0.9730
 2394TIP3   OH228596   1.421   0.387   4.514 -0.1525 -0.2128 -0.3348
 2394TIP3    H128597   1.361   0.391   4.439  1.3801 -1.1468 -1.6826
 2394TIP3    H228598   1.499   0.435   4.485  0.7717 -1.2521  0.3666
 2395TIP3   OH228599   2.423   1.242   2.157 -0.2215 -0.2032 -0.1329
 2395TIP3    H128600   2.448   1.155   2.189 -1.3914 -0.8221 -0.8371
 2395TIP3    H228601   2.368   1.279   2.226 -1.9186 -1.1312 -0.9271
 2396TIP3   OH228602   1.191   1.433  16.728  0.5804  0.1160 -0.2173
 2396TIP3    H128603   1.120   1.414  16.789  1.1674 -0.8424  0.1702
 2396TIP3    H228604   1.206   1.527  16.738  0.7184 -0.0309  1.1812
 2397TIP3   OH228605   5.897   5.354   4.344 -0.2453  0.7529 -0.3935
 2397TIP3    H128606   5.973   5.410   4.362  1.3724 -1.3815 -0.1518
 2397TIP3    H228607   5.829   5.386   4.404  0.9683  1.7863  0.4851
 2398TIP3   OH228608   5.482   2.792  10.422  0.6100 -0.2540  0.0618
 2398TIP3    H128609   5.406   2.737  10.402 -0.1618  1.3884 -1.9075
 2398TIP3    H228610   5.446   2.866  10.472  1.1020  0.0073  0.0365
 2399TIP3   OH228611   3.446   2.640   1.307 -0.3187  0.2378  0.4429
 2399TIP3    H128612   3.528   2.618   1.351 -0.2861 -0.3886  0.0855
 2399TIP3    H228613   3.448   2.589   1.226 -0.4521  1.2408 -0.2166
 2400TIP3   OH228614   5.496   2.553   4.240  0.1286 -0.3484 -0.0051
 2400TIP3    H128615   5.525   2.463   4.255  0.0741 -0.7623 -2.0780
 2400TIP3    H228616   5.561   2.607   4.285  0.9547 -1.3946  0.0941
 2401TIP3   OH228617   0.724   2.757  17.209 -0.0270  0.0376  0.2250
 2401TIP3    H128618   0.763   2.725  17.127 -0.1502 -0.4572  0.3537
 2401TIP3    H228619   0.725   2.680  17.267  1.1986  0.6886  1.1136
 2402TIP3   OH228620   5.469   3.761  14.974  0.3089  0.4494 -0.4013
 2402TIP3    H128621   5.385   3.762  15.020  1.5161 -0.1944  1.9796
 2402TIP3    H228622   5.453   3.708  14.896 -1.3415 -0.1399  0.2942
 2403TIP3   OH228623   0.085   2.540   1.388 -0.0962  0.4250 -0.3867
 2403TIP3    H128624   0.078   2.525   1.293 -0.6878  0.2343 -0.3176
 2403TIP3    H228625   0.177   2.522   1.408 -0.3749 -1.5221 -0.6033
 2404TIP3   OH228626   5.994   0.911   4.575  0.5274 -0.5666  0.5358
 2404TIP3    H128627   6.065   0.857   4.609  0.7126 -0.8061 -0.2122
 2404TIP3    H228628   6.018   0.928   4.483  0.0902  0.1373  0.5423
 2405TIP3   OH228629   1.124   3.097  13.938 -0.1210 -0.3130 -0.1428
 2405TIP3    H128630   1.104   3.190  13.951  0.3251 -0.1341 -0.6757
 2405TIP3    H228631   1.141   3.089  13.844  1.4761 -0.6022  0.1406
 2406TIP3   OH228632   2.864   3.342   0.572  0.1236  0.0363 -0.0249
 2406TIP3    H128633   2.898   3.269   0.520  1.5187 -0.5070  1.5801
 2406TIP3    H228634   2.916   3.418   0.543  0.7471 -0.2222  0.3886
 2407TIP3   OH228635   5.851   4.994  12.045 -0.0335 -0.2432  0.3712
 2407TIP3    H128636   5.789   4.945  11.992  0.1496 -1.7941  1.5305
 2407TIP3    H228637   5.803   5.072  12.073 -0.1141  0.6716 -2.0646
 2408TIP3   OH228638   2.796   0.542  13.756 -0.1193  0.0657  0.2245
 2408TIP3    H128639   2.751   0.514  13.835 -1.3327  0.3366 -0.3405
 2408TIP3    H228640   2.768   0.479  13.689  2.1381 -1.1192  0.3323
 2409TIP3   OH228641   3.355   4.760   2.850  0.0005 -0.1429 -0.2957
 2409TIP3    H128642   3.406   4.714   2.917  3.0183 -0.0560 -2.3276
 2409TIP3    H228643   3.363   4.852   2.874  0.3772 -0.1711 -0.2975
 2410TIP3   OH228644   5.182   3.010   0.916  0.4524 -0.1668  0.2890
 2410TIP3    H128645   5.123   3.064   0.968  1.6821 -0.2846  1.8757
 2410TIP3    H228646   5.251   3.070   0.887 -0.7665  0.1553 -2.2454
 2411TIP3   OH228647   0.813   4.770   2.998  0.4433  0.3086 -0.5946
 2411TIP3    H128648   0.740   4.827   2.972  0.9078  0.8717 -0.6960
 2411TIP3    H228649   0.868   4.826   3.052  1.4706  0.2788 -1.5805
 2412TIP3   OH228650   0.557   0.331   5.366  0.3939  0.5732  0.4987
 2412TIP3    H128651   0.543   0.256   5.424 -0.4422  0.0804 -0.2898
 2412TIP3    H228652   0.532   0.407   5.418 -2.0735  0.0026  0.2810
 2413TIP3   OH228653   0.221   5.303  16.087 -0.1034  1.1912 -0.0469
 2413TIP3    H128654   0.271   5.234  16.043 -1.9372 -0.3332  0.1558
 2413TIP3    H228655   0.237   5.381  16.034  1.2335  0.4121 -0.8604
 2414TIP3   OH228656   5.299   2.560  16.077  0.0494  0.2797 -0.0864
 2414TIP3    H128657   5.230   2.531  16.017 -1.0357 -0.5492  1.4600
 2414TIP3    H228658   5.280   2.653  16.092 -1.2843 -0.1117  0.9281
 2415TIP3   OH228659   6.178   4.920   1.529  0.2990  0.6704  0.3464
 2415TIP3    H128660   6.119   4.891   1.459 -0.3342  0.9410  0.7596
 2415TIP3    H228661   6.204   4.840   1.575  0.8512  0.4716 -0.2937
 2416TIP3   OH228662   4.833   4.982   0.880  0.1785  0.4029 -0.8879
 2416TIP3    H128663   4.885   4.919   0.929 -0.0933 -0.3191 -1.4990
 2416TIP3    H228664   4.742   4.956   0.896  0.0578  0.7709 -0.9672
 2417TIP3   OH228665   1.607   5.431  14.317  0.0718 -0.0949  0.5725
 2417TIP3    H128666   1.685   5.462  14.363 -0.6210  2.0566  0.4271
 2417TIP3    H228667   1.534   5.471  14.365 -0.9039 -1.3224  0.1544
 2418TIP3   OH228668   2.175   0.231  16.902 -0.1473  0.4823  0.1363
 2418TIP3    H128669   2.231   0.306  16.919 -1.3571  1.6133 -0.6965
 2418TIP3    H228670   2.165   0.189  16.988  1.1708  0.7896  0.4659
 2419TIP3   OH228671   2.747   0.994  11.352  0.0660  0.2721  0.3119
 2419TIP3    H128672   2.690   0.999  11.429 -0.3625  1.0080 -0.0437
 2419TIP3    H228673   2.694   0.950  11.286  0.0492  0.5978  0.1070
 2420TIP3   OH228674   1.518   1.559   4.842  0.1299 -0.3642 -0.4292
 2420TIP3    H128675   1.442   1.559   4.783 -0.4880  0.1813  0.3395
 2420TIP3    H228676   1.481   1.536   4.927  0.5469  1.4873  0.2861
 2421TIP3   OH228677   0.237   1.361   2.884  0.2207 -0.1578  0.0035
 2421TIP3    H128678   0.232   1.346   2.978  0.7458  0.2673  0.1032
 2421TIP3    H228679   0.274   1.281   2.848  0.7202 -0.0401  0.2482
 2422TIP3   OH228680   5.659   3.241  11.400  0.1486  0.3800 -0.6166
 2422TIP3    H128681   5.618   3.325  11.383  1.8283  1.2143 -0.8021
 2422TIP3    H228682   5.711   3.256  11.480  0.7935 -0.3493 -0.8890
 2423TIP3   OH228683   5.104   5.501  16.753 -0.0585 -0.2923 -0.3423
 2423TIP3    H128684   5.131   5.494  16.844 -0.2588 -1.0773 -0.3339
 2423TIP3    H228685   5.132   5.418  16.713 -1.0949 -0.4988 -0.6823
 2424TIP3   OH228686   2.016   1.804   2.335  0.2717 -0.4302 -0.6222
 2424TIP3    H128687   2.037   1.852   2.255 -1.6516  1.1112 -0.2754
 2424TIP3    H228688   2.097   1.806   2.386  0.6615  1.2195 -1.2462
 2425TIP3   OH228689   5.805   5.677   0.489  0.3494  0.4306  0.0069
 2425TIP3    H128690   5.718   5.714   0.471  0.2882  0.8588  1.1035
 2425TIP3    H228691   5.865   5.751   0.479  0.4826  0.3376  0.1132
 2426TIP3   OH228692   5.977   4.165   2.216  0.3415  0.2109 -0.2793
 2426TIP3    H128693   5.970   4.073   2.243 -0.0155 -0.3595 -2.1627
 2426TIP3    H228694   5.993   4.161   2.121  0.8165  2.0886 -0.3093
 2427TIP3   OH228695   5.300   6.153  14.914  0.2960  0.0041  0.2665
 2427TIP3    H128696   5.235   6.097  14.956  0.9307  0.1753  1.5579
 2427TIP3    H228697   5.317   6.222  14.979 -1.5011  2.5872 -1.7964
 2428TIP3   OH228698   4.350   1.571   5.211 -0.2062 -0.0574  0.3417
 2428TIP3    H128699   4.408   1.495   5.205 -1.5624 -1.2022  1.2453
 2428TIP3    H228700   4.368   1.607   5.298  0.8453  1.0474 -0.2975
 2429TIP3   OH228701   3.602   4.664  12.555  0.2026  0.0655 -0.2006
 2429TIP3    H128702   3.516   4.689  12.521  0.9770  2.3501 -0.6698
 2429TIP3    H228703   3.665   4.708  12.496  1.7180 -1.7198 -0.0170
 2430TIP3   OH228704   4.725   3.763  16.312  0.4764 -0.3770  0.2506
 2430TIP3    H128705   4.712   3.668  16.308  1.3928 -0.6633  2.7237
 2430TIP3    H228706   4.689   3.795  16.229  0.9896 -2.9621 -1.0855
 2431TIP3   OH228707   1.454   4.953  14.849 -0.2293  0.4432  0.5223
 2431TIP3    H128708   1.369   4.997  14.839 -0.8057 -0.3182  1.8479
 2431TIP3    H228709   1.492   4.956  14.761 -0.9757  2.0899  0.2051
 2432TIP3   OH228710   2.434   4.692   5.080  0.3571 -0.7124  0.7194
 2432TIP3    H128711   2.472   4.682   5.167 -1.8780 -0.8720  1.7501
 2432TIP3    H228712   2.368   4.761   5.091 -1.1432 -1.9002 -0.4059
 2433TIP3   OH228713   3.364   1.697   4.181  0.1591 -0.9340 -0.0091
 2433TIP3    H128714   3.311   1.618   4.175 -2.3034  0.5993  0.2521
 2433TIP3    H228715   3.450   1.665   4.211 -1.1990 -3.3460  1.7432
 2434TIP3   OH228716   0.163   5.982   1.208 -0.5117  0.1947 -0.3038
 2434TIP3    H128717   0.088   6.026   1.247 -0.7034  0.1551 -0.6213
 2434TIP3    H228718   0.204   6.049   1.153  0.0258  0.3846  0.3236
 2435TIP3   OH228719   4.036   1.288   3.326  0.0353 -0.1672  0.1196
 2435TIP3    H128720   4.093   1.342   3.380 -0.7957  0.3527  0.4908
 2435TIP3    H228721   4.091   1.260   3.253  0.4754  1.1901 -0.0830
 2436TIP3   OH228722   4.974   6.148  10.488  0.2580 -0.2365  0.1202
 2436TIP3    H128723   4.971   6.163  10.583  0.9547  0.7921 -0.0064
 2436TIP3    H228724   5.027   6.220  10.454 -0.8772  0.0271 -1.1792
 2437TIP3   OH228725   2.923   2.545   5.189 -0.2445  0.3980 -0.4615
 2437TIP3    H128726   2.837   2.557   5.228 -0.4578 -1.4346 -0.3054
 2437TIP3    H228727   2.906   2.504   5.105  0.3668  2.1101 -1.4660
 2438TIP3   OH228728   5.646   5.339  14.501 -0.3786  0.2511 -0.3827
 2438TIP3    H128729   5.667   5.428  14.528 -1.4839  0.0732  1.2047
 2438TIP3    H228730   5.726   5.289  14.517 -0.6778  0.3623  1.7473
 2439TIP3   OH228731   5.599   5.069   3.555 -0.0429  0.0967  0.4063
 2439TIP3    H128732   5.594   5.154   3.512  1.7211 -0.6247 -1.3876
 2439TIP3    H228733   5.509   5.051   3.583 -0.8545  1.6017 -1.0497
 2440TIP3   OH228734   4.074   6.004  14.090  0.3254 -1.0414 -0.2183
 2440TIP3    H128735   4.070   6.095  14.062 -0.9589 -0.3941  1.8813
 2440TIP3    H228736   4.147   5.967  14.040 -0.2584  0.6154 -2.4751
 2441TIP3   OH228737   0.111   3.729   1.430  0.3382  0.3211 -0.0427
 2441TIP3    H128738   0.096   3.819   1.403  2.5316  1.2270  1.4390
 2441TIP3    H228739   0.145   3.686   1.351 -2.3304  0.2409 -1.2415
 2442TIP3   OH228740   5.470   1.210  13.128  0.1075 -0.1214  0.0234
 2442TIP3    H128741   5.555   1.190  13.169 -0.7233  0.4065  2.1492
 2442TIP3    H228742   5.410   1.220  13.202 -1.4481  1.2381 -1.3479
 2443TIP3   OH228743   4.556   2.853   4.586 -0.5539 -0.1148 -0.1678
 2443TIP3    H128744   4.592   2.940   4.601  1.6327 -0.5481 -2.3059
 2443TIP3    H228745   4.464   2.860   4.613 -0.5665  2.9393 -0.6282
 2444TIP3   OH228746   1.960   6.199   3.468 -0.2465 -0.2466 -0.1114
 2444TIP3    H128747   1.890   6.197   3.403  0.2569 -0.5286 -0.6609
 2444TIP3    H228748   2.035   6.235   3.421 -0.2711  0.9684  0.7300
 2445TIP3   OH228749   0.719   0.679   4.559  0.6284 -0.7743  0.2002
 2445TIP3    H128750   0.653   0.747   4.551  1.5406 -0.0556 -1.9388
 2445TIP3    H228751   0.686   0.606   4.506 -0.1107 -1.8950  2.0822
 2446TIP3   OH228752   6.476   1.329   5.574 -0.3073 -0.3503 -0.3307
 2446TIP3    H128753   6.399   1.288   5.614  0.0942  0.3177  1.1827
 2446TIP3    H228754   6.532   1.255   5.550 -1.3036 -0.8341 -1.2532
 2447TIP3   OH228755   6.336   5.716  10.733 -0.8652 -0.1866 -0.3185
 2447TIP3    H128756   6.359   5.625  10.752 -1.8422 -0.0758  1.6976
 2447TIP3    H228757   6.244   5.712  10.706 -1.8242  0.3669  2.4722
 2448TIP3   OH228758   1.314   0.384   2.487  0.3675  0.3487 -0.5671
 2448TIP3    H128759   1.314   0.442   2.412  2.0057  0.1025 -0.7892
 2448TIP3    H228760   1.365   0.430   2.554  0.1735 -0.0714 -0.1193
 2449TIP3   OH228761   3.490   3.849  14.839  0.5871  0.4223 -0.0780
 2449TIP3    H128762   3.405   3.845  14.795  0.5780 -0.1685 -0.0184
 2449TIP3    H228763   3.469   3.868  14.930  0.5696  1.0702 -0.2148
 2450TIP3   OH228764   5.790   0.833   5.816 -0.4583 -0.2556 -0.2817
 2450TIP3    H128765   5.810   0.919   5.853 -0.9390  0.1785 -1.0169
 2450TIP3    H228766   5.867   0.780   5.838  0.2370  0.5998 -0.5700
 2451TIP3   OH228767   5.771   3.991   0.862  0.0413  0.4674  0.0648
 2451TIP3    H128768   5.855   4.034   0.880  0.2632 -0.3587  1.1034
 2451TIP3    H228769   5.769   3.917   0.923 -1.6617  0.7672  0.4101
 2452TIP3   OH228770   3.031   4.434  13.759 -0.5664  0.4730 -0.3396
 2452TIP3    H128771   2.976   4.436  13.838  1.0185  1.1458  0.8102
 2452TIP3    H228772   2.971   4.451  13.687 -2.0328  0.0743  0.7506
 2453TIP3   OH228773   2.107   5.450  13.928  0.2119  0.2790  0.0265
 2453TIP3    H128774   2.184   5.395  13.913 -0.4417 -0.8062  0.5560
 2453TIP3    H228775   2.060   5.449  13.845 -0.6141 -1.2891  0.4812
 2454TIP3   OH228776   3.750   2.255  12.972 -0.0880 -0.1336  0.0611
 2454TIP3    H128777   3.819   2.303  12.926  2.0542 -2.4336  0.6303
 2454TIP3    H228778   3.793   2.174  13.001 -1.9018  0.1120  4.0619
 2455TIP3   OH228779   5.802   3.572  14.121  0.7019 -0.5940  0.1012
 2455TIP3    H128780   5.749   3.524  14.057  1.3848  2.4303 -3.0411
 2455TIP3    H228781   5.884   3.523  14.125  0.1549 -1.5766 -0.2806
 2456TIP3   OH228782   0.269   1.922   2.559 -0.0181 -0.1654  0.2517
 2456TIP3    H128783   0.268   2.016   2.546  0.9473 -0.1088  0.5143
 2456TIP3    H228784   0.191   1.904   2.611 -0.0453  0.5308  0.4512
 2457TIP3   OH228785   3.370   1.534  12.456  0.4979 -0.2944 -0.0538
 2457TIP3    H128786   3.343   1.622  12.429 -0.4135  0.0155  1.7193
 2457TIP3    H228787   3.411   1.547  12.542  0.7341 -1.5501  0.0407
 2458TIP3   OH228788   0.528   5.731   4.384 -0.2200  0.1992 -0.4996
 2458TIP3    H128789   0.512   5.721   4.478 -0.2206 -2.1030 -0.6905
 2458TIP3    H228790   0.614   5.692   4.370 -0.8719 -0.9056 -1.6579
 2459TIP3   OH228791   2.575   4.270  11.825  0.0100  0.0848 -0.0642
 2459TIP3    H128792   2.495   4.248  11.872 -0.9784  1.2499 -1.1302
 2459TIP3    H228793   2.598   4.358  11.856  0.4185  0.0891 -0.3673
 2460TIP3   OH228794   0.006   2.366   4.612  0.3026 -0.6274 -0.0507
 2460TIP3    H128795   0.074   2.329   4.668 -0.6449  0.8236  2.2145
 2460TIP3    H228796   0.040   2.451   4.586  0.3171 -0.8863 -0.9158
 2461TIP3   OH228797   3.359   5.774   3.942  0.0973  0.2445  0.4758
 2461TIP3    H128798   3.317   5.855   3.972 -0.7120  1.1301 -2.7569
 2461TIP3    H228799   3.287   5.714   3.926  0.1666  0.7725 -2.2537
 2462TIP3   OH228800   1.316   1.294  12.191 -0.1000  0.2599  0.0675
 2462TIP3    H128801   1.330   1.373  12.244  0.8469 -0.7498  1.3907
 2462TIP3    H228802   1.228   1.305  12.155  0.3720  2.3748 -0.6162
 2463TIP3   OH228803   3.814   2.495   2.658  0.5408  0.1211 -0.6585
 2463TIP3    H128804   3.753   2.568   2.651 -0.9347 -0.6681  2.2606
 2463TIP3    H228805   3.887   2.530   2.709  1.2872  0.3254 -1.8360
 2464TIP3   OH228806   2.470   3.325   2.567 -0.1987  0.1932 -0.2988
 2464TIP3    H128807   2.487   3.233   2.543 -0.2841  0.3127 -0.8278
 2464TIP3    H228808   2.556   3.366   2.566  0.1138 -0.3192  1.8837
 2465TIP3   OH228809   0.706   5.329  11.102 -0.1316 -0.2309  0.1279
 2465TIP3    H128810   0.657   5.304  11.023  1.4288 -1.5131 -0.4720
 2465TIP3    H228811   0.757   5.405  11.075  0.1739 -0.4867 -0.0228
 2466TIP3   OH228812   4.611   5.505  16.716 -0.4997  0.1591 -0.3176
 2466TIP3    H128813   4.654   5.504  16.801 -0.6793 -1.5749 -0.2119
 2466TIP3    H228814   4.530   5.554  16.731 -0.7782 -0.5683  0.6637
 2467TIP3   OH228815   2.240   4.885  12.823  0.1421  1.0678  0.5853
 2467TIP3    H128816   2.262   4.958  12.765  0.7238  0.0621 -0.5081
 2467TIP3    H228817   2.305   4.817  12.802 -0.5245  0.1503  1.3933
 2468TIP3   OH228818   0.724   5.899   4.930  0.5842  0.2467  0.2459
 2468TIP3    H128819   0.758   5.895   4.841  2.8935 -1.0596  1.1015
 2468TIP3    H228820   0.691   5.989   4.939 -0.9183  0.0371 -2.2744
 2469TIP3   OH228821   6.774   1.079  16.397  0.0540 -0.3970  0.4257
 2469TIP3    H128822   6.695   1.132  16.399  0.9924  1.0759  0.4401
 2469TIP3    H228823   6.844   1.139  16.424  1.4146 -1.2106 -1.1044
 2470TIP3   OH228824   6.468   1.427  14.010  0.3478 -0.0362  0.5181
 2470TIP3    H128825   6.493   1.458  13.923 -2.0895 -0.5872 -0.4576
 2470TIP3    H228826   6.504   1.339  14.016 -0.1600 -0.3018 -0.2791
 2471TIP3   OH228827   5.352   3.702   4.550  0.1834  0.8718 -0.2071
 2471TIP3    H128828   5.388   3.790   4.542  1.4414  0.2969 -1.5504
 2471TIP3    H228829   5.425   3.645   4.525 -1.4709 -0.3991 -2.4962
 2472TIP3   OH228830   3.206   0.547   3.607 -0.1397 -0.3497 -0.0355
 2472TIP3    H128831   3.166   0.470   3.647  0.3247 -1.0024 -0.7892
 2472TIP3    H228832   3.164   0.622   3.649  0.0384 -1.0144  1.3538
 2473TIP3   OH228833   4.153   2.951  14.076  0.6892  0.5995 -0.0381
 2473TIP3    H128834   4.140   2.913  13.989  0.3062  0.3106  0.1433
 2473TIP3    H228835   4.200   3.033  14.060 -0.2743  1.0634 -0.6023
 2474TIP3   OH228836   5.351   4.586   4.528  0.2462 -0.5968  0.0321
 2474TIP3    H128837   5.384   4.533   4.456  0.7610 -1.7275  1.0662
 2474TIP3    H228838   5.424   4.592   4.590  0.1288  1.1573  0.0463
 2475TIP3   OH228839   5.140   4.696  16.805  0.5498  0.7317  0.3570
 2475TIP3    H128840   5.196   4.631  16.846 -1.3790 -0.2556  1.5592
 2475TIP3    H228841   5.122   4.760  16.874 -0.1772  0.7699  0.1466
 2476TIP3   OH228842   0.403   3.434  16.796  0.0151  0.1943 -0.6060
 2476TIP3    H128843   0.314   3.466  16.811  0.0371 -0.6266  1.6305
 2476TIP3    H228844   0.398   3.340  16.813  1.4887  0.2917  0.6123
 2477TIP3   OH228845   6.319   2.204   3.456  0.5420  0.0355 -0.2400
 2477TIP3    H128846   6.400   2.245   3.426  1.2750 -0.9878  0.2465
 2477TIP3    H228847   6.250   2.267   3.436  1.6033  1.4542  0.4527
 2478TIP3   OH228848   3.061   2.808   5.303 -0.6774  0.7284  0.1374
 2478TIP3    H128849   2.986   2.824   5.245 -1.3170 -0.0105  0.7433
 2478TIP3    H228850   3.022   2.787   5.388  0.1781 -1.0664  0.1207
 2479TIP3   OH228851   5.183   4.799  12.659 -0.4824  0.4303 -0.1739
 2479TIP3    H128852   5.268   4.781  12.619 -0.4050 -1.0126  0.5855
 2479TIP3    H228853   5.124   4.734  12.620 -1.0285  0.8099  0.0052
 2480TIP3   OH228854   6.655   6.013   3.175 -0.2168 -0.0431  0.0247
 2480TIP3    H128855   6.712   5.988   3.248 -0.5038  2.7466  1.3429
 2480TIP3    H228856   6.621   6.099   3.200 -0.9344  0.6923 -3.0772
 2481TIP3   OH228857   5.156   3.682  16.356  0.3806  0.5455 -0.2117
 2481TIP3    H128858   5.068   3.647  16.341  0.4734 -0.7463  1.8156
 2481TIP3    H228859   5.207   3.650  16.283  0.1758 -2.7820  0.9032
 2482TIP3   OH228860   1.482   2.429   3.951 -0.2214 -0.2616  0.3515
 2482TIP3    H128861   1.527   2.465   3.874  0.2561 -1.1805  0.1844
 2482TIP3    H228862   1.475   2.335   3.933  1.0479 -0.7184  1.9805
 2483TIP3   OH228863   6.427   5.378   0.735 -0.1329  0.3726  0.0161
 2483TIP3    H128864   6.347   5.324   0.738 -0.5584  1.0031  0.1076
 2483TIP3    H228865   6.465   5.369   0.822  0.5110 -0.8262 -0.3567
 2484TIP3   OH228866   2.612   2.235  16.222  0.0981 -0.1169  0.1942
 2484TIP3    H128867   2.688   2.190  16.186  0.1247  0.6899 -0.8291
 2484TIP3    H228868   2.575   2.174  16.286  1.3621 -0.6816  0.4117
 2485TIP3   OH228869   5.318   0.818  15.507  0.6562 -0.3172 -0.3114
 2485TIP3    H128870   5.303   0.754  15.437 -0.6845  0.9326 -1.2391
 2485TIP3    H228871   5.255   0.794  15.575 -0.4551  0.4498 -1.0185
 2486TIP3   OH228872   4.351   5.264  12.227 -0.1225  0.1770 -0.1662
 2486TIP3    H128873   4.276   5.323  12.214 -0.4702  0.4206  2.4118
 2486TIP3    H228874   4.402   5.273  12.146 -0.1131  4.1307  0.0759
 2487TIP3   OH228875   1.717   1.228   0.540 -0.1755 -0.3489  0.0002
 2487TIP3    H128876   1.740   1.278   0.619 -0.1658  2.4462 -1.6486
 2487TIP3    H228877   1.633   1.187   0.561 -0.2642  0.4953  1.4083
 2488TIP3   OH228878   6.000   0.944   3.823  0.0388 -0.3601  0.2218
 2488TIP3    H128879   5.951   0.999   3.762  0.6189 -0.4632 -0.3520
 2488TIP3    H228880   6.027   1.004   3.892  1.5816  0.3689 -0.9283
 2489TIP3   OH228881   5.313   1.585  12.682  0.2648  0.4640 -0.0436
 2489TIP3    H128882   5.299   1.651  12.614 -1.2462 -0.6954 -0.8949
 2489TIP3    H228883   5.386   1.532  12.649 -0.5290 -0.1585 -0.8534
 2490TIP3   OH228884   0.721   6.745  16.687  0.4362  0.1471  0.5066
 2490TIP3    H128885   0.653   6.808  16.663  0.0993 -0.7228 -0.9979
 2490TIP3    H228886   0.700   6.667  16.635  0.6024 -1.3650  2.5717
 2491TIP3   OH228887   1.271   5.710   3.031 -0.1615 -0.4011 -0.0576
 2491TIP3    H128888   1.273   5.653   3.107 -0.6802  1.5866  1.5527
 2491TIP3    H228889   1.300   5.795   3.064 -1.7743  0.8943 -1.7265
 2492TIP3   OH228890   3.220   0.857  13.738 -0.5827 -0.6101  0.3759
 2492TIP3    H128891   3.217   0.949  13.766  0.3143 -0.3162 -0.4288
 2492TIP3    H228892   3.312   0.832  13.748 -0.4430 -0.8154 -1.2348
 2493TIP3   OH228893   5.457   3.283  16.816  0.1130  0.6928  0.5958
 2493TIP3    H128894   5.505   3.317  16.741  0.0336 -0.1691  0.1453
 2493TIP3    H228895   5.512   3.213  16.851 -1.6635 -1.7987 -1.2160
 2494TIP3   OH228896   5.214   5.913  13.337 -0.4221 -0.5001  0.4656
 2494TIP3    H128897   5.287   5.926  13.277 -0.0879 -0.8219  0.7970
 2494TIP3    H228898   5.210   5.993  13.389  0.3500 -0.8841  1.1408
 2495TIP3   OH228899   4.622   4.506   2.570  0.3019  0.2804 -0.0326
 2495TIP3    H128900   4.603   4.600   2.570 -1.4875 -0.0429 -0.8181
 2495TIP3    H228901   4.640   4.485   2.479  0.1216 -0.2355  0.0465
 2496TIP3   OH228902   3.719   4.650   3.069  0.3861  0.0775 -1.1915
 2496TIP3    H128903   3.692   4.742   3.058  0.8586  0.1096 -2.1655
 2496TIP3    H228904   3.814   4.653   3.066  0.5635 -0.1219  1.5221
 2497TIP3   OH228905   2.093   2.218   1.389 -0.0568 -0.3714  0.8348
 2497TIP3    H128906   2.005   2.193   1.419  0.4808 -0.2628  2.6143
 2497TIP3    H228907   2.083   2.308   1.358 -0.7949 -0.7471 -0.0461
 2498TIP3   OH228908   1.567   5.286   2.543 -0.3202 -0.6208 -0.0878
 2498TIP3    H128909   1.524   5.322   2.621 -1.5413 -1.6028 -0.2897
 2498TIP3    H228910   1.659   5.308   2.555 -0.8456  1.7469  0.2565
 2499TIP3   OH228911   1.353   6.318   4.551 -0.2122 -0.4370  0.7761
 2499TIP3    H128912   1.366   6.253   4.483 -2.2895  0.5260 -0.6666
 2499TIP3    H228913   1.417   6.386   4.532  0.2474 -0.8754  0.7364
 2500TIP3   OH228914   0.308   3.251  12.378  0.1045  0.4361 -0.6616
 2500TIP3    H128915   0.267   3.312  12.317 -0.7965 -0.5254 -1.0390
 2500TIP3    H228916   0.350   3.186  12.322  0.3989  0.2665 -0.2500
 2501TIP3   OH228917   2.569   5.115  10.975  0.1212  0.2498 -0.3690
 2501TIP3    H128918   2.582   5.022  10.958  1.8182 -0.0950  2.2082
 2501TIP3    H228919   2.654   5.145  11.008  0.1789  3.1814 -2.7850
 2502TIP3   OH228920   3.458   0.975  12.903 -0.7787 -0.2499  0.1834
 2502TIP3    H128921   3.508   1.007  12.829  0.6337 -0.8632  0.8327
 2502TIP3    H228922   3.496   0.889  12.923 -1.9361 -0.6328  0.8587
 2503TIP3   OH228923   4.259   4.368  13.432 -0.0038  0.6312  0.5598
 2503TIP3    H128924   4.234   4.280  13.405  0.7449  0.4118  0.5617
 2503TIP3    H228925   4.181   4.402  13.476 -0.8041  0.5327 -0.7457
 2504TIP3   OH228926   0.771   0.763  14.887 -0.0359  0.6991  0.4848
 2504TIP3    H128927   0.718   0.786  14.963 -0.6544  0.6916  0.0667
 2504TIP3    H228928   0.772   0.667  14.886  1.1440  0.6865  1.2732
 2505TIP3   OH228929   2.845   0.941   4.056  0.1537  0.3470 -0.2027
 2505TIP3    H128930   2.935   0.913   4.077 -0.7414 -1.5558  1.5032
 2505TIP3    H228931   2.844   1.034   4.078  1.5300  0.2431  0.4741
 2506TIP3   OH228932   2.521   4.977   5.815 -0.4877  0.7477  0.2679
 2506TIP3    H128933   2.576   5.050   5.843 -1.3963  1.2844  0.7042
 2506TIP3    H228934   2.435   4.996   5.852 -1.1058  0.1948 -0.8315
 2507TIP3   OH228935   2.541   0.834   4.773 -0.0040  0.2813  0.1413
 2507TIP3    H128936   2.492   0.797   4.699  0.2013 -0.8585  0.5619
 2507TIP3    H228937   2.598   0.763   4.802 -0.8586  0.3191  2.0871
 2508TIP3   OH228938   3.477   1.172  15.040 -0.6892  0.2529  0.0340
 2508TIP3    H128939   3.545   1.240  15.033 -0.5074  0.4459  2.7036
 2508TIP3    H228940   3.490   1.117  14.963  2.5390  0.2879  0.4156
 2509TIP3   OH228941   6.537   2.354   5.293 -0.4339  0.4630  0.3895
 2509TIP3    H128942   6.596   2.345   5.368  0.2284 -0.2029 -0.1900
 2509TIP3    H228943   6.463   2.406   5.326  0.2837  0.9656  1.2368
 2510TIP3   OH228944   0.558   3.607  12.842  0.1478 -0.6864  0.0477
 2510TIP3    H128945   0.533   3.516  12.825 -1.1806 -0.2846 -0.2935
 2510TIP3    H228946   0.651   3.610  12.823 -0.1963 -1.5000 -2.0819
 2511TIP3   OH228947   6.205   5.503  15.306  0.2583  0.3748 -0.2709
 2511TIP3    H128948   6.170   5.591  15.320 -0.9017  0.1725 -1.6606
 2511TIP3    H228949   6.177   5.454  15.384 -0.4862  0.8330 -0.2425
 2512TIP3   OH228950   3.253   2.069  12.771  0.2513  0.3091  0.3418
 2512TIP3    H128951   3.288   2.045  12.685 -0.4454  1.8853 -0.4340
 2512TIP3    H228952   3.330   2.073  12.828  0.7027 -0.9427 -0.1440
 2513TIP3   OH228953   6.714   4.296  16.208  0.1163 -0.0252  0.0299
 2513TIP3    H128954   6.759   4.213  16.224 -0.8148 -0.6497 -0.5142
 2513TIP3    H228955   6.779   4.348  16.160  1.5477  0.4708  2.3850
 2514TIP3   OH228956   3.007   3.468   2.041  0.4305  0.5066 -0.2961
 2514TIP3    H128957   3.049   3.531   2.099 -1.9879  1.8996  0.0726
 2514TIP3    H228958   2.940   3.426   2.095  0.0673 -0.2673 -1.3045
 2515TIP3   OH228959   0.361   0.691  16.228 -0.9985  0.8169 -0.1713
 2515TIP3    H128960   0.374   0.617  16.168  0.6046  0.0308  1.0373
 2515TIP3    H228961   0.282   0.669  16.276 -1.0137  0.3039 -0.4200
 2516TIP3   OH228962   2.802   5.762  10.915 -0.9014 -0.1343  0.5860
 2516TIP3    H128963   2.875   5.700  10.921  0.4887  1.3876 -0.0039
 2516TIP3    H228964   2.789   5.793  11.005 -1.0605 -0.6438  0.7445
 2517TIP3   OH228965   2.720   0.402   5.169  0.0731  0.1819 -0.4752
 2517TIP3    H128966   2.680   0.317   5.189 -1.3094  0.6525 -1.1205
 2517TIP3    H228967   2.806   0.398   5.210 -0.7074 -0.7991  1.1926
 2518TIP3   OH228968   5.572   4.330   5.242  0.1810 -0.0331  0.6005
 2518TIP3    H128969   5.601   4.268   5.176 -2.5863 -0.2675 -0.5301
 2518TIP3    H228970   5.535   4.403   5.191 -1.7074 -0.0652  1.8343
 2519TIP3   OH228971   2.369   5.634  11.667  0.2104  0.2498 -0.3091
 2519TIP3    H128972   2.298   5.587  11.710  0.5077  1.6558  1.8590
 2519TIP3    H228973   2.446   5.579  11.683  0.3634  0.8565  1.2890
 2520TIP3   OH228974   2.698   4.173  15.434  0.1384 -0.5173  0.1080
 2520TIP3    H128975   2.785   4.210  15.419 -0.0360  0.8548  2.0056
 2520TIP3    H228976   2.708   4.080  15.416  1.4610 -0.0871 -1.6621
 2521TIP3   OH228977   3.835   4.696   6.537 -0.2315  0.0522 -0.0398
 2521TIP3    H128978   3.790   4.616   6.511  0.0987  0.3059 -1.4714
 2521TIP3    H228979   3.767   4.764   6.533  0.1296  0.3548 -1.7626
 2522TIP3   OH228980   0.672   3.881  16.276 -0.7729  0.3198 -0.4168
 2522TIP3    H128981   0.674   3.973  16.252 -1.2640  0.0734 -1.4274
 2522TIP3    H228982   0.728   3.838  16.212  2.1109  0.2747  1.9022
 2523TIP3   OH228983   1.910   5.054  14.625  0.2200 -0.6639 -0.4953
 2523TIP3    H128984   1.858   5.135  14.632 -0.0803 -0.9679  1.2450
 2523TIP3    H228985   1.943   5.055  14.535 -1.5353  0.3217 -1.1866
 2524TIP3   OH228986   0.380   2.447   2.456  0.2383 -0.3359  0.0460
 2524TIP3    H128987   0.431   2.410   2.384 -0.3958 -0.3446 -0.4077
 2524TIP3    H228988   0.420   2.532   2.472  0.7253 -0.5664  0.0469
 2525TIP3   OH228989   6.776   6.688  15.040  0.2912 -0.3070  0.1050
 2525TIP3    H128990   6.813   6.740  15.112 -0.5613 -0.1647  0.4459
 2525TIP3    H228991   6.831   6.609  15.038  0.9700  0.1510  0.2316
 2526TIP3   OH228992   5.315   4.225   5.971  0.0209 -0.3610 -0.2212
 2526TIP3    H128993   5.278   4.168   6.039  1.7654 -1.4641 -0.1201
 2526TIP3    H228994   5.385   4.273   6.016  1.5967 -1.5426 -1.2875
 2527TIP3   OH228995   5.100   3.588  15.209 -0.1408 -0.4347 -0.0263
 2527TIP3    H128996   5.110   3.542  15.125  0.0171  0.5414 -0.5492
 2527TIP3    H228997   5.153   3.667  15.199  0.7107 -0.7997  1.3718
 2528TIP3   OH228998   5.229   4.815   4.457 -0.7580 -0.0166  0.0055
 2528TIP3    H128999   5.289   4.746   4.485 -0.3602 -0.3304 -1.5135
 2528TIP3    H229000   5.274   4.896   4.479 -0.2881 -0.2513 -0.0770
 2529TIP3   OH229001   2.620   0.814   3.941 -0.0203 -0.6496 -0.0698
 2529TIP3    H129002   2.607   0.729   3.983 -2.3607  0.3594  1.4588
 2529TIP3    H229003   2.702   0.847   3.979  1.0288 -2.2359 -0.8272
 2530TIP3   OH229004   2.385   3.331   3.650 -0.2671 -0.0506 -0.1986
 2530TIP3    H129005   2.351   3.273   3.718  0.5608  0.7298  0.9225
 2530TIP3    H229006   2.427   3.403   3.698  1.2941 -0.0179 -1.5051
 2531TIP3   OH229007   0.170   0.905   6.484  0.4264  0.3365  0.2469
 2531TIP3    H129008   0.098   0.899   6.421  1.3174  0.1869 -0.7797
 2531TIP3    H229009   0.154   0.988   6.530 -0.8260 -0.0727  0.5782
 2532TIP3   OH229010   0.928   0.093  15.964  0.4082 -0.0978 -0.4397
 2532TIP3    H129011   0.896   0.101  15.874 -0.5394 -3.7117 -0.5717
 2532TIP3    H229012   1.019   0.065  15.955  0.3329 -0.3979 -0.2704
 2533TIP3   OH229013   6.226   5.374  13.685 -0.0273 -0.2225 -0.1313
 2533TIP3    H129014   6.262   5.379  13.596  0.6721 -1.4688  0.0588
 2533TIP3    H229015   6.278   5.436  13.736 -1.2552  1.4516 -0.8177
 2534TIP3   OH229016   0.048   5.624   6.328 -0.0780  0.4514  0.4610
 2534TIP3    H129017  -0.010   5.575   6.271  0.3597  0.8707 -0.3685
 2534TIP3    H229018   0.009   5.616   6.415 -0.5343 -0.5351  0.1799
 2535TIP3   OH229019   0.290   5.456  11.232 -0.0899  0.0981 -0.5371
 2535TIP3    H129020   0.211   5.500  11.200  0.5659  3.2638  1.7412
 2535TIP3    H229021   0.341   5.436  11.153 -2.7257 -1.4218 -2.0220
 2536TIP3   OH229022   2.613   0.791  10.946  0.4390  0.1148  0.3386
 2536TIP3    H129023   2.622   0.874  10.899  0.4285 -0.8710 -1.4830
 2536TIP3    H229024   2.641   0.725  10.883 -1.3294 -1.4374  1.1045
 2537TIP3   OH229025   1.111   5.272  15.313 -0.4293  0.2580 -0.6949
 2537TIP3    H129026   1.175   5.316  15.257  0.6877 -1.0108 -0.4773
 2537TIP3    H229027   1.084   5.339  15.377  1.2922  0.6133 -0.2953
 2538TIP3   OH229028   6.676   2.044   1.107  0.2748  0.7697 -0.2010
 2538TIP3    H129029   6.611   2.004   1.165  0.3782  0.7607 -0.0926
 2538TIP3    H229030   6.714   2.115   1.158  0.2120  0.9004 -0.3350
 2539TIP3   OH229031   6.767   1.475  12.653 -0.1237  0.3519 -0.1066
 2539TIP3    H129032   6.740   1.490  12.744  1.0484 -0.8547  0.4748
 2539TIP3    H229033   6.685   1.462  12.606 -0.6795 -1.6311  1.3037
 2540TIP3   OH229034   1.262   1.741   6.129 -0.0018  0.0405  0.2001
 2540TIP3    H129035   1.195   1.697   6.182 -0.7845  0.2947 -0.5646
 2540TIP3    H229036   1.228   1.738   6.040  0.9769  0.2433 -0.1945
 2541TIP3   OH229037   1.918   1.332   3.335  0.0377 -0.1149  0.2846
 2541TIP3    H129038   2.008   1.358   3.313  0.5150 -0.8021  1.3203
 2541TIP3    H229039   1.885   1.405   3.388  0.1564 -0.0658  0.2933
 2542TIP3   OH229040   2.100   2.578   5.420 -0.3201 -0.4892  0.4926
 2542TIP3    H129041   2.181   2.585   5.470 -0.6231 -1.5401  1.1690
 2542TIP3    H229042   2.077   2.485   5.424 -0.2892 -0.6670 -1.7340
 2543TIP3   OH229043   5.375   4.904   6.114 -0.0186 -0.1392 -0.4649
 2543TIP3    H129044   5.300   4.961   6.099  0.2822 -0.0994 -2.0056
 2543TIP3    H229045   5.443   4.964   6.146 -0.2177  0.0660 -0.4196
 2544TIP3   OH229046   4.190   2.178   4.135 -0.3288  0.2885  0.3282
 2544TIP3    H129047   4.151   2.248   4.188 -0.7799  0.0553  0.3092
 2544TIP3    H229048   4.118   2.148   4.080 -0.1271 -0.1740  0.3171
 2545TIP3   OH229049   5.305   6.337   4.149 -0.2018  0.3621 -0.1962
 2545TIP3    H129050   5.262   6.356   4.066 -2.5619  0.9315  1.0576
 2545TIP3    H229051   5.356   6.417   4.168 -1.1552  0.9891 -0.2178
 2546TIP3   OH229052   6.182   3.876  13.915 -0.0916 -0.6050  0.4327
 2546TIP3    H129053   6.145   3.934  13.848  0.5646 -0.6773 -0.0040
 2546TIP3    H229054   6.119   3.880  13.987 -0.4513  0.0325  0.0979
 2547TIP3   OH229055   1.848   3.410   3.579  0.0389 -0.1967 -0.5223
 2547TIP3    H129056   1.834   3.381   3.669  5.3369 -0.2917  0.5975
 2547TIP3    H229057   1.856   3.330   3.528  0.6509 -0.2860 -0.2937
 2548TIP3   OH229058   6.579   6.166   1.767  0.0900  0.3997 -0.5910
 2548TIP3    H129059   6.508   6.121   1.720 -1.2252  1.3297  0.4471
 2548TIP3    H229060   6.549   6.170   1.858  1.0841  1.5849 -0.2946
 2549TIP3   OH229061   6.331   0.589  14.063 -0.2039 -0.2226  0.2752
 2549TIP3    H129062   6.395   0.660  14.073 -0.2003 -0.2759  0.6655
 2549TIP3    H229063   6.382   0.509  14.079 -0.2103 -0.3121 -0.1539
 2550TIP3   OH229064   5.944   5.392  13.511  0.3975 -0.0608  0.3397
 2550TIP3    H129065   5.985   5.468  13.552 -1.8808  1.5247 -0.0864
 2550TIP3    H229066   6.016   5.346  13.467  1.8732  1.8353  0.6522
 2551TIP3   OH229067   2.895   0.406  12.697  0.9198 -0.0806  0.2910
 2551TIP3    H129068   2.889   0.396  12.792  0.4314 -2.0530  0.1023
 2551TIP3    H229069   2.811   0.446  12.672  0.8648  0.0354  0.6528
 2552TIP3   OH229070   3.302   0.340   5.605  0.6025  0.5162 -0.0440
 2552TIP3    H129071   3.315   0.434   5.620  1.9343  0.3671 -0.1416
 2552TIP3    H229072   3.295   0.331   5.510 -0.4179  0.6014  0.0087
 2553TIP3   OH229073   6.101   1.755  10.547  0.4902 -0.3372  0.4344
 2553TIP3    H129074   6.114   1.662  10.526 -0.5330 -0.2523 -0.6733
 2553TIP3    H229075   6.076   1.755  10.639 -0.8208 -1.2983  0.1078
 2554TIP3   OH229076   1.320   2.131  16.767  0.5840 -0.6603  0.0064
 2554TIP3    H129077   1.370   2.213  16.767 -0.4655  0.0365  1.8872
 2554TIP3    H229078   1.383   2.064  16.740  1.8809  0.5246 -0.0031
 2555TIP3   OH229079   5.919   0.499   2.333 -0.3266  0.4524  0.5234
 2555TIP3    H129080   6.009   0.524   2.353 -0.5610  3.3466 -1.3272
 2555TIP3    H229081   5.920   0.477   2.240 -1.7313  2.0118  0.0919
 2556TIP3   OH229082   0.501   4.364   4.822 -0.5838 -0.5840  0.1419
 2556TIP3    H129083   0.591   4.332   4.811 -0.6704 -0.5050 -0.9874
 2556TIP3    H229084   0.450   4.310   4.762 -1.6602 -1.9998  2.2186
 2557TIP3   OH229085   1.063   3.989  16.185 -0.3564 -0.0681  0.1812
 2557TIP3    H129086   0.990   4.042  16.216 -0.4474 -0.4625  0.6549
 2557TIP3    H229087   1.119   3.978  16.261  1.3329  2.0129 -0.6560
 2558TIP3   OH229088   5.038   3.457   6.206  0.0489  0.2677  0.0007
 2558TIP3    H129089   5.045   3.477   6.112  0.2644 -0.1659 -0.0794
 2558TIP3    H229090   5.053   3.541   6.249 -0.6582  0.5960 -0.3686
 2559TIP3   OH229091   2.852   1.315  16.074  0.1191  0.1718  0.2565
 2559TIP3    H129092   2.899   1.242  16.115  0.9053  1.3186  1.4372
 2559TIP3    H229093   2.791   1.272  16.013 -1.1392 -1.6212  2.6135
 2560TIP3   OH229094   3.350   3.534   5.974  0.0837  0.2282 -0.0278
 2560TIP3    H129095   3.377   3.612   6.023 -0.5318  1.0145 -0.8961
 2560TIP3    H229096   3.255   3.533   5.983  0.0573 -0.2054 -0.3524
 2561TIP3   OH229097   3.672   6.506  12.845  0.4677 -0.2558 -0.1862
 2561TIP3    H129098   3.578   6.525  12.841  0.3786 -0.7486 -0.6070
 2561TIP3    H229099   3.694   6.476  12.756  1.4186  1.5927 -0.6039
 2562TIP3   OH229100   1.434   0.975  13.940 -0.3097 -0.1688  0.4576
 2562TIP3    H129101   1.422   0.888  13.901 -0.2883  0.5791 -1.3090
 2562TIP3    H229102   1.470   1.029  13.869  1.1609  0.9202  1.9411
 2563TIP3   OH229103   0.748   5.350  13.600 -0.3629  0.4038 -0.2628
 2563TIP3    H129104   0.785   5.272  13.640 -0.9683 -1.0869 -2.4344
 2563TIP3    H229105   0.654   5.346  13.619 -0.0812  2.0198  1.7800
 2564TIP3   OH229106   6.375   5.797   4.689 -0.0698  0.1127  0.4157
 2564TIP3    H129107   6.417   5.745   4.620 -0.6970  0.4978 -0.2694
 2564TIP3    H229108   6.379   5.887   4.657  1.5022  0.5959  1.8465
 2565TIP3   OH229109   2.148   2.949   3.637  0.2313  0.2708 -0.1231
 2565TIP3    H129110   2.136   2.928   3.544  1.2598  1.0744 -0.4604
 2565TIP3    H229111   2.062   2.979   3.666  0.2291  1.4322 -1.2179
 2566TIP3   OH229112   1.524   2.037  15.233  0.2842  0.1223  0.3947
 2566TIP3    H129113   1.457   2.081  15.180 -0.0155 -0.4695  0.2705
 2566TIP3    H229114   1.594   2.102  15.241  0.8642 -0.1463 -1.7288
 2567TIP3   OH229115   5.624   5.639  16.746  0.1322 -0.1166  0.0866
 2567TIP3    H129116   5.551   5.614  16.691 -0.1812 -2.6237  1.4644
 2567TIP3    H229117   5.584   5.670  16.827  0.5873  0.1297  0.2247
 2568TIP3   OH229118   6.141   2.551   1.071 -0.3330  0.5182  0.2650
 2568TIP3    H129119   6.104   2.600   0.998  1.3458 -0.3981 -1.3000
 2568TIP3    H229120   6.236   2.560   1.060  0.0616 -2.5872  0.1434
 2569TIP3   OH229121   2.631   5.626   2.790  1.0334 -0.1046 -0.3409
 2569TIP3    H129122   2.704   5.622   2.850  1.6418 -0.2260 -1.0698
 2569TIP3    H229123   2.646   5.554   2.729 -1.3711 -2.2296  1.3453
 2570TIP3   OH229124   1.891   5.275  10.832 -0.7750  0.2940 -0.2800
 2570TIP3    H129125   1.814   5.332  10.827  0.5809  2.2231 -0.6430
 2570TIP3    H229126   1.963   5.331  10.802  0.9053 -1.1644  0.8497
 2571TIP3   OH229127   0.702   2.567  12.732 -0.0330  0.0478  0.0457
 2571TIP3    H129128   0.678   2.493  12.788  0.0562 -0.4581 -0.5779
 2571TIP3    H229129   0.662   2.548  12.648 -1.2385  1.4205  0.2617
 2572TIP3   OH229130   3.251   5.036   5.438  0.4773 -0.3873  0.1667
 2572TIP3    H129131   3.248   5.112   5.497 -1.4294  1.2113 -1.8386
 2572TIP3    H229132   3.331   5.048   5.388 -0.0904  0.6603 -0.5230
 2573TIP3   OH229133   1.396   6.550   2.316 -0.6046 -0.9603  0.0820
 2573TIP3    H129134   1.395   6.492   2.392  0.3064 -2.1896 -0.8063
 2573TIP3    H229135   1.480   6.533   2.274 -1.2249 -0.5598 -1.3730
 2574TIP3   OH229136   4.705   1.416   2.891 -0.2245 -0.0388 -0.5298
 2574TIP3    H129137   4.743   1.470   2.960 -1.1048 -1.4402  1.1359
 2574TIP3    H229138   4.745   1.330   2.905  1.9420  0.2691 -3.7337
 2575TIP3   OH229139   3.851   4.544  12.968  0.3265  0.1422 -0.6839
 2575TIP3    H129140   3.879   4.627  13.006  0.8359  0.4851 -1.7715
 2575TIP3    H229141   3.928   4.487  12.976 -0.8445 -1.2520  2.6907
 2576TIP3   OH229142   5.095   5.969   3.929  0.2793  0.2914  0.4101
 2576TIP3    H129143   5.174   5.915   3.925 -1.6970 -2.7729 -1.0621
 2576TIP3    H229144   5.047   5.935   4.005 -1.4409 -0.8577 -1.1001
 2577TIP3   OH229145   0.218   5.258  11.455 -0.1052 -0.9614  0.9377
 2577TIP3    H129146   0.224   5.352  11.437 -1.0028 -0.8448  1.2321
 2577TIP3    H229147   0.308   5.232  11.475  0.2291 -0.2645  0.3957
 2578TIP3   OH229148   4.650   4.038  12.571 -0.3239  0.2274 -0.6559
 2578TIP3    H129149   4.560   4.048  12.541 -0.6429 -2.1019 -0.6511
 2578TIP3    H229150   4.643   4.032  12.667 -0.2749 -0.8297 -0.7135
 2579TIP3   OH229151   6.417   3.008  12.099 -0.6483  0.3166  0.1435
 2579TIP3    H129152   6.351   3.026  12.032  0.1230  0.3806 -0.6277
 2579TIP3    H229153   6.377   2.943  12.156 -1.5548  0.7168 -0.0231
 2580TIP3   OH229154   6.194   3.901  11.444 -0.1711 -0.0209 -0.2285
 2580TIP3    H129155   6.246   3.899  11.364 -0.7216  0.6051 -0.6101
 2580TIP3    H229156   6.131   3.971  11.430 -0.3535  0.0175  0.7056
 2581TIP3   OH229157   1.635   2.025   0.497 -0.1181 -0.3667 -0.0357
 2581TIP3    H129158   1.718   2.020   0.449 -0.9678  0.3658 -1.6557
 2581TIP3    H229159   1.637   2.111   0.538  0.5454 -0.9361  1.1766
 2582TIP3   OH229160   6.361   3.286   5.741 -0.2457  0.2265 -0.6254
 2582TIP3    H129161   6.316   3.325   5.666  1.1051  1.0744 -1.0304
 2582TIP3    H229162   6.426   3.228   5.702 -1.2933 -1.4055 -0.0433
 2583TIP3   OH229163   0.783   5.577   5.964 -0.3205  0.6066 -0.5781
 2583TIP3    H129164   0.795   5.612   6.052 -0.3802  2.0866 -1.1300
 2583TIP3    H229165   0.789   5.482   5.975 -0.3041  0.7621  1.0076
 2584TIP3   OH229166   1.955   2.115  12.147 -0.0022  1.0188 -0.2120
 2584TIP3    H129167   1.954   2.086  12.238 -1.8936  0.8055 -0.2492
 2584TIP3    H229168   1.995   2.202  12.149  0.8173  0.6309  0.6800
 2585TIP3   OH229169   1.189   2.154   2.580  0.4115  0.0573  0.1595
 2585TIP3    H129170   1.188   2.244   2.547 -1.0469  0.5924  1.4925
 2585TIP3    H229171   1.278   2.123   2.564  0.7058  1.4178 -1.1207
 2586TIP3   OH229172   1.354   6.423   6.177 -0.3021 -0.2675  0.1328
 2586TIP3    H129173   1.353   6.389   6.088  0.3858 -2.3098  0.8312
 2586TIP3    H229174   1.288   6.492   6.178 -1.0330 -0.8900 -1.7044
 2587TIP3   OH229175   5.186   0.409  15.318  0.2520  0.2216  0.2027
 2587TIP3    H129176   5.109   0.378  15.269  0.7768  1.5961 -1.5867
 2587TIP3    H229177   5.221   0.330  15.360 -0.6797 -0.8919 -1.0326
 2588TIP3   OH229178   3.316   3.866  11.827 -0.6968  0.1133 -0.5492
 2588TIP3    H129179   3.279   3.953  11.812  0.5534  0.6130 -0.8330
 2588TIP3    H229180   3.406   3.872  11.795 -0.4898 -1.1982 -0.2811
 2589TIP3   OH229181   1.237   0.976   4.944  0.4307 -0.5697 -0.5317
 2589TIP3    H129182   1.314   0.964   4.888  0.4698  0.8123 -0.8037
 2589TIP3    H229183   1.244   1.066   4.976 -0.7329 -0.6393 -0.0274
 2590TIP3   OH229184   1.793   0.930  11.529 -0.0702 -0.0365  0.1855
 2590TIP3    H129185   1.755   0.979  11.455 -2.8842 -2.5409 -0.2317
 2590TIP3    H229186   1.737   0.953  11.603 -1.5670 -2.5576 -0.0621
 2591TIP3   OH229187   4.741   0.015  14.729 -0.0484 -0.1307  0.1316
 2591TIP3    H129188   4.723   0.069  14.806  0.2991 -2.7539  2.2105
 2591TIP3    H229189   4.820   0.052  14.691  1.0240 -0.0124  2.3527
 2592TIP3   OH229190   4.398   4.198  11.430 -0.3597 -1.4285 -0.0920
 2592TIP3    H129191   4.470   4.171  11.487  0.0746 -1.0320 -0.4418
 2592TIP3    H229192   4.381   4.123  11.374 -0.7609 -1.8066  0.5225
 2593TIP3   OH229193   0.305   5.173  12.529 -0.1387  0.0549 -0.4605
 2593TIP3    H129194   0.387   5.218  12.510 -0.0093 -0.1394 -0.3702
 2593TIP3    H229195   0.252   5.238  12.575  0.3855 -0.1542  0.4682
 2594TIP3   OH229196   5.516   0.920   6.442 -0.2103 -0.2250 -0.2328
 2594TIP3    H129197   5.461   0.922   6.520 -0.7535 -0.7621 -0.5858
 2594TIP3    H229198   5.600   0.888   6.473 -0.5015 -0.6948  0.0918
 2595TIP3   OH229199   2.306   0.235  11.822  0.0353  0.5334 -0.6253
 2595TIP3    H129200   2.296   0.232  11.726  0.4644 -0.5610 -0.6374
 2595TIP3    H229201   2.294   0.145  11.851  2.9337  0.2714  0.0532
 2596TIP3   OH229202   4.671   3.889  11.849 -1.2093  0.5966  0.0492
 2596TIP3    H129203   4.615   3.906  11.773 -0.3527 -0.4013 -0.8448
 2596TIP3    H229204   4.613   3.847  11.913 -1.4919 -0.5471 -0.9160
 2597TIP3   OH229205   4.555   5.257  17.151 -0.2904 -0.4932 -0.7036
 2597TIP3    H129206   4.592   5.208  17.224 -1.3233  0.3240  0.4064
 2597TIP3    H229207   4.629   5.304  17.113 -0.0143  0.5836  1.0473
 2598TIP3   OH229208   6.091   5.300   3.178 -0.2593  0.5235 -0.0716
 2598TIP3    H129209   6.084   5.306   3.273 -0.7675  2.6010 -0.2079
 2598TIP3    H229210   6.011   5.255   3.151  0.0840 -0.4592  0.4832
 2599TIP3   OH229211   0.057   5.659   2.098 -0.9926  0.3319  0.3273
 2599TIP3    H129212  -0.012   5.724   2.088 -0.7483  0.3192 -2.2572
 2599TIP3    H229213   0.138   5.710   2.097 -0.8781  0.2040  1.5507
 2600TIP3   OH229214   3.143   0.352  16.756 -0.4247 -0.1797  0.1678
 2600TIP3    H129215   3.105   0.427  16.710  1.6558  0.0086 -1.3802
 2600TIP3    H229216   3.084   0.279  16.738 -2.2794  0.9562  1.3822
 2601TIP3   OH229217   3.907   2.028   1.667 -0.3254 -0.1995  0.2103
 2601TIP3    H129218   3.828   1.986   1.633  0.5529  0.9052 -3.7643
 2601TIP3    H229219   3.970   1.956   1.674 -0.3282 -0.4064 -1.4325
 2602TIP3   OH229220   4.058   2.842   3.395 -0.1613 -0.7370  0.3154
 2602TIP3    H129221   4.101   2.876   3.473 -0.8711 -2.2081  1.3953
 2602TIP3    H229222   4.066   2.747   3.403 -1.2975 -0.9517 -0.7970
 2603TIP3   OH229223   0.904   5.442   2.549 -0.3324  0.2911  0.4685
 2603TIP3    H129224   0.868   5.528   2.528  0.3752  0.4263 -0.2278
 2603TIP3    H229225   0.975   5.429   2.486  0.1867 -0.3992  1.1728
 2604TIP3   OH229226   6.459   3.846  13.869  0.0738 -0.4663  0.2778
 2604TIP3    H129227   6.455   3.760  13.827 -0.1202 -0.8783  1.1180
 2604TIP3    H229228   6.369   3.865  13.893 -0.1607  0.7743 -1.4337
 2605TIP3   OH229229   1.403   6.025  11.987  0.1870 -0.2766  0.2884
 2605TIP3    H129230   1.405   6.114  11.951 -0.5922 -0.5696 -0.5175
 2605TIP3    H229231   1.467   5.977  11.935 -0.3141 -0.4890 -0.1443
 2606TIP3   OH229232   5.149   1.451  15.040 -0.0929 -0.2350  0.4725
 2606TIP3    H129233   5.164   1.532  14.992  2.5536 -0.2156  1.2063
 2606TIP3    H229234   5.071   1.413  14.999 -1.7563  2.8757  0.4490
 2607TIP3   OH229235   2.093   3.374   4.197 -0.1201  0.2302 -0.4022
 2607TIP3    H129236   2.065   3.319   4.270  1.1352 -0.7445 -0.6253
 2607TIP3    H229237   2.173   3.333   4.164 -0.8048  0.4360 -2.5327
 2608TIP3   OH229238   1.835   1.477   6.229  0.2241 -0.1082 -0.2740
 2608TIP3    H129239   1.787   1.394   6.229  1.7125 -1.0355  0.8154
 2608TIP3    H229240   1.922   1.454   6.197  0.5698  1.1007 -0.2459
 2609TIP3   OH229241   0.394   3.920  11.429 -0.7272  0.1556 -0.2137
 2609TIP3    H129242   0.426   3.853  11.490 -0.0752 -0.4397 -1.1940
 2609TIP3    H229243   0.446   3.907  11.350  0.5573  2.8564  0.0884
 2610TIP3   OH229244   4.292   0.725  11.186 -0.0786 -0.5090  0.3576
 2610TIP3    H129245   4.305   0.631  11.196  2.8588 -0.1140  0.9491
 2610TIP3    H229246   4.277   0.737  11.092  1.4133 -1.4060 -0.0268
 2611TIP3   OH229247   4.087   4.662  15.986 -0.0275 -0.2035 -0.2477
 2611TIP3    H129248   3.993   4.645  15.990  0.1652 -1.6757 -1.3328
 2611TIP3    H229249   4.122   4.620  16.065 -0.3944  1.5825  0.9423
 2612TIP3   OH229250   5.457   6.576  11.395  0.3060 -0.1919 -0.2227
 2612TIP3    H129251   5.459   6.531  11.479 -2.1695 -1.9115 -0.9557
 2612TIP3    H229252   5.392   6.645  11.405 -1.1735 -1.3990 -1.0894
 2613TIP3   OH229253   4.454   1.486  13.801 -0.6465 -0.3845 -0.1002
 2613TIP3    H129254   4.534   1.441  13.828  0.2368  0.6769 -0.8692
 2613TIP3    H229255   4.387   1.452  13.859  0.4221 -1.0927  0.7561
 2614TIP3   OH229256   1.447   0.384   0.487 -0.3277 -0.0323  0.1347
 2614TIP3    H129257   1.508   0.409   0.556  0.4672  0.1961 -0.6231
 2614TIP3    H229258   1.383   0.456   0.484 -1.4495 -0.8995  1.8168
 2615TIP3   OH229259   5.378   0.680   0.494 -0.3285  0.5672 -0.0841
 2615TIP3    H129260   5.360   0.649   0.583  0.3637  1.1320  0.2643
 2615TIP3    H229261   5.389   0.600   0.443 -0.6358  0.2350  0.3631
 2616TIP3   OH229262   3.061   0.165  11.609 -0.3367  0.2694  0.2260
 2616TIP3    H129263   3.072   0.215  11.690 -1.9386 -0.6014  1.0271
 2616TIP3    H229264   3.141   0.181  11.559  1.2821 -0.2064  2.5391
 2617TIP3   OH229265   0.499   1.917  13.146 -0.6904 -0.1020  0.6744
 2617TIP3    H129266   0.480   1.825  13.164 -2.7215  0.2482  0.5157
 2617TIP3    H229267   0.444   1.939  13.071 -0.1081  1.2063  0.5958
 2618TIP3   OH229268   1.310   0.552   4.731 -0.3427 -0.7262  0.4283
 2618TIP3    H129269   1.335   0.491   4.661 -2.0256  0.7688 -1.6178
 2618TIP3    H229270   1.379   0.542   4.797  1.8930 -1.5573 -1.8521
 2619TIP3   OH229271   2.623   5.939  13.840 -0.1389  0.1596 -0.0532
 2619TIP3    H129272   2.685   5.948  13.768  1.4838  0.1105  1.2841
 2619TIP3    H229273   2.588   6.027  13.854 -0.0153  0.2796 -0.4978
 2620TIP3   OH229274   2.461   6.630  13.457 -0.3690  0.0676 -0.3530
 2620TIP3    H129275   2.412   6.564  13.505 -0.6728  1.3875  1.2349
 2620TIP3    H229276   2.545   6.588  13.438 -0.4762 -0.7077  0.8125
 2621TIP3   OH229277   3.105   0.804   4.826 -0.5794  0.8748  0.4228
 2621TIP3    H129278   3.025   0.856   4.816 -0.9140  0.5619  1.3380
 2621TIP3    H229279   3.075   0.713   4.822 -0.2803  0.7568  0.7760
 2622TIP3   OH229280   4.578   0.746   4.229 -0.1488  0.0809  0.6547
 2622TIP3    H129281   4.498   0.711   4.190  0.0582 -1.1360  1.2800
 2622TIP3    H229282   4.548   0.796   4.305 -0.4346  1.2301 -0.1746
 2623TIP3   OH229283   0.576   4.073   5.630  0.2606 -0.2317 -0.4326
 2623TIP3    H129284   0.584   4.115   5.544 -1.5603 -2.0357 -1.5648
 2623TIP3    H229285   0.499   4.114   5.670  0.6833  0.0988  0.0615
 2624TIP3   OH229286   2.862   4.103   1.736  0.3124  0.7986 -0.3149
 2624TIP3    H129287   2.944   4.054   1.735 -0.1760 -0.0475  0.0940
 2624TIP3    H229288   2.832   4.098   1.827 -1.6361 -1.4005 -0.9797
 2625TIP3   OH229289   5.326   4.436  15.417 -0.1257  0.2684 -0.0081
 2625TIP3    H129290   5.372   4.511  15.456  0.5309  0.3341 -0.8700
 2625TIP3    H229291   5.285   4.472  15.338  0.6072 -0.3868 -0.6985
 2626TIP3   OH229292   5.253   4.190   2.406 -0.0363  0.1861 -0.6850
 2626TIP3    H129293   5.199   4.118   2.373  0.5611 -0.9047  0.6221
 2626TIP3    H229294   5.222   4.267   2.358 -2.1639 -0.5481 -0.5990
 2627TIP3   OH229295   4.003   1.249  15.607 -0.1237 -0.1645 -0.2349
 2627TIP3    H129296   4.007   1.175  15.668 -1.0532  0.6250  0.8047
 2627TIP3    H229297   4.094   1.258  15.576  0.1578 -1.2329  0.2124
 2628TIP3   OH229298   1.797   0.735   0.585  0.2461 -0.1676  0.3748
 2628TIP3    H129299   1.702   0.750   0.589  0.4491  1.1057  0.9020
 2628TIP3    H229300   1.831   0.781   0.662  1.4149  0.4954 -0.5133
 2629TIP3   OH229301   5.597   1.759   3.291  0.3412 -0.3314  0.3148
 2629TIP3    H129302   5.521   1.803   3.252 -0.1579 -0.7216  0.8381
 2629TIP3    H229303   5.559   1.691   3.347  1.0722 -0.3815  0.7558
 2630TIP3   OH229304   0.819   2.428  10.648  0.3038  0.2210 -0.2057
 2630TIP3    H129305   0.769   2.374  10.709  0.9318 -2.7638 -2.1141
 2630TIP3    H229306   0.885   2.470  10.703  0.8487 -2.3259  1.2807
 2631TIP3   OH229307   1.820   0.896   2.822 -0.4686  0.2461 -0.0382
 2631TIP3    H129308   1.851   0.965   2.880  0.8879 -0.7757  0.5201
 2631TIP3    H229309   1.900   0.859   2.784 -1.2105 -0.4797 -0.9507
 2632TIP3   OH229310   1.400   1.201   1.135  0.3549 -0.2015 -0.4200
 2632TIP3    H129311   1.321   1.169   1.179  0.2706 -2.2524 -1.9157
 2632TIP3    H229312   1.395   1.296   1.144 -1.2202 -0.3689  1.2611
 2633TIP3   OH229313   4.207   3.975  14.186  0.5846  0.2194 -0.1913
 2633TIP3    H129314   4.210   3.920  14.264  2.2984 -0.4469 -0.6762
 2633TIP3    H229315   4.133   3.942  14.136  0.0940 -0.0118  0.6663
 2634TIP3   OH229316   1.752   6.541  12.810 -0.2000  0.0287 -0.1648
 2634TIP3    H129317   1.715   6.510  12.893 -0.5745  0.9408  0.0202
 2634TIP3    H229318   1.685   6.599  12.774  0.3733  0.4090 -0.6337
 2635TIP3   OH229319   6.099   4.252   3.454 -0.3642  0.0288 -0.2613
 2635TIP3    H129320   6.099   4.303   3.373  0.1359  1.3310  0.5205
 2635TIP3    H229321   6.188   4.261   3.488 -0.5977 -0.4059  0.4935
 2636TIP3   OH229322   2.037   4.318  12.309 -0.3738 -0.4934 -0.3743
 2636TIP3    H129323   2.071   4.371  12.237 -0.1502 -1.1314 -0.7499
 2636TIP3    H229324   2.027   4.380  12.382  0.7591 -0.1134 -0.5158
 2637TIP3   OH229325   1.884   0.911  10.247  0.6230 -0.1592  0.2193
 2637TIP3    H129326   1.835   0.929  10.327 -0.3547  0.3623 -0.4875
 2637TIP3    H229327   1.836   0.840  10.204 -1.1201  2.0471 -1.7726
 2638TIP3   OH229328   0.053   6.382  14.606  0.3001  0.4069  0.4678
 2638TIP3    H129329   0.021   6.379  14.516 -0.7582 -1.5179  0.8564
 2638TIP3    H229330  -0.025   6.400  14.658  0.7626  0.7091  1.0651
 2639TIP3   OH229331   3.094   3.856   5.665  0.5851  0.1249  0.3162
 2639TIP3    H129332   3.031   3.803   5.714  1.1317 -0.0067  0.8978
 2639TIP3    H229333   3.040   3.914   5.611 -0.0281 -0.1110  0.6617
 2640TIP3   OH229334   5.670   6.621  16.771 -0.0130 -0.1862  0.5716
 2640TIP3    H129335   5.739   6.670  16.728 -0.2936  0.4855  0.8745
 2640TIP3    H229336   5.665   6.539  16.722  0.1746  0.2536 -0.2016
 2641TIP3   OH229337   3.486   3.343   3.650  0.0369 -0.5873  0.2171
 2641TIP3    H129338   3.512   3.371   3.562 -1.4771 -0.1945 -0.1261
 2641TIP3    H229339   3.400   3.303   3.639 -1.3853  1.7427  1.8224
 2642TIP3   OH229340   3.296   1.978   5.038 -0.1584  0.4997  0.3668
 2642TIP3    H129341   3.293   2.015   5.126 -1.1188  1.7508 -0.1804
 2642TIP3    H229342   3.213   1.931   5.028  0.1339 -0.0085  0.2772
 2643TIP3   OH229343   1.334   6.478  11.516  0.1152 -0.2657 -0.3804
 2643TIP3    H129344   1.405   6.488  11.453 -1.6650  3.3511 -2.1014
 2643TIP3    H229345   1.274   6.416  11.475  0.4086 -0.2937 -0.7703
 2644TIP3   OH229346   6.783   1.906  12.054  0.3271  0.0742  0.3084
 2644TIP3    H129347   6.777   1.847  12.128  0.4384 -0.4192 -0.0743
 2644TIP3    H229348   6.857   1.875  12.003  0.7596  0.9001  0.4095
 2645TIP3   OH229349   1.244   4.965   4.463 -0.3911 -0.0349  0.0657
 2645TIP3    H129350   1.291   4.882   4.450  0.8776  0.4411  1.2784
 2645TIP3    H229351   1.272   4.994   4.550 -1.3057  1.3561 -0.0793
 2646TIP3   OH229352   4.510   0.398   2.322 -0.2097 -0.3939  0.3010
 2646TIP3    H129353   4.438   0.408   2.259 -1.9738  0.7537  2.3487
 2646TIP3    H229354   4.507   0.305   2.346 -1.7376 -0.1867  1.0779
 2647TIP3   OH229355   5.902   2.960  12.928 -0.2703 -0.6896  0.4400
 2647TIP3    H129356   5.818   2.949  12.971  0.0965 -2.0669  0.8576
 2647TIP3    H229357   5.951   3.019  12.985 -0.3195 -1.3304  1.1674
 2648TIP3   OH229358   0.684   1.293   3.331 -0.2918  0.0823  0.0586
 2648TIP3    H129359   0.772   1.324   3.311 -0.6946  0.5910 -1.0129
 2648TIP3    H229360   0.627   1.363   3.299 -1.1805 -1.2490 -1.3933
 2649TIP3   OH229361   2.410   2.721   0.054 -0.2023  0.8760 -0.0098
 2649TIP3    H129362   2.319   2.700   0.032  0.4749 -0.5156 -1.7707
 2649TIP3    H229363   2.413   2.712   0.149 -1.4648 -1.1862 -0.0757
 2650TIP3   OH229364   2.201   1.487  15.350  0.1274 -0.6365  0.4284
 2650TIP3    H129365   2.261   1.427  15.305  0.3018 -1.2542  1.4540
 2650TIP3    H229366   2.245   1.509  15.431 -0.3493  0.1659  0.4736
 2651TIP3   OH229367   1.264   4.162  13.131  0.6709 -0.3312  0.5787
 2651TIP3    H129368   1.203   4.088  13.134  1.4456 -0.9581  1.5880
 2651TIP3    H229369   1.295   4.164  13.040  0.9398 -1.5272  0.6236
 2652TIP3   OH229370   0.781   0.841  11.363 -0.4500 -0.0280 -0.5426
 2652TIP3    H129371   0.808   0.865  11.275 -0.0509 -0.4063 -0.5292
 2652TIP3    H229372   0.720   0.769  11.351  2.3790 -2.6774 -0.4343
 2653TIP3   OH229373   0.534   5.166  14.567  0.3148 -0.6730  0.2355
 2653TIP3    H129374   0.569   5.171  14.656  1.4092 -2.8846 -0.0024
 2653TIP3    H229375   0.505   5.255  14.548  4.1871  1.0145  1.1326
 2654TIP3   OH229376   4.322   5.775   4.952  0.3151  0.1162 -0.3641
 2654TIP3    H129377   4.293   5.822   4.873  1.1909 -1.1575 -1.5013
 2654TIP3    H229378   4.246   5.775   5.009 -0.6158  0.3832 -1.5531
 2655TIP3   OH229379   4.587   3.938  14.676  0.2591  0.4110  0.1727
 2655TIP3    H129380   4.602   3.845  14.689 -1.1717  0.2082  0.4866
 2655TIP3    H229381   4.675   3.975  14.662  1.0121 -0.7136  1.7097
 2656TIP3   OH229382   0.348   3.824  15.772 -0.8321  1.1564 -0.1181
 2656TIP3    H129383   0.421   3.814  15.833  0.1301  0.8388 -1.2998
 2656TIP3    H229384   0.376   3.893  15.713 -1.1541  0.5031 -1.0483
 2657TIP3   OH229385   2.010   1.977   4.784 -0.1043  0.8300 -0.1974
 2657TIP3    H129386   1.952   1.944   4.853 -0.1312  0.6655 -0.2957
 2657TIP3    H229387   2.096   1.943   4.806 -0.2940 -0.0795 -0.7867
 2658TIP3   OH229388   0.636   5.748   0.761 -0.2171 -0.4658  0.6877
 2658TIP3    H129389   0.704   5.761   0.828  0.1312 -2.4515  0.7643
 2658TIP3    H229390   0.685   5.739   0.679 -0.5048 -0.2943  0.4964
 2659TIP3   OH229391   5.951   3.630  13.792 -0.1845  0.1006 -0.3211
 2659TIP3    H129392   5.958   3.537  13.770 -3.6203  0.1258 -2.2380
 2659TIP3    H229393   6.005   3.675  13.727  1.7414 -0.4780  0.8026
 2660TIP3   OH229394   2.291   0.671  12.584  0.1029  0.3710 -0.1308
 2660TIP3    H129395   2.374   0.631  12.557 -0.0056  1.2446 -1.9222
 2660TIP3    H229396   2.299   0.681  12.679  1.4740 -0.8174 -0.0878
 2661TIP3   OH229397   5.700   4.203  12.366 -0.4348  0.2461  0.0668
 2661TIP3    H129398   5.724   4.265  12.436 -1.5072  1.6227 -0.7329
 2661TIP3    H229399   5.715   4.252  12.285  2.0750 -1.7733 -0.8107
 2662TIP3   OH229400   1.083   1.066   5.202 -0.2251  0.1010 -0.3282
 2662TIP3    H129401   1.061   0.992   5.145 -1.5608  0.1582  0.0787
 2662TIP3    H229402   1.168   1.096   5.171 -0.2114 -0.8600 -1.2661
 2663TIP3   OH229403   2.948   6.579   0.060 -0.1008 -0.2653 -0.0347
 2663TIP3    H129404   2.984   6.665   0.040 -0.9596  0.2604  0.6516
 2663TIP3    H229405   3.024   6.521   0.059  0.4091  0.3992 -1.0270
 2664TIP3   OH229406   1.790   5.510   4.685 -0.1390  0.3336  0.1892
 2664TIP3    H129407   1.695   5.520   4.692  0.0006  0.1545  5.0913
 2664TIP3    H229408   1.825   5.597   4.704  0.6940 -0.0056  0.2532
 2665TIP3   OH229409   3.383   4.151   4.499 -0.0573  0.1818  0.7722
 2665TIP3    H129410   3.470   4.188   4.515 -0.4358  0.8453  1.3609
 2665TIP3    H229411   3.362   4.105   4.580  0.4474 -1.4589  0.0143
 2666TIP3   OH229412   4.856   0.298  14.737  0.0616 -0.1940 -0.0947
 2666TIP3    H129413   4.805   0.376  14.714  0.0614  0.3110  1.4880
 2666TIP3    H229414   4.813   0.264  14.816  0.5825 -1.3053 -0.2738
 2667TIP3   OH229415   0.049   2.216  14.531  0.7710 -0.2175 -0.5217
 2667TIP3    H129416   0.099   2.161  14.471 -0.0309  0.1144 -1.5316
 2667TIP3    H229417   0.071   2.306  14.506  0.7753 -0.0697 -0.0110
 2668TIP3   OH229418   3.260   4.922  16.306 -0.3534 -0.3788 -0.2807
 2668TIP3    H129419   3.304   4.844  16.271 -1.1763 -0.7805 -0.4636
 2668TIP3    H229420   3.210   4.956  16.231  0.8590  0.9912 -0.5137
 2669TIP3   OH229421   6.329   5.389  12.343 -0.3650  1.1985  0.6986
 2669TIP3    H129422   6.306   5.426  12.428 -0.3353  0.2760  1.1178
 2669TIP3    H229423   6.273   5.312  12.334  1.7652 -0.5195  1.2994
 2670TIP3   OH229424   3.160   1.276  11.747  0.3634 -0.0252 -0.3002
 2670TIP3    H129425   3.112   1.356  11.726  2.2858  1.6211  1.0751
 2670TIP3    H229426   3.100   1.226  11.802 -0.9004  0.4568 -1.2048
 2671TIP3   OH229427   0.747   3.273  13.343  0.2889  0.3578 -0.2155
 2671TIP3    H129428   0.750   3.368  13.356  1.9006  0.2690  0.1846
 2671TIP3    H229429   0.767   3.261  13.251 -0.8771  0.4333 -0.4969
 2672TIP3   OH229430   3.969   3.182   4.760 -0.2017 -0.2576 -0.2089
 2672TIP3    H129431   4.035   3.214   4.698 -1.8675  1.7491 -1.0764
 2672TIP3    H229432   3.922   3.114   4.712  0.5830 -1.0120  0.0679
 2673TIP3   OH229433   0.092   1.070   2.616  0.2629 -0.4956  0.4792
 2673TIP3    H129434   0.154   1.109   2.678  0.1412  0.2619  0.1323
 2673TIP3    H229435   0.085   1.134   2.545 -0.0138 -1.1088 -0.0586
 2674TIP3   OH229436   3.488   0.684   0.320  0.4056  0.2528  0.3245
 2674TIP3    H129437   3.507   0.763   0.370  0.2558 -0.6973  1.9576
 2674TIP3    H229438   3.554   0.621   0.351  1.7966  0.2569 -2.3626
 2675TIP3   OH229439   3.169   2.530   5.426  0.5579 -0.0441 -0.0336
 2675TIP3    H129440   3.121   2.566   5.351 -3.2959 -0.2841  2.0576
 2675TIP3    H229441   3.200   2.608   5.473  0.5402  0.2154 -0.4426
 2676TIP3   OH229442   3.918   3.470  11.376  0.0547  0.0509  0.5097
 2676TIP3    H129443   3.968   3.410  11.432 -0.1778  1.8351  2.7571
 2676TIP3    H229444   3.858   3.413  11.328  0.8632 -1.6505  1.4031
 2677TIP3   OH229445   4.438   2.907  13.575  0.4414 -0.2175 -0.3368
 2677TIP3    H129446   4.427   2.830  13.519  0.4214  0.1180 -0.8043
 2677TIP3    H229447   4.353   2.918  13.618 -1.4059  2.4997 -4.1018
 2678TIP3   OH229448   0.916   0.814   3.899 -0.2998  0.3228 -0.2461
 2678TIP3    H129449   0.917   0.723   3.868  0.8702 -0.0504  0.8037
 2678TIP3    H229450   0.871   0.809   3.984  0.5049  0.5673  0.2069
 2679TIP3   OH229451   1.522   3.901   3.343  0.4460  1.0397  0.1644
 2679TIP3    H129452   1.604   3.918   3.388  1.2066  0.8569 -1.0882
 2679TIP3    H229453   1.510   3.806   3.348  0.7733  0.9613 -0.3767
 2680TIP3   OH229454   4.454   3.793   4.185  0.1331 -0.2407  0.1103
 2680TIP3    H129455   4.484   3.874   4.144 -1.2246 -0.2290 -0.9429
 2680TIP3    H229456   4.526   3.731   4.172  2.1509  1.2996  2.8736
 2681TIP3   OH229457   2.786   3.119  12.337 -0.3769  0.2847  0.2401
 2681TIP3    H129458   2.807   3.115  12.244 -1.9300 -1.7547 -0.0905
 2681TIP3    H229459   2.714   3.182  12.343 -1.4867 -0.9049 -0.2381
 2682TIP3   OH229460   3.577   4.060   5.157  0.1318 -0.1920  0.4672
 2682TIP3    H129461   3.562   4.031   5.247 -1.0360 -1.2508 -0.0407
 2682TIP3    H229462   3.494   4.099   5.130  0.9988  1.7342  0.3903
 2683TIP3   OH229463   6.615   1.908  13.913  0.3405  1.0120 -0.0378
 2683TIP3    H129464   6.531   1.875  13.880  1.1643  1.3673 -2.7060
 2683TIP3    H229465   6.681   1.861  13.862  1.7997  1.0563  1.7070
 2684TIP3   OH229466   0.146   0.956  11.124 -0.2865  0.3152  0.0238
 2684TIP3    H129467   0.061   0.940  11.165  0.3986 -1.3849  0.8663
 2684TIP3    H229468   0.131   0.942  11.030 -1.1873  1.2119  0.0217
 2685TIP3   OH229469   3.154   0.636  14.110  0.0347 -0.0976  0.4619
 2685TIP3    H129470   3.092   0.702  14.141  1.4383  0.8562  1.3704
 2685TIP3    H229471   3.219   0.629  14.180  0.7325 -1.3670 -0.2714
 2686TIP3   OH229472   0.625   5.074   0.761  0.3341 -0.0787  0.1275
 2686TIP3    H129473   0.549   5.127   0.786 -0.2366 -0.6618 -0.3125
 2686TIP3    H229474   0.604   5.043   0.673  0.6253 -1.0767  0.3962
 2687TIP3   OH229475   1.018   2.218  15.300 -0.4135  0.2495 -0.3032
 2687TIP3    H129476   0.971   2.206  15.382 -0.1232 -1.2311 -0.3177
 2687TIP3    H229477   1.045   2.130  15.275  0.3684  0.7939 -1.4802
 2688TIP3   OH229478   4.311   3.809   2.601 -0.5108  0.0018 -0.1842
 2688TIP3    H129479   4.222   3.791   2.571 -0.5101  1.5323 -1.2195
 2688TIP3    H229480   4.300   3.850   2.687 -0.6748 -1.6146  0.5972
 2689TIP3   OH229481   3.472   5.354   2.787  0.6230  0.0789  0.3983
 2689TIP3    H129482   3.388   5.308   2.785  0.4997  0.3198 -1.0656
 2689TIP3    H229483   3.448   5.447   2.785  0.8909  0.1524 -1.4221
 2690TIP3   OH229484   6.530   1.963  16.194  0.1588  0.0997 -0.3203
 2690TIP3    H129485   6.529   2.032  16.128  0.2166 -1.8343 -2.4597
 2690TIP3    H229486   6.622   1.938  16.201 -0.0245 -0.6802 -0.6007
 2691TIP3   OH229487   1.167   4.502  12.981 -0.0919  0.4601  0.1197
 2691TIP3    H129488   1.108   4.480  12.909 -1.8950  2.9694  0.6887
 2691TIP3    H229489   1.254   4.502  12.942 -0.6599 -1.2321 -1.2777
 2692TIP3   OH229490   0.846   2.861  14.824 -0.2383  0.2219 -0.4099
 2692TIP3    H129491   0.878   2.814  14.901  2.6633  0.6783 -1.2236
 2692TIP3    H229492   0.848   2.795  14.754  0.1099  0.5679 -0.7298
 2693TIP3   OH229493   3.394   0.470   4.827 -0.1009 -0.0451 -0.0608
 2693TIP3    H129494   3.411   0.470   4.733 -3.0383  0.2613 -0.7071
 2693TIP3    H229495   3.452   0.403   4.863 -0.6283 -1.9492 -2.4883
 2694TIP3   OH229496   2.675   2.689   5.959 -1.0576 -0.9403 -0.3391
 2694TIP3    H129497   2.656   2.702   6.052 -0.0861 -0.2758 -0.2190
 2694TIP3    H229498   2.678   2.777   5.922  0.1852 -1.0876 -0.6557
 2695TIP3   OH229499   0.807   1.659  11.873  0.5996  0.0964 -0.1993
 2695TIP3    H129500   0.881   1.672  11.933  2.6568  0.2034 -2.5989
 2695TIP3    H229501   0.843   1.608  11.801 -2.0855 -1.0552 -0.8444
 2696TIP3   OH229502   6.309   3.526   5.619  0.6794 -0.3668  0.1673
 2696TIP3    H129503   6.234   3.499   5.566  0.5417  0.0059  0.1618
 2696TIP3    H229504   6.269   3.570   5.695  0.8966  0.2507 -0.0645
 2697TIP3   OH229505   3.222   1.615  14.050  0.3692  0.6267  0.0381
 2697TIP3    H129506   3.272   1.609  13.968  0.9824 -2.2896  0.5289
 2697TIP3    H229507   3.284   1.591  14.118 -0.5943  1.2739  1.1847
 2698TIP3   OH229508   6.248   5.025  12.078 -0.1249  0.2802 -0.1637
 2698TIP3    H129509   6.201   4.992  12.001  1.2530  2.1727 -1.9366
 2698TIP3    H229510   6.231   5.119  12.078  2.3279  0.7885  0.0328
 2699TIP3   OH229511   5.620   6.749  13.263 -0.1784 -1.1913  0.7578
 2699TIP3    H129512   5.568   6.728  13.186 -1.3764  0.1466  1.1560
 2699TIP3    H229513   5.567   6.812  13.312  2.2750  1.1841  0.6067
 2700TIP3   OH229514   5.157   2.397  15.343  0.0603  0.4530 -0.1066
 2700TIP3    H129515   5.061   2.394  15.342  0.0527 -0.3948  1.0926
 2700TIP3    H229516   5.180   2.391  15.436  1.2432  2.5237 -0.2225
 2701TIP3   OH229517   3.862   3.702  15.453  0.4167  0.2329  0.2943
 2701TIP3    H129518   3.855   3.796  15.466  0.6855  0.0618  1.8560
 2701TIP3    H229519   3.901   3.693  15.365  0.5943  1.5692  0.2154
 2702TIP3   OH229520   6.004   5.496  15.720 -0.0843 -0.5110 -0.0343
 2702TIP3    H129521   6.002   5.479  15.814  0.5648  2.1613  0.5442
 2702TIP3    H229522   6.079   5.447  15.688  0.6459 -0.1918  1.1354
 2703TIP3   OH229523   1.081   0.645  13.709 -0.1860  0.2060  0.2508
 2703TIP3    H129524   1.009   0.707  13.699  0.2180  0.8390  1.2426
 2703TIP3    H229525   1.119   0.638  13.621 -0.3869  1.1700  0.0799
 2704TIP3   OH229526   4.012   6.140  10.941 -0.0337 -0.7022 -0.0591
 2704TIP3    H129527   4.002   6.045  10.937 -0.4176 -0.6372 -1.2841
 2704TIP3    H229528   4.018   6.167  10.849 -1.3465  0.6000  0.1896
 2705TIP3   OH229529   4.132   1.354   1.202  0.8925 -0.1193  0.3037
 2705TIP3    H129530   4.062   1.308   1.156  2.0557  0.7700 -2.5361
 2705TIP3    H229531   4.195   1.285   1.223 -0.6463 -0.9146  2.8239
 2706TIP3   OH229532   6.505   5.141   5.309  0.0734 -0.1089 -0.6880
 2706TIP3    H129533   6.465   5.137   5.396  0.5200  0.0534 -0.4754
 2706TIP3    H229534   6.441   5.099   5.252 -0.3561  0.0498 -0.3310
 2707TIP3   OH229535   2.252   2.259  16.736 -0.6399 -0.5493  0.2792
 2707TIP3    H129536   2.338   2.299  16.727  0.0681 -1.4636  2.3791
 2707TIP3    H229537   2.268   2.165  16.726 -1.8254 -0.6118 -1.7004
 2708TIP3   OH229538   2.403   3.672   5.146  0.4319  0.2333 -0.0190
 2708TIP3    H129539   2.387   3.719   5.227  2.7591 -3.4115  2.9173
 2708TIP3    H229540   2.498   3.672   5.137  0.3354 -1.1530 -1.5957
 2709TIP3   OH229541   5.613   2.562   6.525  0.0190 -0.6049 -0.1602
 2709TIP3    H129542   5.609   2.653   6.496  0.4031 -0.7146 -0.5594
 2709TIP3    H229543   5.554   2.515   6.466 -1.5809 -0.3383  1.1516
 2710TIP3   OH229544   2.814   0.513  15.360  0.0598 -0.0846  0.0759
 2710TIP3    H129545   2.769   0.504  15.444  1.1143 -0.9078  0.5683
 2710TIP3    H229546   2.763   0.580  15.313 -1.1864 -0.3974  0.9253
 2711TIP3   OH229547   2.787   3.199  11.109 -0.2860 -0.1544 -0.0862
 2711TIP3    H129548   2.779   3.284  11.067  1.5172  0.1273  0.0698
 2711TIP3    H229549   2.755   3.213  11.198  0.3035  0.4378  0.0333
 2712TIP3   OH229550   2.431   0.282  14.021 -0.0312  0.4273 -0.6110
 2712TIP3    H129551   2.439   0.188  14.039  1.6649  0.5273 -0.7199
 2712TIP3    H229552   2.357   0.310  14.075  0.4021 -0.6821  0.6301
 2713TIP3   OH229553   0.522   1.029  15.350  0.0377  0.7455  0.0972
 2713TIP3    H129554   0.526   0.961  15.283 -1.7386  0.0358  0.6548
 2713TIP3    H229555   0.563   0.989  15.427 -2.9654 -0.6595  1.1209
 2714TIP3   OH229556   5.950   5.233  11.896 -0.4503 -0.2146  0.5100
 2714TIP3    H129557   6.002   5.235  11.816 -1.8574  1.8058 -0.4342
 2714TIP3    H229558   6.014   5.224  11.966  0.8849 -1.1712 -0.7570
 2715TIP3   OH229559   1.491   1.052  13.146  0.4319  0.4223  0.3231
 2715TIP3    H129560   1.515   0.966  13.112 -3.8367 -0.3876 -1.2210
 2715TIP3    H229561   1.488   1.041  13.241  2.4686 -0.2799  0.3565
 2716TIP3   OH229562   2.558   1.591  14.062 -0.4106  0.0463 -0.1793
 2716TIP3    H129563   2.550   1.569  13.969 -0.2575  0.6813 -0.3467
 2716TIP3    H229564   2.637   1.645  14.067  0.1540 -0.8149  0.4767
 2717TIP3   OH229565   4.103   5.987  10.321  0.4562  0.0179  0.5194
 2717TIP3    H129566   4.053   5.921  10.274  1.1366  0.8178 -1.4623
 2717TIP3    H229567   4.183   5.942  10.348  0.5343 -0.2026 -0.0595
 2718TIP3   OH229568   1.004   0.980   4.795 -0.1576 -0.5671 -0.0622
 2718TIP3    H129569   1.088   0.984   4.840 -0.3452 -1.9057  0.4595
 2718TIP3    H229570   1.015   1.035   4.717  0.4715  1.0473  1.1105
 2719TIP3   OH229571   5.098   4.091   0.597 -0.4894  0.1926  0.1196
 2719TIP3    H129572   5.155   4.056   0.666  0.9340 -0.1817 -1.1621
 2719TIP3    H229573   5.091   4.019   0.534  0.3236  1.2935 -1.3083
 2720TIP3   OH229574   5.691   3.639   0.728 -0.4226 -0.2170  0.1580
 2720TIP3    H129575   5.647   3.705   0.674 -0.1389 -0.2050 -0.0691
 2720TIP3    H229576   5.690   3.675   0.816  0.9317  0.7574 -0.1775
 2721TIP3   OH229577   5.265   4.535   0.294  0.2648 -0.0113  0.3356
 2721TIP3    H129578   5.182   4.487   0.301  0.4030 -0.1855  0.8133
 2721TIP3    H229579   5.308   4.521   0.378  0.3677  0.8342  0.4372
 2722TIP3   OH229580   0.239   5.087  14.416  0.6699 -1.1477 -0.4798
 2722TIP3    H129581   0.298   5.109  14.488 -1.0043 -3.0548  1.6570
 2722TIP3    H229582   0.205   5.172  14.386  0.1809 -0.2878  2.1810
 2723TIP3   OH229583   1.074   1.718  13.235 -0.2493  0.0018 -0.3153
 2723TIP3    H129584   1.143   1.653  13.246  0.1156  0.4833  0.3149
 2723TIP3    H229585   1.058   1.721  13.141  1.1130  0.4232 -0.5571
 2724TIP3   OH229586   1.350   2.093  15.501  0.4186 -0.4410  0.4790
 2724TIP3    H129587   1.353   2.059  15.412  0.3341 -0.7549  0.5948
 2724TIP3    H229588   1.438   2.128  15.516  0.1536  0.4689 -0.0574
 2725TIP3   OH229589   6.597   4.482   0.267 -0.0209  0.1028 -0.4277
 2725TIP3    H129590   6.557   4.477   0.180  1.9840 -0.5481 -1.3735
 2725TIP3    H229591   6.589   4.393   0.303  0.4572 -0.0153 -0.5955
 2726TIP3   OH229592   4.162   5.535  14.498  0.2965  0.3170  0.4378
 2726TIP3    H129593   4.131   5.558  14.586 -0.3018 -0.1442  0.3527
 2726TIP3    H229594   4.085   5.499  14.454  1.0543 -1.3978  0.4140
 2727TIP3   OH229595   2.972   1.372   0.415 -0.0330  0.4181 -0.2281
 2727TIP3    H129596   2.995   1.421   0.494 -0.7366 -0.5292  0.5855
 2727TIP3    H229597   3.003   1.283   0.432 -2.3304 -0.4021  0.0508
 2728TIP3   OH229598   4.117   3.325  13.512 -0.1866 -0.2920  0.3626
 2728TIP3    H129599   4.136   3.299  13.421  1.1279 -2.2727  1.1422
 2728TIP3    H229600   4.203   3.336  13.552 -0.7613  0.2353  1.4795
 2729TIP3   OH229601   5.857   6.783   4.227  0.1460 -1.1302 -0.0494
 2729TIP3    H129602   5.933   6.798   4.283  0.8610 -0.3392 -1.1993
 2729TIP3    H229603   5.872   6.839   4.151 -2.1866 -0.0309  0.2387
 2730TIP3   OH229604   6.322   2.925  15.283 -0.0799  0.1937  0.1861
 2730TIP3    H129605   6.351   2.940  15.193  1.8074  0.6619  0.8265
 2730TIP3    H229606   6.258   2.854  15.276 -1.5545  1.6095 -1.7452
 2731TIP3   OH229607   1.862   2.987  11.839  0.2013  0.1376  0.0220
 2731TIP3    H129608   1.811   2.906  11.846  1.4395 -0.5365  2.4032
 2731TIP3    H229609   1.919   2.987  11.916  0.6910  3.0090 -0.2041
 2732TIP3   OH229610   2.325   1.071  13.053  0.6436 -0.0110  0.1694
 2732TIP3    H129611   2.275   0.990  13.053  0.5389  0.0378 -1.3916
 2732TIP3    H229612   2.417   1.043  13.050  0.6150 -0.0732 -0.1240
 2733TIP3   OH229613   5.481   2.720   1.985 -0.8117  0.2908 -0.8792
 2733TIP3    H129614   5.465   2.713   1.891  1.0999 -0.4526 -1.1950
 2733TIP3    H229615   5.475   2.630   2.017  0.1858  0.3050 -0.6135
 2734TIP3   OH229616   6.099   0.702   5.510  0.1661  0.4056  0.3859
 2734TIP3    H129617   6.156   0.642   5.556 -0.3758 -2.0824 -1.9511
 2734TIP3    H229618   6.147   0.724   5.430 -0.4810  1.5306  0.2862
 2735TIP3   OH229619   4.855   2.579   2.358 -0.3981  0.0878  0.1387
 2735TIP3    H129620   4.937   2.587   2.310  0.0072  2.0582  1.0657
 2735TIP3    H229621   4.828   2.488   2.345  1.9060 -0.6006 -0.2148
 2736TIP3   OH229622   4.754   2.744  15.522  0.5649  0.5480 -0.1210
 2736TIP3    H129623   4.678   2.728  15.579  0.1470 -1.3370 -1.1218
 2736TIP3    H229624   4.824   2.768  15.582 -0.1478 -0.3111  1.1031
 2737TIP3   OH229625   4.619   0.366  15.575 -0.3152 -0.0463 -0.4824
 2737TIP3    H129626   4.680   0.438  15.586 -0.1685  0.5954 -4.1940
 2737TIP3    H229627   4.532   0.407  15.577 -0.4435 -0.3295  0.6367
 2738TIP3   OH229628   2.188   4.721  13.130 -0.3508 -0.2371 -0.1720
 2738TIP3    H129629   2.248   4.752  13.198  0.4393 -1.1283 -0.4329
 2738TIP3    H229630   2.169   4.798  13.076  1.1035 -0.0736 -0.4812
 2739TIP3   OH229631   6.778   6.607   0.192  0.0707 -0.5539  0.0019
 2739TIP3    H129632   6.727   6.563   0.259  0.6561 -1.0796  0.1131
 2739TIP3    H229633   6.771   6.550   0.115  1.7757 -1.4871  0.4800
 2740TIP3   OH229634   3.853   3.435  12.875 -0.1725 -0.4043 -0.1621
 2740TIP3    H129635   3.903   3.386  12.940 -2.7530 -1.9343  0.8573
 2740TIP3    H229636   3.844   3.523  12.912  0.4885 -0.5504  0.3466
 2741TIP3   OH229637   0.833   4.312  13.062 -0.3540 -0.0273 -0.1361
 2741TIP3    H129638   0.907   4.313  13.122  0.2382 -1.2197 -0.8063
 2741TIP3    H229639   0.769   4.254  13.103 -1.1988  1.4701  0.7298
 2742TIP3   OH229640   6.194   2.512   4.174  0.1043 -0.4936  0.0940
 2742TIP3    H129641   6.229   2.448   4.236  0.3286 -0.2206  0.2492
 2742TIP3    H229642   6.181   2.591   4.226 -0.5975 -0.5452  0.0003
 2743TIP3   OH229643   1.758   3.154  13.575 -0.3813  0.7015  0.6487
 2743TIP3    H129644   1.721   3.109  13.500 -3.5242  1.5856  1.5143
 2743TIP3    H229645   1.829   3.207  13.539 -0.3397 -0.5757 -1.2664
 2744TIP3   OH229646   0.112   6.149   2.548  0.2473 -0.1240 -0.4530
 2744TIP3    H129647   0.114   6.243   2.563 -2.0289  0.1068 -1.3023
 2744TIP3    H229648   0.035   6.118   2.595 -1.8799 -0.7264 -3.9330
 2745TIP3   OH229649   6.744   1.035  14.145 -0.0222 -0.2452  0.1076
 2745TIP3    H129650   6.833   1.053  14.173 -0.0181  0.2833 -0.2143
 2745TIP3    H229651   6.692   1.037  14.226  0.3102 -0.9342  0.3392
 2746TIP3   OH229652   6.691   1.787   4.646  0.5381  0.2854 -0.2725
 2746TIP3    H129653   6.783   1.803   4.626  1.0048 -0.3277  1.2204
 2746TIP3    H229654   6.693   1.732   4.724 -1.1039  1.3517  0.5840
 2747TIP3   OH229655   1.632   2.594  15.170  0.2581  0.2141 -0.6307
 2747TIP3    H129656   1.649   2.660  15.237 -0.8046 -1.8757  1.8901
 2747TIP3    H229657   1.566   2.635  15.113  0.6894  1.8253 -0.0312
 2748TIP3   OH229658   6.594   3.743  16.673  0.5529  0.2448 -0.8261
 2748TIP3    H129659   6.509   3.782  16.655 -0.1451 -0.5483  0.6106
 2748TIP3    H229660   6.575   3.653  16.701  1.4648  1.0476  3.0143
 2749TIP3   OH229661   1.134   6.108  16.683  0.0923 -0.2672 -0.5072
 2749TIP3    H129662   1.077   6.031  16.682  0.0257 -0.2113 -1.1639
 2749TIP3    H229663   1.096   6.167  16.619 -1.1936  1.3107  1.5881
 2750TIP3   OH229664   0.497   2.660   2.227 -0.5044  0.0782 -0.4570
 2750TIP3    H129665   0.521   2.657   2.135 -0.6007  1.0119 -0.5210
 2750TIP3    H229666   0.403   2.676   2.227 -0.6023 -0.4720 -0.1941
 2751TIP3   OH229667   0.732   5.198  13.333  0.3466  0.2338  1.2280
 2751TIP3    H129668   0.698   5.230  13.249  3.1550 -0.6175 -0.3798
 2751TIP3    H229669   0.770   5.275  13.375  2.7229  0.0360 -0.3627
 2752TIP3   OH229670   1.704   2.504  16.606 -0.0159 -0.2897  0.3147
 2752TIP3    H129671   1.710   2.599  16.596 -2.7141  0.1614  1.8506
 2752TIP3    H229672   1.717   2.489  16.699  1.8678 -1.6492 -0.1215
 2753TIP3   OH229673   4.914   4.962   4.203  0.1573  0.4307 -0.5713
 2753TIP3    H129674   4.834   5.002   4.237  0.0584  0.2278 -0.5659
 2753TIP3    H229675   4.901   4.957   4.109 -0.9544 -2.0215 -0.3555
 2754TIP3   OH229676   0.170   4.333   2.881  0.4085  0.3954 -0.1923
 2754TIP3    H129677   0.235   4.395   2.914  0.5488 -0.1637  0.6208
 2754TIP3    H229678   0.209   4.295   2.803 -0.0139  1.9009 -1.1765
 2755TIP3   OH229679   4.921   5.080   6.508 -0.6111 -0.6749  0.1985
 2755TIP3    H129680   4.843   5.095   6.562  0.7636  0.3066  2.0195
 2755TIP3    H229681   4.888   5.076   6.418 -2.9131 -1.6238  1.0045
 2756TIP3   OH229682   3.664   5.218  11.651  0.0599 -0.0830 -0.0194
 2756TIP3    H129683   3.666   5.124  11.636 -1.0437 -0.2689  0.8775
 2756TIP3    H229684   3.657   5.228  11.746  2.2636  0.9649  0.0929
 2757TIP3   OH229685   5.644   2.070  13.809  0.0621 -0.5772  0.1746
 2757TIP3    H129686   5.608   2.001  13.865 -1.4401  1.7251  2.2404
 2757TIP3    H229687   5.736   2.074  13.833 -0.3020 -0.4507  1.6447
 2758TIP3   OH229688   1.970   0.384  16.767 -0.9778  0.1767  0.1590
 2758TIP3    H129689   2.030   0.323  16.809 -0.9991  0.8240  1.1714
 2758TIP3    H229690   1.912   0.329  16.714 -0.6224 -0.6140  0.5780
 2759TIP3   OH229691   2.467   6.467   5.712 -0.0054  0.2956 -0.3882
 2759TIP3    H129692   2.392   6.517   5.679  0.9583  1.0465 -1.5107
 2759TIP3    H229693   2.427   6.394   5.760 -1.4461  1.0537 -0.3735
 2760TIP3   OH229694   0.798   1.764   1.643  0.1514 -0.0156 -0.3772
 2760TIP3    H129695   0.735   1.836   1.633 -1.3971 -0.8401  2.2569
 2760TIP3    H229696   0.754   1.689   1.604  0.1100 -0.2938  0.1938
 2761TIP3   OH229697   2.053   0.924  15.938 -0.1288 -0.2868  0.1782
 2761TIP3    H129698   2.087   0.910  15.849  1.0584  1.2335  0.3501
 2761TIP3    H229699   2.105   0.866  15.993  0.7314  0.4536  0.1595
 2762TIP3   OH229700   5.222   5.679   2.749 -0.3036  0.0307  0.8262
 2762TIP3    H129701   5.311   5.664   2.719 -0.8264 -2.5149  0.2424
 2762TIP3    H229702   5.175   5.708   2.671 -0.4519 -0.9699  0.5254
 2763TIP3   OH229703   6.113   3.403  12.426  0.0049 -0.3240 -0.1627
 2763TIP3    H129704   6.196   3.357  12.420  0.2469  0.1684 -0.6245
 2763TIP3    H229705   6.125   3.482  12.374 -1.1060 -0.7774 -1.1463
 2764TIP3   OH229706   3.660   6.232  12.049 -0.3497 -0.1803  0.5384
 2764TIP3    H129707   3.682   6.325  12.053 -1.3724  0.2865 -2.3576
 2764TIP3    H229708   3.744   6.189  12.036  0.0738  0.3579  1.3561
 2765TIP3   OH229709   6.348   0.415   6.180  0.4187 -0.6180  0.2402
 2765TIP3    H129710   6.407   0.473   6.228 -0.2894 -0.8930  1.4739
 2765TIP3    H229711   6.405   0.366   6.121  1.3978 -0.7554  1.2733
 2766TIP3   OH229712   6.147   0.703   1.857 -0.1034  0.8953 -0.2331
 2766TIP3    H129713   6.079   0.635   1.861  0.7364  0.0961  1.7285
 2766TIP3    H229714   6.227   0.656   1.834  0.5610  1.0825  1.4977
 2767TIP3   OH229715   3.531   0.620  11.926 -0.5504  0.0315 -1.0095
 2767TIP3    H129716   3.547   0.607  11.833 -2.3364 -0.8246 -1.2252
 2767TIP3    H229717   3.459   0.683  11.929 -0.5545 -0.0062 -0.1978
 2768TIP3   OH229718   2.882   6.116  12.994  0.1056 -0.2854 -0.1438
 2768TIP3    H129719   2.872   6.206  13.026 -0.1819  0.0710 -1.1895
 2768TIP3    H229720   2.854   6.120  12.903  0.5314 -1.3473 -0.3360
 2769TIP3   OH229721   5.481   3.950   1.508 -0.4449  0.2266 -0.0244
 2769TIP3    H129722   5.498   3.967   1.600  1.1917  2.4552 -0.6767
 2769TIP3    H229723   5.413   4.013   1.484  0.1604  0.6440 -0.6667
 2770TIP3   OH229724   0.940   3.504  15.769  0.6184 -0.2740  0.2164
 2770TIP3    H129725   0.948   3.586  15.817  1.8431 -0.3533  0.1893
 2770TIP3    H229726   0.869   3.457  15.812  0.4156  0.4746  0.7123
 2771TIP3   OH229727   1.693   5.506   5.244 -0.8078 -0.2637  0.3831
 2771TIP3    H129728   1.722   5.587   5.286 -1.9296  0.4803 -0.2218
 2771TIP3    H229729   1.664   5.450   5.317 -1.2699  0.3988  0.7183
 2772TIP3   OH229730   5.210   2.833  16.155  0.2178  0.1393  0.0467
 2772TIP3    H129731   5.265   2.859  16.229  0.5510  0.4298 -0.2997
 2772TIP3    H229732   5.122   2.860  16.180  0.6006  1.9607 -0.4546
 2773TIP3   OH229733   3.799   1.649   2.442  0.4786  0.6885 -0.3684
 2773TIP3    H129734   3.765   1.646   2.531  1.4685 -1.3800  0.0163
 2773TIP3    H229735   3.894   1.653   2.453  0.5857  1.0520 -1.3388
 2774TIP3   OH229736   2.576   0.949   3.414 -0.1369 -0.2837  0.3990
 2774TIP3    H129737   2.641   0.924   3.348  1.1270  0.8557  1.1662
 2774TIP3    H229738   2.595   1.041   3.434 -1.3325 -0.2227  1.4029
 2775TIP3   OH229739   4.694   6.696  13.611  0.2617  0.2762  0.2108
 2775TIP3    H129740   4.617   6.707  13.556 -0.4889  1.4162  1.4402
 2775TIP3    H229741   4.671   6.622  13.668  0.0556  0.6196  0.5815
 2776TIP3   OH229742   1.143   5.591   1.095 -0.2120 -0.6068  0.4372
 2776TIP3    H129743   1.103   5.567   1.012  0.8528  0.2200 -0.3569
 2776TIP3    H229744   1.087   5.661   1.129  0.7222  0.8615 -0.8840
 2777TIP3   OH229745   1.247   5.553  14.968 -0.0050  0.5516  0.3572
 2777TIP3    H129746   1.291   5.527  15.049 -0.5607  1.5121  0.9883
 2777TIP3    H229747   1.208   5.473  14.934  0.7807  0.0214  0.6934
 2778TIP3   OH229748   6.295   2.810   5.637 -0.6506  1.4293  0.4020
 2778TIP3    H129749   6.379   2.856   5.634 -0.2049  0.5623 -0.5496
 2778TIP3    H229750   6.308   2.739   5.700 -0.7780  1.4755  0.4833
 2779TIP3   OH229751   5.885   1.511  16.856 -0.1967  0.3207 -0.2409
 2779TIP3    H129752   5.944   1.585  16.868  0.5010 -0.2511 -0.0967
 2779TIP3    H229753   5.822   1.541  16.790  1.4793  0.2393 -1.9607
 2780TIP3   OH229754   5.993   2.360  14.104 -0.3296  0.1005  0.1996
 2780TIP3    H129755   6.003   2.391  14.014 -1.9849  2.4268  0.7180
 2780TIP3    H229756   5.965   2.437  14.153  2.9686 -0.4260  3.3049
 2781TIP3   OH229757   3.661   0.811  16.129 -0.5507 -0.5280 -0.5155
 2781TIP3    H129758   3.664   0.806  16.224 -0.4363  1.7369 -0.3437
 2781TIP3    H229759   3.605   0.738  16.103 -0.6910 -1.1135  1.2838
 2782TIP3   OH229760   4.818   6.754   5.783 -0.0395 -0.2919 -0.4751
 2782TIP3    H129761   4.889   6.818   5.775 -0.8967  0.8985  0.9330
 2782TIP3    H229762   4.760   6.790   5.850 -1.9948 -1.2091 -1.5603
 2783TIP3   OH229763   1.897   2.519   2.414 -0.0152 -0.4863  0.6549
 2783TIP3    H129764   1.956   2.557   2.350  1.5405 -1.7096  1.2975
 2783TIP3    H229765   1.811   2.557   2.394  0.4254 -0.7625 -2.0495
 2784TIP3   OH229766   6.546   3.132  13.971 -0.6884 -0.0768 -0.3466
 2784TIP3    H129767   6.577   3.223  13.976 -1.4262  0.1780 -0.3207
 2784TIP3    H229768   6.452   3.138  13.988 -0.3147 -1.1376  2.6658
 2785TIP3   OH229769   2.687   1.476   3.572 -0.3553 -0.4105 -0.0393
 2785TIP3    H129770   2.726   1.544   3.625  0.3205 -1.9159  1.4864
 2785TIP3    H229771   2.721   1.492   3.483  2.6501 -0.7826  0.9289
 2786TIP3   OH229772   3.174   5.504  15.195 -0.3457 -0.3625 -0.5864
 2786TIP3    H129773   3.220   5.533  15.274  0.1866  1.2793 -1.4630
 2786TIP3    H229774   3.161   5.583  15.144 -0.6796 -1.3820 -2.1581
 2787TIP3   OH229775   2.737   1.974  13.032  0.5386  0.1203  0.1441
 2787TIP3    H129776   2.740   2.007  12.942  1.4950  0.1405  0.1780
 2787TIP3    H229777   2.704   2.048  13.083 -2.8529 -0.7456 -0.5428
 2788TIP3   OH229778   6.593   2.399  13.412  0.1397 -0.8193 -1.0501
 2788TIP3    H129779   6.640   2.357  13.340 -0.9174 -0.3698 -2.0344
 2788TIP3    H229780   6.552   2.476  13.373  0.5320  0.1375  0.3151
 2789TIP3   OH229781   5.305   1.060   1.597 -0.1128 -0.2331 -1.0404
 2789TIP3    H129782   5.255   0.979   1.594 -0.1622 -0.1910 -4.0084
 2789TIP3    H229783   5.300   1.088   1.689 -0.4249 -3.3150 -0.0148
 2790TIP3   OH229784   3.828   0.252   6.602 -0.1529  0.4706  0.4783
 2790TIP3    H129785   3.911   0.262   6.556 -0.0497  0.2753  0.6200
 2790TIP3    H229786   3.766   0.303   6.551  0.0933  0.7666  0.4746
 2791TIP3   OH229787   2.607   2.732   1.930  0.8872 -0.2019 -0.1488
 2791TIP3    H129788   2.654   2.737   1.847  2.0637 -0.6247  0.4770
 2791TIP3    H229789   2.553   2.653   1.922  0.9930 -0.2399 -0.5059
 2792TIP3   OH229790   4.846   2.617  12.518 -0.3180  0.1950  0.2917
 2792TIP3    H129791   4.882   2.638  12.604 -0.1187 -1.8583  0.7617
 2792TIP3    H229792   4.869   2.525  12.504 -0.3171  0.4896 -1.9884
 2793TIP3   OH229793   3.276   5.773   6.252  0.2320 -0.3065  0.1101
 2793TIP3    H129794   3.363   5.795   6.218  0.9055 -1.3027  1.1180
 2793TIP3    H229795   3.284   5.785   6.346 -0.5315 -1.0448  0.2765
 2794TIP3   OH229796   0.032   0.804   5.484 -0.3344 -0.7752  0.0733
 2794TIP3    H129797   0.083   0.758   5.418 -0.3343 -0.8255  0.1076
 2794TIP3    H229798   0.096   0.829   5.551 -0.1936  0.0455 -0.3566
 2795TIP3   OH229799   5.303   6.395   1.912 -0.2947  0.5843 -0.3985
 2795TIP3    H129800   5.256   6.452   1.972  0.8658  2.3038 -1.0571
 2795TIP3    H229801   5.241   6.380   1.840 -0.4609  1.3988 -0.4332
 2796TIP3   OH229802   0.587   0.446   4.463  0.3438  0.0657 -0.1170
 2796TIP3    H129803   0.625   0.442   4.376  0.9034 -2.7130  0.1614
 2796TIP3    H229804   0.499   0.408   4.453  0.1739  0.3090  0.4068
 2797TIP3   OH229805   3.104   3.656  15.484  0.1719 -0.3406 -0.2615
 2797TIP3    H129806   3.138   3.608  15.559 -2.4623 -0.1337  1.1550
 2797TIP3    H229807   3.128   3.747  15.501  0.2024 -0.3869 -0.0593
 2798TIP3   OH229808   3.768   2.908   5.646 -0.1692  0.4076 -0.2213
 2798TIP3    H129809   3.767   3.003   5.632  0.5402  1.0433  3.1741
 2798TIP3    H229810   3.856   2.881   5.621 -0.5627  0.4737 -1.7849
 2799TIP3   OH229811   1.899   5.548   1.348 -0.0133 -0.0180 -1.1447
 2799TIP3    H129812   1.981   5.543   1.300  0.4945  1.8362 -0.5601
 2799TIP3    H229813   1.852   5.621   1.309 -0.4198  0.3255 -0.0652
 2800TIP3   OH229814   0.498   4.649   4.780  0.3975  0.0876 -0.4338
 2800TIP3    H129815   0.503   4.555   4.794 -0.7095  0.3365  2.1617
 2800TIP3    H229816   0.580   4.683   4.816  0.8291  0.1361 -1.4342
 2801TIP3   OH229817   2.802   4.332  14.422 -0.2448  0.6339 -0.0477
 2801TIP3    H129818   2.752   4.270  14.369 -0.3177  0.8069 -0.1780
 2801TIP3    H229819   2.745   4.408  14.431 -0.2034  0.6340  0.2167
 2802TIP3   OH229820   1.666   0.983  14.750  0.6261 -0.1965 -0.3525
 2802TIP3    H129821   1.616   1.061  14.772  0.1972 -0.1559 -1.4426
 2802TIP3    H229822   1.634   0.957  14.664  0.7101 -1.6269  0.0296
 2803TIP3   OH229823   4.330   1.679   2.347 -0.3203  0.0387 -0.2661
 2803TIP3    H129824   4.382   1.641   2.419 -1.0760 -0.4862  0.0091
 2803TIP3    H229825   4.396   1.717   2.289  0.2914  0.8605  0.9126
 2804TIP3   OH229826   1.290   1.298  11.257 -0.7875  0.2475  0.8975
 2804TIP3    H129827   1.366   1.320  11.203 -2.1309  1.8691 -0.4854
 2804TIP3    H229828   1.215   1.328  11.204 -2.3244 -0.5166  2.5626
 2805TIP3   OH229829   0.772   3.394  15.559 -0.5804 -0.2466  0.3969
 2805TIP3    H129830   0.838   3.403  15.628  0.2969 -0.9483 -0.3187
 2805TIP3    H229831   0.798   3.458  15.493 -1.5919  0.6379  0.8330
 2806TIP3   OH229832   4.673   2.586   3.541 -0.3172  0.1511  0.1702
 2806TIP3    H129833   4.730   2.606   3.616  2.7960 -2.5295 -1.2279
 2806TIP3    H229834   4.637   2.499   3.561  0.1038 -0.3486 -1.1345
 2807TIP3   OH229835   2.899   1.343  12.495 -0.5696  0.2645 -0.2067
 2807TIP3    H129836   2.938   1.260  12.523  1.8299  1.8749  1.7045
 2807TIP3    H229837   2.955   1.372  12.424 -0.5346  0.8766  0.0658
 2808TIP3   OH229838   4.264   5.565  15.088  0.8076 -0.0046 -0.9843
 2808TIP3    H129839   4.215   5.642  15.060 -0.9489 -0.5912  0.2775
 2808TIP3    H229840   4.292   5.523  15.007  0.7151  1.2772 -1.7033
 2809TIP3   OH229841   3.829   1.431  15.725 -0.0400  0.0847 -0.4245
 2809TIP3    H129842   3.870   1.369  15.665 -1.5889 -0.7711 -0.6290
 2809TIP3    H229843   3.778   1.377  15.785 -2.8355  1.1799 -1.6706
 2810TIP3   OH229844   5.410   1.810   4.985 -0.3038 -0.4373 -0.0410
 2810TIP3    H129845   5.429   1.863   5.062 -1.0769  0.2163 -0.2797
 2810TIP3    H229846   5.318   1.787   4.994 -0.4413 -0.2288 -0.8353
 2811TIP3   OH229847   3.652   4.996  14.782 -0.0043  0.3676  0.3013
 2811TIP3    H129848   3.645   5.086  14.813  0.3834  0.9709 -1.2577
 2811TIP3    H229849   3.565   4.959  14.797 -0.4870  1.3365  0.0032
 2812TIP3   OH229850   4.969   5.074  17.070  0.4425 -0.3806  0.6015
 2812TIP3    H129851   4.903   5.058  17.003  0.7539  0.5708  0.0316
 2812TIP3    H229852   4.980   5.169  17.070  1.8103 -0.5133  0.6590
 2813TIP3   OH229853   2.643   5.578  12.964 -0.1238  0.4540 -0.0302
 2813TIP3    H129854   2.608   5.652  13.014 -0.7466  0.9762 -1.1775
 2813TIP3    H229855   2.655   5.613  12.875  3.0684  0.2106  0.2003
 2814TIP3   OH229856   5.439   3.950   6.257 -0.3817  0.2055  0.5201
 2814TIP3    H129857   5.496   4.019   6.223 -0.2986 -1.5613 -3.5871
 2814TIP3    H229858   5.450   3.954   6.352  0.7540  4.7435  0.4328
 2815TIP3   OH229859   6.648   4.615   4.937  0.2107 -0.4463 -0.0962
 2815TIP3    H129860   6.618   4.633   5.027 -1.6902 -0.8022 -0.6179
 2815TIP3    H229861   6.568   4.616   4.885  1.3261  0.0117 -1.8547
 2816TIP3   OH229862   0.839   5.461  16.280  0.2481 -0.4967 -0.4913
 2816TIP3    H129863   0.908   5.407  16.241 -0.1590 -1.1963 -0.2635
 2816TIP3    H229864   0.786   5.399  16.330  0.4693  0.2956  0.7747
 2817TIP3   OH229865   0.361   5.844   0.763  0.0409  0.2720 -0.2424
 2817TIP3    H129866   0.451   5.815   0.776 -0.1210  0.4552  1.5793
 2817TIP3    H229867   0.365   5.939   0.766 -0.1859  0.2885 -0.3929
 2818TIP3   OH229868   1.611   6.238   3.810  0.3627 -0.4111  0.4854
 2818TIP3    H129869   1.531   6.278   3.845 -0.1280 -0.9710  0.0237
 2818TIP3    H229870   1.603   6.248   3.715  0.6674 -0.8027  0.4171
 2819TIP3   OH229871   4.257   2.020  10.421  0.0627  0.8520  0.7968
 2819TIP3    H129872   4.339   1.982  10.451 -1.1887  0.1354  3.6673
 2819TIP3    H229873   4.269   2.115  10.432  0.8205  0.8418  0.1824
 2820TIP3   OH229874   2.748   5.584   5.370 -0.0084  0.2388 -0.5382
 2820TIP3    H129875   2.791   5.629   5.297 -0.9613 -0.4826 -1.5776
 2820TIP3    H229876   2.655   5.598   5.355 -0.1998  1.1382  1.2628
 2821TIP3   OH229877   0.593   1.193   2.619  0.1714 -0.1458 -0.2436
 2821TIP3    H129878   0.626   1.205   2.529 -0.0037 -2.9080 -0.7694
 2821TIP3    H229879   0.634   1.113   2.649  0.1317  0.6567  2.1687
 2822TIP3   OH229880   2.092   6.416   4.541 -0.4825  0.3805 -0.2619
 2822TIP3    H129881   2.045   6.350   4.490 -0.9464  1.4406 -1.2538
 2822TIP3    H229882   2.143   6.366   4.604 -1.4912 -0.8817 -0.4139
 2823TIP3   OH229883   6.213   0.907   6.249  0.5401 -0.5452  0.5111
 2823TIP3    H129884   6.241   0.843   6.314  0.4694 -1.7140 -0.5744
 2823TIP3    H229885   6.260   0.884   6.169 -1.8924 -1.3123 -0.8136
 2824TIP3   OH229886   0.507   6.426   2.095 -0.0108  0.5570  0.3176
 2824TIP3    H129887   0.579   6.392   2.148 -0.8433 -0.9441  0.5408
 2824TIP3    H229888   0.436   6.441   2.157 -1.0693 -1.4359 -0.3470
 2825TIP3   OH229889   5.492   2.936   4.097 -0.6607 -0.3354  0.6900
 2825TIP3    H129890   5.493   3.027   4.068  0.7201 -1.0781 -1.9586
 2825TIP3    H229891   5.400   2.917   4.113 -1.0641  1.3101  0.5150
 2826TIP3   OH229892   2.164   5.528   0.675 -0.1167  0.8841 -0.7041
 2826TIP3    H129893   2.160   5.623   0.673  0.1327  0.9360  0.5715
 2826TIP3    H229894   2.237   5.508   0.734 -0.9245 -0.0900  0.0077
 2827TIP3   OH229895   0.834   1.820  15.253 -0.4631 -0.7040  0.0608
 2827TIP3    H129896   0.816   1.740  15.204 -0.7851 -0.4062 -0.3142
 2827TIP3    H229897   0.918   1.803  15.295  0.3000 -0.6139 -1.3530
 2828TIP3   OH229898   5.403   4.061   3.715  0.0468 -0.1741  0.0685
 2828TIP3    H129899   5.443   4.140   3.678 -0.5060 -0.1399 -0.4627
 2828TIP3    H229900   5.378   4.009   3.639 -2.7124  0.6771  0.2935
 2829TIP3   OH229901   4.747   1.263   0.771 -0.3616 -0.6773  0.0982
 2829TIP3    H129902   4.700   1.268   0.688  1.8145 -1.4457 -1.2683
 2829TIP3    H229903   4.760   1.169   0.786 -0.2929 -0.5267  1.0376
 2830TIP3   OH229904   0.071   1.841   5.723  0.3300  0.1245 -0.3441
 2830TIP3    H129905   0.154   1.850   5.770  0.5923 -0.5998 -0.6567
 2830TIP3    H229906   0.063   1.922   5.673 -0.8577  1.7797  2.3128
 2831TIP3   OH229907   4.661   5.161   2.337 -0.4145 -0.2695  0.5040
 2831TIP3    H129908   4.570   5.186   2.354 -0.1596  0.9239  0.2391
 2831TIP3    H229909   4.695   5.232   2.282  0.3095 -1.3551 -0.4919
 2832TIP3   OH229910   4.567   1.825  13.091  0.1621  0.4810 -0.3270
 2832TIP3    H129911   4.555   1.745  13.141 -2.0838  0.8794 -0.1154
 2832TIP3    H229912   4.610   1.886  13.152  0.9693 -0.2205 -0.1762
 2833TIP3   OH229913   3.144   6.097   5.878  0.0531  0.1009  0.0588
 2833TIP3    H129914   3.108   6.096   5.789 -0.6994  0.8216  0.3400
 2833TIP3    H229915   3.091   6.033   5.926  0.8632 -0.7516 -0.1412
 2834TIP3   OH229916   5.030   5.983  15.942 -0.3553  0.1161 -0.3502
 2834TIP3    H129917   4.949   5.932  15.950 -0.6312  0.1431 -2.3976
 2834TIP3    H229918   5.064   5.961  15.855  1.3421  0.8351  0.0935
 2835TIP3   OH229919   2.154   0.668  10.149 -0.4508 -0.9514 -0.2907
 2835TIP3    H129920   2.070   0.623  10.157 -1.0124  0.2443  0.7578
 2835TIP3    H229921   2.200   0.647  10.230 -1.0349  0.9553  0.5733
 2836TIP3   OH229922   4.613   6.282   2.649 -0.1289  0.1769 -0.0207
 2836TIP3    H129923   4.701   6.287   2.613 -0.4389 -2.0220 -1.2481
 2836TIP3    H229924   4.591   6.373   2.673  1.9519  0.9525 -0.8569
 2837TIP3   OH229925   5.558   4.878  14.441  0.2947 -0.1703 -0.0134
 2837TIP3    H129926   5.474   4.880  14.397  0.5995 -0.0251 -0.5912
 2837TIP3    H229927   5.536   4.879  14.535 -0.3593 -0.9610 -0.1503
 2838TIP3   OH229928   4.839   2.341  12.581 -0.4601 -0.6628 -0.4576
 2838TIP3    H129929   4.878   2.280  12.519  0.5400 -0.6187  0.1057
 2838TIP3    H229930   4.913   2.374  12.632 -1.2499 -0.6201  0.6889
 2839TIP3   OH229931   3.932   1.504  12.984 -0.6798  0.0384  0.0870
 2839TIP3    H129932   3.838   1.514  12.997 -1.0023 -1.8943 -0.3385
 2839TIP3    H229933   3.972   1.538  13.064 -2.0017 -2.3596  1.9218
 2840TIP3   OH229934   6.109   3.236  14.690 -0.0183 -0.5545 -0.2402
 2840TIP3    H129935   6.144   3.302  14.749  0.4968  0.8201 -1.9962
 2840TIP3    H229936   6.014   3.245  14.696  0.0361  1.0754 -1.1575
 2841TIP3   OH229937   4.428   0.776  15.161 -0.3265  0.5408  0.3458
 2841TIP3    H129938   4.395   0.693  15.195  3.5084 -1.7664 -0.9449
 2841TIP3    H229939   4.502   0.799  15.218  0.8042  1.1828 -1.2853
 2842TIP3   OH229940   3.262   3.675  11.273 -0.5508  1.0698  0.1123
 2842TIP3    H129941   3.230   3.753  11.317 -1.3436  1.7850 -1.6188
 2842TIP3    H229942   3.287   3.706  11.185  0.7360 -0.3094 -0.0487
 2843TIP3   OH229943   1.315   3.064  15.538  0.5004  0.3807 -0.3458
 2843TIP3    H129944   1.265   3.017  15.472 -0.9378  0.8542  0.3773
 2843TIP3    H229945   1.328   3.001  15.609 -0.0968  0.6029 -0.0342
 2844TIP3   OH229946   0.441   3.488   4.366  0.5547  0.2368  0.2615
 2844TIP3    H129947   0.510   3.514   4.306  2.6635 -0.4588  2.2342
 2844TIP3    H229948   0.487   3.468   4.448 -2.0398  0.1313  1.8006
 2845TIP3   OH229949   1.450   5.024   3.926 -0.2444 -0.8208 -0.3550
 2845TIP3    H129950   1.387   4.962   3.889 -2.0225  0.5781  0.1285
 2845TIP3    H229951   1.482   4.982   4.006  0.6710 -2.2247 -1.4325
 2846TIP3   OH229952   3.355   4.507   0.620  0.1929 -0.2567 -0.2283
 2846TIP3    H129953   3.372   4.510   0.714  1.3842 -1.4349 -0.3825
 2846TIP3    H229954   3.419   4.445   0.586 -1.4612 -1.3094 -1.5571
 2847TIP3   OH229955   2.255   0.612  13.296  0.1753 -0.1792  0.8991
 2847TIP3    H129956   2.217   0.677  13.238  0.9784  0.6812  1.3070
 2847TIP3    H229957   2.251   0.530  13.247  1.5399  0.6511 -0.6977
 2848TIP3   OH229958   0.855   1.661  13.401  0.1216 -0.1822 -0.6542
 2848TIP3    H129959   0.942   1.656  13.361 -0.9484 -0.8392 -3.1193
 2848TIP3    H229960   0.794   1.653  13.327 -2.0581 -0.8736  1.1002
 2849TIP3   OH229961   0.311   6.491   4.766 -0.2728  0.6608  0.1604
 2849TIP3    H129962   0.401   6.493   4.796 -0.0993 -1.2373 -0.1493
 2849TIP3    H229963   0.261   6.534   4.835  0.7570  0.9936  0.7058
 2850TIP3   OH229964   6.431   4.019   2.514 -0.3153 -0.5118  0.4727
 2850TIP3    H129965   6.472   3.980   2.437 -0.1413  0.4221  0.0792
 2850TIP3    H229966   6.495   4.006   2.584  0.2775  0.1473  0.0627
 2851TIP3   OH229967   5.137   1.484   5.590 -0.1158  0.3803 -0.2846
 2851TIP3    H129968   5.154   1.521   5.503  1.6039 -1.7639 -0.9218
 2851TIP3    H229969   5.098   1.399   5.573 -1.7550  0.7890  1.1305
 2852TIP3   OH229970   2.099   5.830   4.283  0.2031  0.5230  0.3347
 2852TIP3    H129971   2.127   5.739   4.290  1.0367  0.8183  1.1082
 2852TIP3    H229972   2.047   5.833   4.203  0.7213 -0.4901 -0.0637
 2853TIP3   OH229973   3.724   5.976   4.097  0.0229 -0.7586 -0.3626
 2853TIP3    H129974   3.816   5.949   4.094  0.7290  1.1705  1.6416
 2853TIP3    H229975   3.722   6.057   4.045 -0.9715 -1.7237 -1.9081
 2854TIP3   OH229976   0.802   3.888  13.655 -0.3827 -0.2439 -0.0808
 2854TIP3    H129977   0.770   3.799  13.672 -1.6261  0.2571  0.3424
 2854TIP3    H229978   0.867   3.904  13.723  1.8051 -1.7426 -1.6910
 2855TIP3   OH229979   1.467   5.828  16.203 -0.5211 -0.0534 -0.1699
 2855TIP3    H129980   1.451   5.922  16.191 -0.3229 -0.0637 -0.5522
 2855TIP3    H229981   1.454   5.813  16.296  1.0252  0.6722  0.2025
 2856TIP3   OH229982   3.332   0.433   6.227  0.5470 -0.1312  0.3116
 2856TIP3    H129983   3.294   0.440   6.140  0.5485 -0.5986  0.2733
 2856TIP3    H229984   3.419   0.473   6.218  0.1488  0.7645  0.3553
 2857TIP3   OH229985   4.900   2.690  12.176 -0.2026  0.2723  0.5123
 2857TIP3    H129986   4.855   2.770  12.149 -1.9556  0.1123  2.6655
 2857TIP3    H229987   4.892   2.689  12.272  1.1357 -1.7137  0.6657
 2858TIP3   OH229988   5.564   6.310  14.016  0.3592  0.2110  0.4921
 2858TIP3    H129989   5.614   6.303  13.935 -0.1454 -0.2851  0.2180
 2858TIP3    H229990   5.612   6.257  14.079  0.0953 -0.4091  0.1827
 2859TIP3   OH229991   0.971   2.976   5.753  0.2328 -0.0886  0.0756
 2859TIP3    H129992   1.065   2.962   5.759  0.1670  0.0895  2.0109
 2859TIP3    H229993   0.934   2.888   5.748  0.5106 -0.1599 -2.2933
 2860TIP3   OH229994   5.708   3.524  12.070  0.0811  0.0985 -0.0371
 2860TIP3    H129995   5.755   3.457  12.020  1.5215 -0.2773  1.7383
 2860TIP3    H229996   5.777   3.573  12.115 -1.0880  1.4180  0.3783
 2861TIP3   OH229997   4.301   0.654   4.244  1.0072 -0.4439  0.2415
 2861TIP3    H129998   4.279   0.743   4.217  1.8387 -0.2998 -0.0010
 2861TIP3    H229999   4.233   0.599   4.203  0.9489 -0.0013 -0.2720
 2862TIP3   OH230000   5.239   6.620   2.904  0.6791 -0.3580 -0.0880
 2862TIP3    H130001   5.288   6.616   2.821  0.6001 -0.4777 -0.1302
 2862TIP3    H230002   5.280   6.554   2.959  0.9026 -0.0914  0.0631
 2863TIP3   OH230003   1.951   1.187   3.894 -0.8134 -0.1092 -0.1916
 2863TIP3    H130004   1.881   1.204   3.957 -0.0703  0.4168  0.5140
 2863TIP3    H230005   1.944   1.094   3.874 -1.4178 -0.1572  0.2227
 2864TIP3   OH230006   1.043   1.404  12.304 -0.4679 -0.1414  0.0707
 2864TIP3    H130007   1.095   1.434  12.379  1.7227  2.7203 -2.3441
 2864TIP3    H230008   0.960   1.453  12.312 -0.5092 -0.3273  0.8972
 2865TIP3   OH230009   6.496   5.361   4.547  0.3732 -0.1589  0.2911
 2865TIP3    H130010   6.501   5.267   4.528  0.5073 -0.2891  0.9530
 2865TIP3    H230011   6.462   5.400   4.466 -1.0061 -0.9339  0.4697
 2866TIP3   OH230012   0.634   5.482   3.292  0.2186  0.6769 -0.2088
 2866TIP3    H130013   0.663   5.451   3.206 -0.6805 -2.2802  0.4451
 2866TIP3    H230014   0.556   5.535   3.274  1.0247  1.5502 -1.2942
 2867TIP3   OH230015   1.527   0.468  17.112  0.2452  0.2910  0.0572
 2867TIP3    H130016   1.579   0.416  17.052  1.5054  0.2351  1.1472
 2867TIP3    H230017   1.585   0.484  17.187 -1.5009 -0.3494  1.6399
 2868TIP3   OH230018   2.925   3.334  14.437  0.3773  0.2532 -0.1254
 2868TIP3    H130019   2.988   3.264  14.422  0.7898  0.2253  1.5519
 2868TIP3    H230020   2.977   3.415  14.426  0.8685  0.2287  1.6608
 2869TIP3   OH230021   2.018   2.898   2.401  0.2831  0.1477 -0.3832
 2869TIP3    H130022   2.000   2.871   2.491  1.2310 -2.5202 -0.9083
 2869TIP3    H230023   1.931   2.911   2.362 -0.3036 -2.3670 -0.0691
 2870TIP3   OH230024   4.325   4.507   3.818  0.2437 -0.2429 -0.2367
 2870TIP3    H130025   4.250   4.475   3.869  0.7101 -0.0141  0.6184
 2870TIP3    H230026   4.297   4.593   3.786  0.5434  0.3502  1.0455
 2871TIP3   OH230027   0.779   3.117  14.174 -0.0414  0.4607  0.7072
 2871TIP3    H130028   0.786   3.107  14.079  0.6787  0.6238  0.7431
 2871TIP3    H230029   0.738   3.035  14.203 -1.8246  1.0839  0.0864
 2872TIP3   OH230030   0.759   1.537   4.216 -0.1945 -0.2572  0.1365
 2872TIP3    H130031   0.765   1.458   4.269 -0.8972  0.8315  1.9533
 2872TIP3    H230032   0.665   1.554   4.209 -0.0478  0.5293 -0.0404
 2873TIP3   OH230033   1.944   1.219   0.384  0.7338  0.4418  0.9482
 2873TIP3    H130034   1.998   1.154   0.428  0.8847 -0.5875 -0.6739
 2873TIP3    H230035   1.863   1.222   0.436 -0.0775 -2.5106  0.0656
 2874TIP3   OH230036   2.440   6.752   3.569  0.2438 -0.1931 -0.5293
 2874TIP3    H130037   2.526   6.779   3.535  0.4073  0.2800  0.2438
 2874TIP3    H230038   2.456   6.728   3.660 -0.7487  1.5906  0.1582
 2875TIP3   OH230039   6.102   5.013  16.499  0.1058 -0.2682 -0.2667
 2875TIP3    H130040   6.072   4.936  16.450 -1.0080 -1.1587  1.7014
 2875TIP3    H230041   6.034   5.028  16.564 -0.3831  3.2315 -1.3782
 2876TIP3   OH230042   0.957   4.816   3.699 -0.1927 -0.2174  0.2421
 2876TIP3    H130043   1.031   4.875   3.710 -0.1118 -0.4533  0.9810
 2876TIP3    H230044   0.909   4.853   3.624  0.1926  0.4270  0.3010
 2877TIP3   OH230045   4.549   2.352  15.070 -0.1847 -0.4532  0.1211
 2877TIP3    H130046   4.547   2.368  15.164  1.1706 -2.8025  0.6181
 2877TIP3    H230047   4.612   2.416  15.037 -0.1342 -0.0821  0.9072
 2878TIP3   OH230048   5.172   6.719   4.099  0.3037  0.2367 -0.3471
 2878TIP3    H130049   5.172   6.804   4.144  0.7017  1.2420 -2.1468
 2878TIP3    H230050   5.187   6.655   4.169  0.2416  1.6610  1.0260
 2879TIP3   OH230051   0.604   0.067   0.546  0.3493 -0.4460  0.0894
 2879TIP3    H130052   0.635   0.121   0.619  0.4927 -1.4229  0.7697
 2879TIP3    H230053   0.641   0.109   0.468  0.3783  0.4864  0.5834
 2880TIP3   OH230054   3.927   3.144  12.345 -0.0524 -0.3677  0.1324
 2880TIP3    H130055   3.856   3.080  12.352 -0.0558 -0.4818 -0.8895
 2880TIP3    H230056   3.918   3.181  12.257  0.4550  0.4513  0.4100
 2881TIP3   OH230057   2.392   5.081  14.888 -0.2216 -0.4709  0.3018
 2881TIP3    H130058   2.432   5.167  14.902  2.4665 -1.1784 -2.0690
 2881TIP3    H230059   2.321   5.077  14.952  1.6357  2.1692  2.8253
 2882TIP3   OH230060   6.111   1.776   4.178  0.2059  0.2352  0.3053
 2882TIP3    H130061   6.089   1.749   4.089  1.7195  1.4930 -0.5132
 2882TIP3    H230062   6.163   1.704   4.212  0.3142  0.0939 -0.1476
 2883TIP3   OH230063   6.368   1.874   4.322 -0.2440 -0.2717  0.0915
 2883TIP3    H130064   6.275   1.899   4.326 -0.2332  0.3519 -2.2784
 2883TIP3    H230065   6.380   1.841   4.233  2.0886  0.7178 -0.0205
 2884TIP3   OH230066   1.448   5.931   3.401  0.2960 -0.3106 -0.4735
 2884TIP3    H130067   1.409   5.980   3.473  3.0059 -0.0227  0.9173
 2884TIP3    H230068   1.541   5.925   3.423  0.9104 -1.8658 -3.0355
 2885TIP3   OH230069   2.138   6.004   0.856 -0.1711 -0.3175  0.1644
 2885TIP3    H130070   2.114   5.943   0.785  0.8139 -0.8432  0.2690
 2885TIP3    H230071   2.230   5.984   0.875  0.0462  0.9230  0.4974
 2886TIP3   OH230072   6.783   0.171   6.241  0.2563  0.1087 -0.0511
 2886TIP3    H130073   6.714   0.237   6.233  0.8375  0.8610  0.8757
 2886TIP3    H230074   6.864   0.221   6.248  0.6314 -0.6316  1.5026
 2887TIP3   OH230075   2.143   6.614   3.592 -0.5260  0.1766 -0.6439
 2887TIP3    H130076   2.214   6.672   3.565 -0.0332 -0.4807 -0.7542
 2887TIP3    H230077   2.164   6.590   3.682  0.7126 -1.9649 -1.4368
 2888TIP3   OH230078   3.731   4.187  14.073 -0.1243 -0.3516 -0.3353
 2888TIP3    H130079   3.643   4.161  14.101  0.0116 -0.5633 -0.1101
 2888TIP3    H230080   3.790   4.128  14.118  0.0730 -1.1200 -1.5607
 2889TIP3   OH230081   5.243   3.116  16.340 -0.5022  0.0112 -0.0521
 2889TIP3    H130082   5.280   3.075  16.418  0.2171  0.5069 -0.1104
 2889TIP3    H230083   5.156   3.145  16.366 -0.7983 -1.0412  0.1488
 2890TIP3   OH230084   6.331   3.855  16.880 -0.1920  0.5773 -0.5096
 2890TIP3    H130085   6.311   3.944  16.853 -3.5262  0.8579  2.1915
 2890TIP3    H230086   6.349   3.862  16.974 -0.5492 -1.5648 -0.2323
 2891TIP3   OH230087   6.498   4.237  15.785  0.0458 -0.2969 -0.3892
 2891TIP3    H130088   6.540   4.300  15.844  1.8302  0.5800 -2.4737
 2891TIP3    H230089   6.566   4.174  15.764  0.1015  0.5470 -3.0342
 2892TIP3   OH230090   0.587   6.006  14.118 -0.4651  0.9766  0.0462
 2892TIP3    H130091   0.665   6.018  14.063 -0.2642  0.7459  0.2775
 2892TIP3    H230092   0.591   5.915  14.146 -1.6773  0.4807 -1.2492
 2893TIP3   OH230093   1.430   0.536  10.866 -0.1500  0.1073  0.2310
 2893TIP3    H130094   1.498   0.603  10.867 -1.1339  1.1441  0.9101
 2893TIP3    H230095   1.477   0.453  10.871  1.0596  0.7930  0.5382
 2894TIP3   OH230096   1.177   5.037  14.906 -0.3626  0.7932  0.0441
 2894TIP3    H130097   1.170   5.097  14.832 -0.8109  0.7296  0.0355
 2894TIP3    H230098   1.089   5.001  14.917  0.0395 -0.3641 -0.3648
 2895TIP3   OH230099   5.534   1.121   5.353  0.2788 -0.4466  0.1476
 2895TIP3    H130100   5.579   1.167   5.282 -1.3961 -0.1672 -0.7980
 2895TIP3    H230101   5.571   1.033   5.352 -1.0354 -1.0988 -2.4718
 2896TIP3   OH230102   2.118   5.200  12.263  0.1279  0.8789  0.0860
 2896TIP3    H130103   2.072   5.134  12.314 -1.4358  3.5505  2.4212
 2896TIP3    H230104   2.145   5.266  12.327  2.4318  2.1123 -1.9669
 2897TIP3   OH230105   3.954   2.072   4.019  0.4433 -0.3023  0.1105
 2897TIP3    H130106   3.899   2.010   4.068  0.9748 -0.2770  0.7486
 2897TIP3    H230107   3.988   2.020   3.946 -1.3660 -0.0137 -1.0077
 2898TIP3   OH230108   3.731   3.122  14.605  0.1263  0.4986 -0.0107
 2898TIP3    H130109   3.682   3.201  14.627  0.8318  0.9915 -0.1740
 2898TIP3    H230110   3.674   3.050  14.632 -0.2574  1.0675  0.7292
 2899TIP3   OH230111   6.360   2.777   4.145  0.1562  0.2244 -0.6777
 2899TIP3    H130112   6.369   2.708   4.212  1.2168  0.8870 -0.1059
 2899TIP3    H230113   6.410   2.745   4.071 -0.1637 -0.0541 -0.7743
 2900TIP3   OH230114   2.698   6.209  15.989  0.4246  0.7512  0.5006
 2900TIP3    H130115   2.698   6.119  16.022 -0.7564  0.2888 -0.6736
 2900TIP3    H230116   2.655   6.260  16.058 -2.2899 -0.2534 -0.2908
 2901TIP3   OH230117   5.777   2.931   2.567 -0.4281 -0.0655  0.1177
 2901TIP3    H130118   5.740   3.006   2.520  0.4422  0.7639  0.7164
 2901TIP3    H230119   5.703   2.894   2.616 -0.3881  2.0706  1.9633
 2902TIP3   OH230120   4.144   2.997  13.647  0.4112 -0.2945 -0.5619
 2902TIP3    H130121   4.154   2.941  13.724  1.5229  1.5387  0.6998
 2902TIP3    H230122   4.115   3.081  13.682 -0.3155  0.2182 -2.2966
 2903TIP3   OH230123   2.844   5.022   0.193 -0.5406 -0.1703 -0.5758
 2903TIP3    H130124   2.885   4.937   0.207  1.3989  0.2662 -2.8903
 2903TIP3    H230125   2.750   5.005   0.202 -0.2085 -2.5434 -0.9131
 2904TIP3   OH230126   4.334   3.798   1.490  0.0228  0.3607 -0.0986
 2904TIP3    H130127   4.275   3.856   1.538 -0.0300  0.6404 -0.4963
 2904TIP3    H230128   4.418   3.808   1.534  0.4604  2.0950 -1.2299
 2905TIP3   OH230129   0.898   6.315   4.266 -0.3123  0.2374 -0.1025
 2905TIP3    H130130   0.991   6.298   4.284 -0.5973 -0.4331  0.8051
 2905TIP3    H230131   0.852   6.242   4.307 -1.2738  0.7805 -0.1903
 2906TIP3   OH230132   4.110   5.287  16.507  0.2073 -0.2252 -0.2608
 2906TIP3    H130133   4.036   5.293  16.567  1.4306 -1.1121  1.4403
 2906TIP3    H230134   4.091   5.210  16.453 -0.2579 -0.2642 -0.0469
 2907TIP3   OH230135   6.385   0.263  13.297  0.0826  0.3056 -0.0500
 2907TIP3    H130136   6.331   0.187  13.316 -0.8338  0.9660  0.0555
 2907TIP3    H230137   6.444   0.234  13.228 -0.3993 -0.4354 -0.1579
 2908TIP3   OH230138   0.719   2.296   0.266 -0.0310 -0.5513  0.0646
 2908TIP3    H130139   0.671   2.267   0.343  0.3323 -0.3378  0.3701
 2908TIP3    H230140   0.666   2.265   0.192 -0.5181 -0.5258  0.3977
 2909TIP3   OH230141   1.048   1.354   3.832  0.0789 -0.1239  0.4678
 2909TIP3    H130142   1.110   1.293   3.873 -1.3192 -1.0248  1.3173
 2909TIP3    H230143   1.032   1.421   3.898  0.7458  0.5617 -0.0508
 2910TIP3   OH230144   6.239   2.486  15.732 -0.2829  0.3947 -0.3249
 2910TIP3    H130145   6.290   2.484  15.813  0.6064  0.2190 -0.8752
 2910TIP3    H230146   6.148   2.480  15.761  0.0658 -1.0297  0.5991
 2911TIP3   OH230147   3.074   4.065  15.292  0.3501  0.2374 -0.4620
 2911TIP3    H130148   3.141   4.089  15.228  3.0043 -1.2862  1.5454
 2911TIP3    H230149   3.069   4.141  15.351  2.4147 -0.6147  0.9239
 2912TIP3   OH230150   1.717   4.481   0.364  0.0552  0.9491  0.8570
 2912TIP3    H130151   1.764   4.448   0.441  0.8314  0.2486  0.1090
 2912TIP3    H230152   1.682   4.566   0.391 -0.4267  0.3327  2.2480
 2913TIP3   OH230153   5.132   6.761  16.662 -0.0103 -0.3364 -0.4295
 2913TIP3    H130154   5.219   6.772  16.700 -0.0398  2.2773 -0.9617
 2913TIP3    H230155   5.146   6.767  16.567 -0.7822  0.4719 -0.5048
 2914TIP3   OH230156   2.586   6.245   0.379 -0.3291  0.1226  0.3960
 2914TIP3    H130157   2.519   6.177   0.391  1.8323 -2.2374 -0.2221
 2914TIP3    H230158   2.620   6.261   0.467  0.4847 -1.0770  0.3194
 2915TIP3   OH230159   1.421   6.373  12.797  0.0788  0.5110  0.0669
 2915TIP3    H130160   1.412   6.399  12.706 -1.1525  0.2057  0.0832
 2915TIP3    H230161   1.461   6.286  12.793  0.2670  0.6089 -0.1740
 2916TIP3   OH230162   5.648   5.004  10.980  0.1014 -0.5623 -0.4537
 2916TIP3    H130163   5.716   4.961  10.929 -1.1539 -2.6003 -0.5249
 2916TIP3    H230164   5.570   4.997  10.925 -0.3659  1.0154 -0.0381
 2917TIP3   OH230165   4.461   6.191   5.816  0.8236  0.2631 -0.4288
 2917TIP3    H130166   4.379   6.237   5.836  0.8370  0.5722 -1.0815
 2917TIP3    H230167   4.529   6.250   5.847  0.8644  1.0304 -1.9225
 2918TIP3   OH230168   1.486   6.625   5.402  0.1932  0.3967 -0.1104
 2918TIP3    H130169   1.455   6.652   5.316 -1.9990  0.9275  0.7768
 2918TIP3    H230170   1.505   6.707   5.448 -0.5816  0.2187  0.5538
 2919TIP3   OH230171   0.791   6.432  12.351 -0.1165 -0.0927  0.7677
 2919TIP3    H130172   0.816   6.370  12.420 -0.4512  0.6258  1.5476
 2919TIP3    H230173   0.814   6.518  12.386  0.6323  0.2250 -0.4317
 2920TIP3   OH230174   4.522   5.927  14.106 -0.1005  0.5265 -0.1768
 2920TIP3    H130175   4.539   5.952  14.015 -1.2563  0.4785 -0.4243
 2920TIP3    H230176   4.514   6.011  14.152  0.4677  0.5513 -0.1238
 2921TIP3   OH230177   3.893   1.125  15.969  0.3775  0.2319 -0.1038
 2921TIP3    H130178   3.808   1.166  15.953  0.5290  0.4621 -0.3346
 2921TIP3    H230179   3.879   1.032  15.953 -0.0584  0.1407  0.7720
 2922TIP3   OH230180   1.270   6.735   2.495  0.8037  0.4841  0.0984
 2922TIP3    H130181   1.326   6.813   2.496 -0.5400  1.4952 -0.5429
 2922TIP3    H230182   1.286   6.695   2.409  0.8711  0.5260  0.0913
 2923TIP3   OH230183   2.886   6.782   3.982  0.1384  0.7033 -0.3175
 2923TIP3    H130184   2.855   6.756   3.896  0.5462 -0.3776 -0.1468
 2923TIP3    H230185   2.862   6.875   3.989 -0.8657  0.5254 -1.1507
 2924TIP3   OH230186   3.507   6.045   5.626  0.0889  0.2623 -0.5365
 2924TIP3    H130187   3.552   5.974   5.580  1.5569  1.3693 -0.8739
 2924TIP3    H230188   3.471   6.099   5.557  0.8798  1.0315 -0.3660
 2925TIP3   OH230189   5.267   1.011  13.925  0.1964 -0.5259 -0.4044
 2925TIP3    H130190   5.236   1.010  13.835 -1.1060  1.8138 -0.0496
 2925TIP3    H230191   5.344   1.068  13.923 -0.1428 -0.0404  0.0275
 2926TIP3   OH230192   6.126   0.160   2.489 -0.2442 -0.0414 -0.1446
 2926TIP3    H130193   6.187   0.105   2.539  1.2213  1.2230 -0.4719
 2926TIP3    H230194   6.090   0.101   2.423  1.8377 -0.4893 -0.9422
 2927TIP3   OH230195   6.355   6.167   1.251 -0.1137 -0.7015 -0.2685
 2927TIP3    H130196   6.305   6.110   1.193  0.0340 -0.2844 -0.8169
 2927TIP3    H230197   6.392   6.233   1.192  0.6199 -0.6876  0.2094
 2928TIP3   OH230198   3.917   0.069   0.997 -0.0802  0.4412 -0.2510
 2928TIP3    H130199   3.956   0.093   1.080 -0.6633 -2.0475  0.8374
 2928TIP3    H230200   3.917  -0.027   0.997 -3.1240  0.3048 -1.5808
 2929TIP3   OH230201   6.170   0.237   4.781  0.1889 -0.2843 -0.3031
 2929TIP3    H130202   6.095   0.288   4.811  1.1626 -0.2878  2.3555
 2929TIP3    H230203   6.147   0.146   4.798  0.0868 -0.4534 -1.2491
 2930TIP3   OH230204   3.816   0.583  13.358  0.9173 -0.2175 -0.1698
 2930TIP3    H130205   3.830   0.518  13.426  1.5214 -0.2492 -0.3149
 2930TIP3    H230206   3.758   0.540  13.295  1.2106 -0.5763 -0.2000
 2931TIP3   OH230207   1.676   6.394  11.558  0.3060  0.1881 -0.1771
 2931TIP3    H130208   1.715   6.333  11.620 -0.4934  0.4568  0.6081
 2931TIP3    H230209   1.633   6.460  11.613  1.1833  1.4891 -0.9950
 2932TIP3   OH230210   4.753   0.310  13.615 -0.2030  0.5460 -0.2585
 2932TIP3    H130211   4.784   0.229  13.656  0.6029 -0.3096 -2.4272
 2932TIP3    H230212   4.738   0.370  13.689 -1.2655 -1.6733  1.4538
 2933TIP3   OH230213   0.053   5.702  15.963  0.1910  0.3377  0.0092
 2933TIP3    H130214   0.057   5.607  15.959  1.0319  0.3961 -0.6712
 2933TIP3    H230215  -0.017   5.720  16.025  0.0603 -0.7234  0.1855
 2934TIP3   OH230216   6.171   5.944   2.454  0.5831  0.0817 -0.0786
 2934TIP3    H130217   6.228   6.014   2.486  0.0472  1.1803 -1.4038
 2934TIP3    H230218   6.097   5.989   2.414 -0.1598 -1.2716 -0.3080
 2935TIP3   OH230219   1.805   1.846  11.269 -0.0348  0.6662 -0.1637
 2935TIP3    H130220   1.736   1.909  11.250 -1.7922 -1.4176 -0.9816
 2935TIP3    H230221   1.808   1.789  11.192  1.1352 -0.5973  0.7715
 2936TIP3   OH230222   1.281   6.200   0.311  0.3938 -0.3795  0.3100
 2936TIP3    H130223   1.189   6.215   0.332  0.4920  1.3498 -0.2771
 2936TIP3    H230224   1.327   6.270   0.357  1.4188 -1.1995  0.5562
 2937TIP3   OH230225   6.416   0.316   5.418 -0.0818 -0.0230  0.3962
 2937TIP3    H130226   6.414   0.287   5.510 -1.1439 -0.2974  0.3064
 2937TIP3    H230227   6.508   0.315   5.394  0.0037 -4.2071  0.1752
 2938TIP3   OH230228   3.598   4.524   2.446 -0.6398  0.3453  0.5219
 2938TIP3    H130229   3.535   4.596   2.443 -1.6215 -0.4923  0.2533
 2938TIP3    H230230   3.596   4.493   2.537 -1.9553 -0.7838  0.1527
 2939TIP3   OH230231   5.565   0.447  16.589  0.2705 -0.2082 -0.5008
 2939TIP3    H130232   5.614   0.524  16.560 -0.3594  0.0008 -1.0395
 2939TIP3    H230233   5.631   0.388  16.625  0.8798  0.1733 -0.9827
 2940TIP3   OH230234   0.171   2.031  16.946  0.5575  0.8880 -0.3781
 2940TIP3    H130235   0.237   2.077  16.998  1.9156 -0.7286 -0.6115
 2940TIP3    H230236   0.212   2.020  16.860  0.2336 -0.6442 -0.3519
 2941TIP3   OH230237   4.956   1.413  12.694 -0.1461  0.4495 -0.3809
 2941TIP3    H130238   4.881   1.426  12.635 -0.4550 -0.0969 -0.1162
 2941TIP3    H230239   5.003   1.339  12.657 -0.9777 -0.6434  0.6753
 2942TIP3   OH230240   3.103   5.462  13.225 -0.3446 -0.6381 -0.2958
 2942TIP3    H130241   3.038   5.412  13.176  0.2656 -2.4625  0.6637
 2942TIP3    H230242   3.058   5.543  13.249 -1.5169 -0.8864 -1.5240
 2943TIP3   OH230243   4.714   6.387   4.978  0.3282  0.0726 -0.0258
 2943TIP3    H130244   4.640   6.441   5.006 -0.4118 -0.9189 -0.0477
 2943TIP3    H230245   4.762   6.370   5.059 -1.6234 -2.5030  0.6998
 2944TIP3   OH230246   3.659   6.379   3.443 -0.1748 -0.1845  0.6686
 2944TIP3    H130247   3.706   6.440   3.499  0.2998 -0.1730  0.2640
 2944TIP3    H230248   3.683   6.404   3.354 -1.7974  0.5131  0.3933
 2945TIP3   OH230249   0.151   4.912  11.252 -0.2447 -0.3372  0.0831
 2945TIP3    H130250   0.087   4.870  11.311 -0.0555 -0.3760  0.2606
 2945TIP3    H230251   0.176   4.843  11.191 -1.7036  0.1297 -1.1236
 2946TIP3   OH230252   1.379   3.451  15.512 -0.2414 -0.7566 -0.0956
 2946TIP3    H130253   1.344   3.438  15.425  0.8766 -1.7072 -0.4293
 2946TIP3    H230254   1.311   3.498  15.559 -0.5388  0.5371 -1.7225
 2947TIP3   OH230255   0.390   1.412  11.374  0.4426  0.2718  0.2969
 2947TIP3    H130256   0.437   1.362  11.308  0.9540 -0.7610  1.4023
 2947TIP3    H230257   0.378   1.498  11.335  1.4066 -0.0762 -0.8304
 2948TIP3   OH230258   0.033   1.229  15.997  0.7870  0.3175  0.3354
 2948TIP3    H130259   0.085   1.293  15.949 -0.6303  2.5110  1.5580
 2948TIP3    H230260   0.044   1.252  16.089 -1.2482  0.0478  0.7103
 2949TIP3   OH230261   2.575   3.007   0.633 -0.2967 -0.1528  0.3206
 2949TIP3    H130262   2.596   3.098   0.656  0.9035 -0.1632 -0.5904
 2949TIP3    H230263   2.498   2.986   0.685 -0.9148  1.5605  0.1712
 2950TIP3   OH230264   2.197   1.513   0.100 -0.1124  0.1693  0.3648
 2950TIP3    H130265   2.272   1.476   0.055 -0.3778 -1.7265  1.3833
 2950TIP3    H230266   2.204   1.480   0.190 -0.8762  1.8994  1.1055
 2951TIP3   OH230267   2.434   3.879  15.670 -0.1870  0.1614 -0.1683
 2951TIP3    H130268   2.448   3.841  15.583  1.3599 -0.7905  0.4435
 2951TIP3    H230269   2.471   3.967  15.664 -0.7792  0.3739 -0.6869
 2952TIP3   OH230270   6.753   3.218   4.451 -0.4736 -0.3420 -0.3617
 2952TIP3    H130271   6.658   3.227   4.456 -0.4404 -0.6067  0.9428
 2952TIP3    H230272   6.771   3.213   4.357 -1.7846 -0.6920 -0.6133
 2953TIP3   OH230273   2.356   3.508  14.662 -0.8550  0.7751 -0.0858
 2953TIP3    H130274   2.284   3.560  14.699 -1.6479  0.1278 -0.6862
 2953TIP3    H230275   2.384   3.452  14.734 -0.0898  1.9093  0.5255
 2954TIP3   OH230276   6.192   2.970  16.573 -0.5351 -0.4007 -0.3801
 2954TIP3    H130277   6.280   3.008  16.576 -0.3980 -0.7955  0.6444
 2954TIP3    H230278   6.177   2.953  16.480  1.4351 -2.5715 -0.3688
 2955TIP3   OH230279   0.270   3.122   3.582  0.7284 -0.1969  0.3662
 2955TIP3    H130280   0.364   3.122   3.600  0.3849 -1.5622  2.5964
 2955TIP3    H230281   0.245   3.030   3.589 -0.5887 -0.0288 -1.5084
 2956TIP3   OH230282   1.726   4.105   5.748  0.1589  0.5925  0.0217
 2956TIP3    H130283   1.779   4.041   5.796 -0.4291  0.2491  0.2191
 2956TIP3    H230284   1.721   4.070   5.659 -4.3425 -2.4317  1.1413
 2957TIP3   OH230285   1.721   0.745  12.505 -0.7281  0.2040  0.3524
 2957TIP3    H130286   1.815   0.733  12.499 -0.9363 -0.9175 -1.3064
 2957TIP3    H230287   1.710   0.827  12.553  1.1108  0.9940 -0.4820
 2958TIP3   OH230288   5.424   2.066   2.613  0.2663 -0.1698  0.2815
 2958TIP3    H130289   5.478   1.990   2.635  0.0645 -0.7965 -1.2354
 2958TIP3    H230290   5.368   2.035   2.542 -0.1194  1.2868 -0.0810
 2959TIP3   OH230291   6.692   2.332  11.728 -0.2125 -0.5388  0.2530
 2959TIP3    H130292   6.714   2.290  11.811 -0.3845 -0.4214  0.3600
 2959TIP3    H230293   6.597   2.326  11.722 -0.5209  1.8358  1.3882
 2960TIP3   OH230294   5.928   1.130  16.673  0.1452 -0.3854 -0.0450
 2960TIP3    H130295   5.892   1.042  16.667 -1.3619  0.2792 -1.3598
 2960TIP3    H230296   5.870   1.176  16.733  1.6136 -0.5613  1.5891
 2961TIP3   OH230297   1.401   2.890  17.204  0.4805  0.1079 -0.7206
 2961TIP3    H130298   1.366   2.922  17.287  0.5880 -1.8265  0.1114
 2961TIP3    H230299   1.389   2.963  17.144 -2.4292  0.5068  0.2065
 2962TIP3   OH230300   4.421   5.675  14.623 -0.1683  0.3107 -0.3595
 2962TIP3    H130301   4.431   5.583  14.597  0.5691  0.2190  0.2159
 2962TIP3    H230302   4.510   5.711  14.617 -0.0743  0.4452  1.3818
 2963TIP3   OH230303   2.728   6.006  15.361 -0.0987 -0.6162 -0.4202
 2963TIP3    H130304   2.784   5.964  15.426 -0.8245 -2.4050 -0.8778
 2963TIP3    H230305   2.684   6.076  15.409  1.2005 -0.3158  0.3729
 2964TIP3   OH230306   2.404   5.854   4.872  0.0948  0.5167 -0.0318
 2964TIP3    H130307   2.339   5.803   4.921  1.4673 -1.1362  0.1862
 2964TIP3    H230308   2.358   5.883   4.793 -1.1233  0.0882  0.4971
 2965TIP3   OH230309   1.122   6.278   2.526  0.4950  0.2229 -0.8121
 2965TIP3    H130310   1.132   6.209   2.461  1.5759  0.5290 -0.9795
 2965TIP3    H230311   1.116   6.232   2.609  0.8500 -0.0872 -0.9570
 2966TIP3   OH230312   5.651   2.996   0.920 -0.0155  0.0396  0.8492
 2966TIP3    H130313   5.573   3.015   0.868  0.1712 -0.1159  0.5117
 2966TIP3    H230314   5.649   2.902   0.933  1.1574 -0.2677 -0.8594
 2967TIP3   OH230315   1.506   5.591  15.683 -0.7321  0.1608 -0.2479
 2967TIP3    H130316   1.504   5.651  15.608 -1.3377  1.1364  0.5312
 2967TIP3    H230317   1.414   5.572  15.701 -0.5655 -0.5875 -0.1325
 2968TIP3   OH230318   2.775   1.695   2.778 -0.0308 -0.0816 -0.1242
 2968TIP3    H130319   2.698   1.726   2.731  0.1440 -0.8718 -0.9610
 2968TIP3    H230320   2.817   1.634   2.717  1.9858  1.3368 -0.2497
 2969TIP3   OH230321   3.952   2.750  11.546  0.0508  0.6538  0.5250
 2969TIP3    H130322   4.009   2.734  11.470 -0.9193 -0.6344  0.0254
 2969TIP3    H230323   3.994   2.703  11.618 -0.6633 -0.8440  0.0077
 2970TIP3   OH230324   4.776   1.152  11.292 -0.0005 -0.4856  0.0954
 2970TIP3    H130325   4.865   1.185  11.302 -0.3609  1.2887 -1.6586
 2970TIP3    H230326   4.722   1.215  11.341 -0.4145 -0.5212 -0.3064
 2971TIP3   OH230327   1.760   3.628   1.457  0.1635  0.1869 -0.3313
 2971TIP3    H130328   1.731   3.681   1.531  0.4676  1.1611 -0.8943
 2971TIP3    H230329   1.827   3.570   1.494 -0.8131 -0.4642  0.4836
 2972TIP3   OH230330   4.148   3.397  14.317 -0.5266 -0.3022  0.3868
 2972TIP3    H130331   4.171   3.304  14.313 -0.0048 -0.2579  1.8021
 2972TIP3    H230332   4.057   3.399  14.347 -0.8042 -0.3654 -0.4344
 2973TIP3   OH230333   2.612   2.504   0.126  0.1978 -0.4853  0.1121
 2973TIP3    H130334   2.551   2.554   0.072  1.7356  0.5637 -0.7329
 2973TIP3    H230335   2.664   2.571   0.172 -0.6359 -1.3392  2.4739
 2974TIP3   OH230336   0.580   5.961   0.046  0.1943  0.1899 -0.4013
 2974TIP3    H130337   0.529   6.035   0.013  1.7557  0.6037 -2.0305
 2974TIP3    H230338   0.569   5.893  -0.021  1.3998  0.1343 -0.5585
 2975TIP3   OH230339   0.126   3.390   0.450  0.0852 -0.0595 -0.1060
 2975TIP3    H130340   0.103   3.451   0.381  4.5194  2.0207 -0.0407
 2975TIP3    H230341   0.080   3.424   0.528  0.5091  1.7415 -0.5979
 2976TIP3   OH230342   0.255   1.572   3.401 -0.1324  0.4041 -0.1273
 2976TIP3    H130343   0.291   1.633   3.464 -1.6438  0.9359  0.2596
 2976TIP3    H230344   0.259   1.618   3.317  0.4591  0.2879 -0.1680
 2977TIP3   OH230345   5.145   2.961   4.438  0.5381 -0.4659 -0.0583
 2977TIP3    H130346   5.193   3.022   4.381 -1.5488  1.3418  0.0046
 2977TIP3    H230347   5.064   2.942   4.391 -1.1151  0.8381  2.0686
 2978TIP3   OH230348   5.540   2.323  14.362 -0.1238 -0.4658  0.2209
 2978TIP3    H130349   5.544   2.411  14.326  0.5859 -1.0536 -1.2285
 2978TIP3    H230350   5.594   2.326  14.441 -0.1124  0.3838  0.1874
 2979TIP3   OH230351   2.204   4.954   2.197 -0.8574 -0.0001  0.1555
 2979TIP3    H130352   2.124   4.987   2.155 -0.1943 -1.1498 -2.2291
 2979TIP3    H230353   2.179   4.868   2.231 -0.8953  0.0763  0.3200
 2980TIP3   OH230354   2.056   0.264   4.374  0.0504 -0.2086  0.1556
 2980TIP3    H130355   2.143   0.239   4.342 -0.3471 -1.9156  0.3287
 2980TIP3    H230356   2.069   0.352   4.410  2.0345 -0.9640  1.4462
 2981TIP3   OH230357   3.267   5.322   3.207  0.1006 -0.2835  0.1138
 2981TIP3    H130358   3.188   5.308   3.155 -0.2415 -0.3045  0.6318
 2981TIP3    H230359   3.301   5.234   3.222  1.4699 -0.1834 -1.9722
 2982TIP3   OH230360   2.837   4.313   4.206  0.2874  0.0536  0.2314
 2982TIP3    H130361   2.807   4.327   4.296  1.6282  0.6718  0.6107
 2982TIP3    H230362   2.862   4.221   4.203 -2.6087 -0.7919 -0.4272
 2983TIP3   OH230363   0.019   6.605   3.834  0.6621  0.0190  0.0257
 2983TIP3    H130364   0.038   6.599   3.927 -0.5879  0.9205  0.3740
 2983TIP3    H230365  -0.010   6.696   3.822 -1.4625 -0.7116 -0.7733
 2984TIP3   OH230366   4.867   0.905   2.708  0.1123 -0.4812  0.2168
 2984TIP3    H130367   4.932   0.909   2.638  2.0621  0.0255  1.9772
 2984TIP3    H230368   4.884   0.822   2.752 -3.6433 -2.7775 -2.1055
 2985TIP3   OH230369   3.905   6.054   2.599 -0.1761  0.3323  0.1744
 2985TIP3    H130370   3.992   6.035   2.565 -0.8687  0.9432 -2.1280
 2985TIP3    H230371   3.878   6.133   2.553 -1.8430  0.3031  1.0262
 2986TIP3   OH230372   3.698   5.943   0.355  0.4171  0.0461  0.5451
 2986TIP3    H130373   3.670   5.852   0.344 -1.3955  0.6508 -0.2052
 2986TIP3    H230374   3.762   5.940   0.427  0.9529 -1.8933  0.0446
 2987TIP3   OH230375   3.783   1.631   3.614 -0.0826 -0.0363 -0.2759
 2987TIP3    H130376   3.783   1.657   3.522 -0.5129 -2.1075 -0.9099
 2987TIP3    H230377   3.824   1.544   3.614  0.5743  0.2336  1.6018
 2988TIP3   OH230378   2.638   5.033  12.577 -0.1074 -0.0133 -0.1804
 2988TIP3    H130379   2.681   4.961  12.622  1.5982  0.8771 -0.3104
 2988TIP3    H230380   2.641   5.010  12.485 -1.5427 -0.7563 -0.0808
 2989TIP3   OH230381   1.065   5.833   4.246 -0.8643  0.3752  0.1700
 2989TIP3    H130382   0.977   5.794   4.240 -0.8733  0.4088  0.0869
 2989TIP3    H230383   1.075   5.852   4.340 -0.4249 -0.8158  0.3807
 2990TIP3   OH230384   1.241   3.226   3.522  0.0714  0.2817 -0.1118
 2990TIP3    H130385   1.281   3.222   3.435  1.7360  0.8692  0.5859
 2990TIP3    H230386   1.311   3.256   3.580 -1.6862  2.5408  1.0162
 2991TIP3   OH230387   3.810   6.694   3.551  0.2844  0.3128  0.0923
 2991TIP3    H130388   3.806   6.786   3.578 -0.1162  0.1895  0.4633
 2991TIP3    H230389   3.723   6.659   3.571 -0.0502  0.2163 -1.3719
 2992TIP3   OH230390   3.526   4.099  11.971 -0.1946  0.0388 -0.4197
 2992TIP3    H130391   3.588   4.094  12.043 -0.4957  1.0135 -0.0857
 2992TIP3    H230392   3.455   4.155  12.003 -1.1317 -0.8399 -0.8842
 2993TIP3   OH230393   1.174   5.417   4.011 -0.1814  0.0053 -0.0794
 2993TIP3    H130394   1.247   5.419   4.073 -1.0454 -2.6576  1.1990
 2993TIP3    H230395   1.213   5.391   3.928  0.3912 -1.0586  0.5064
 2994TIP3   OH230396   4.439   6.005   1.839  0.0701 -0.3285  0.1342
 2994TIP3    H130397   4.415   5.995   1.931  0.9168 -1.4894  0.2542
 2994TIP3    H230398   4.529   6.039   1.842 -0.3597  0.8753 -0.2805
 2995TIP3   OH230399   3.103   4.429  12.032 -0.9660  0.0689 -0.4172
 2995TIP3    H130400   3.146   4.377  11.965 -1.0086 -0.2922 -0.1669
 2995TIP3    H230401   3.144   4.401  12.114  0.0960  1.4969 -0.4086
 2996TIP3   OH230402   2.401   1.937   3.942 -0.4179 -0.2318 -0.5327
 2996TIP3    H130403   2.356   1.865   3.898  0.0507 -1.5562  1.0765
 2996TIP3    H230404   2.477   1.897   3.983  0.5085  1.4065 -0.5593
 2997TIP3   OH230405   3.160   4.901  14.846 -0.3786  0.1925  0.2922
 2997TIP3    H130406   3.120   4.939  14.924 -0.6561  0.6692 -0.0791
 2997TIP3    H230407   3.129   4.955  14.774  0.9910  0.6173  0.0018
 2998TIP3   OH230408   3.185   1.170  16.340 -0.1436  0.4862  0.0758
 2998TIP3    H130409   3.233   1.138  16.264 -0.0814  0.9050 -0.0653
 2998TIP3    H230410   3.187   1.266  16.331 -0.6043  0.5209  0.3168
 2999TIP3   OH230411   2.441   3.944  14.038 -0.2584 -0.5582  0.4983
 2999TIP3    H130412   2.430   3.887  14.114  1.0835 -1.1306  0.3050
 2999TIP3    H230413   2.467   3.884  13.968  0.0256  0.1523 -0.0158
 3000TIP3   OH230414   5.067   0.657   5.217  0.1485 -0.1086 -0.4893
 3000TIP3    H130415   5.026   0.597   5.279  1.5434 -1.2272 -0.6110
 3000TIP3    H230416   5.007   0.731   5.213 -0.4063 -0.3693  1.5626
 3001TIP3   OH230417   4.087   6.235  12.326  0.2990 -0.1141 -0.2895
 3001TIP3    H130418   4.132   6.265  12.405 -0.4385  2.3396 -0.7105
 3001TIP3    H230419   3.994   6.236  12.350  0.0532  0.8305 -1.2074
 3002TIP3   OH230420   3.569   3.340   0.248  0.0382 -0.7227  0.4791
 3002TIP3    H130421   3.579   3.356   0.342  1.3155  0.9590  0.0985
 3002TIP3    H230422   3.626   3.266   0.229  1.2624  0.1260  0.7371
 3003TIP3   OH230423   6.327   6.341  16.515 -0.5628 -0.3298  0.0375
 3003TIP3    H130424   6.360   6.297  16.594  0.0701  0.1916  0.0735
 3003TIP3    H230425   6.260   6.401  16.547 -1.3243 -1.1418  0.0047
 3004TIP3   OH230426   3.471   6.768  12.399 -0.4291  0.3289  0.4849
 3004TIP3    H130427   3.535   6.791  12.467  0.4492  0.2542 -0.2875
 3004TIP3    H230428   3.389   6.808  12.428 -0.0507  0.3604  1.5428
 3005TIP3   OH230429   0.197   3.238  15.907 -0.0209  0.2110  0.5210
 3005TIP3    H130430   0.104   3.262  15.905  0.0847  0.8758  2.0003
 3005TIP3    H230431   0.210   3.183  15.830 -0.9902  2.4114 -1.3405
 3006TIP3   OH230432   2.498   1.392  15.426  0.0239  0.0458 -0.4292
 3006TIP3    H130433   2.450   1.345  15.358 -2.9490  0.6014  1.1255
 3006TIP3    H230434   2.542   1.324  15.476 -2.0475 -0.9351  0.1718
 3007TIP3   OH230435   5.485   5.049   1.625 -0.3419 -0.4139  0.0890
 3007TIP3    H130436   5.405   5.100   1.620 -2.0715 -2.7468  1.6668
 3007TIP3    H230437   5.472   4.978   1.562  1.0842 -0.1509 -0.5501
 3008TIP3   OH230438   2.952   6.482   0.687  0.0656 -0.0445 -0.3211
 3008TIP3    H130439   3.039   6.468   0.725  1.0271  2.3088 -1.4810
 3008TIP3    H230440   2.963   6.461   0.594 -1.0422 -1.1774 -0.2327
 3009TIP3   OH230441   1.487   4.218   3.860 -0.6861  0.2444  0.0118
 3009TIP3    H130442   1.559   4.177   3.909  0.2940  0.5206 -1.1613
 3009TIP3    H230443   1.409   4.198   3.912  0.2876  0.4129  1.6073
 3010TIP3   OH230444   0.115   5.917  10.700  0.0992 -0.2123 -0.0003
 3010TIP3    H130445   0.104   5.828  10.734 -1.2900  0.3933  1.2501
 3010TIP3    H230446   0.115   5.906  10.605 -1.6310 -1.4177  0.0962
 3011TIP3   OH230447   1.776   4.136  11.905  0.1025  0.2143  0.4340
 3011TIP3    H130448   1.832   4.074  11.951  1.2866  1.0460  0.1659
 3011TIP3    H230449   1.723   4.082  11.846 -0.4307 -0.7237  1.7141
 3012TIP3   OH230450   3.749   2.882  13.429  0.5498 -0.4201 -0.5602
 3012TIP3    H130451   3.735   2.927  13.346  0.1112 -0.6849 -0.6310
 3012TIP3    H230452   3.711   2.941  13.495 -1.2018 -1.2587 -0.7772
 3013TIP3   OH230453   0.537   0.523  15.647 -0.2532 -0.6375 -0.2347
 3013TIP3    H130454   0.481   0.596  15.675 -0.0372 -0.2124 -0.8780
 3013TIP3    H230455   0.622   0.540  15.687 -0.2681 -0.6639 -0.1919
 3014TIP3   OH230456   3.068   3.707   1.377  0.4864 -0.0773 -0.0398
 3014TIP3    H130457   3.100   3.631   1.426 -1.3778 -0.5002  0.6338
 3014TIP3    H230458   3.056   3.676   1.288  0.6825 -0.2825  0.0058
 3015TIP3   OH230459   5.530   5.720  10.381 -0.2408 -0.2915  0.0804
 3015TIP3    H130460   5.435   5.717  10.393 -0.3680 -0.0672 -0.8278
 3015TIP3    H230461   5.563   5.646  10.433 -1.1726 -2.2084 -1.8982
 3016TIP3   OH230462   3.900   0.017  11.664 -0.1099  0.1055 -0.1324
 3016TIP3    H130463   3.928   0.100  11.624  0.7978  0.5090  1.2570
 3016TIP3    H230464   3.830  -0.015  11.607 -0.5253  1.8529 -0.6683
 3017TIP3   OH230465   5.972   3.053   5.257  0.1698  0.1497 -0.1505
 3017TIP3    H130466   6.004   3.012   5.337  1.3096 -0.7320 -1.0274
 3017TIP3    H230467   6.049   3.096   5.220 -0.7534  2.2029  0.1741
 3018TIP3   OH230468   4.363   2.689   2.265 -0.6749 -0.0034 -0.0464
 3018TIP3    H130469   4.269   2.688   2.245 -0.8397  0.6122  0.6220
 3018TIP3    H230470   4.406   2.679   2.181 -1.3459  0.3065 -0.4344
 3019TIP3   OH230471   0.873   6.439  12.061  0.2912  0.1523 -0.0410
 3019TIP3    H130472   0.847   6.438  12.154 -0.6159  0.3393 -0.2779
 3019TIP3    H230473   0.860   6.529  12.034 -1.9186 -0.3600 -0.9760
 3020TIP3   OH230474   1.751   3.777   2.452  0.4341 -0.0395 -0.1748
 3020TIP3    H130475   1.820   3.711   2.450 -0.3651 -0.9229  0.5673
 3020TIP3    H230476   1.716   3.772   2.540 -1.2059 -0.2781 -0.8106
 3021TIP3   OH230477   5.802   1.441   3.969 -0.3121  0.3088 -0.4671
 3021TIP3    H130478   5.897   1.451   3.964 -0.5132  2.3531 -1.7726
 3021TIP3    H230479   5.768   1.531   3.965 -2.3000 -0.3118  0.7259
 3022TIP3   OH230480   0.709   2.935  15.954 -0.0732 -0.5108 -0.4823
 3022TIP3    H130481   0.644   2.988  15.999 -0.1327 -0.4535 -0.6336
 3022TIP3    H230482   0.736   2.869  16.018 -0.5105 -0.7312 -0.5258
 3023TIP3   OH230483   5.681   6.408   2.290  0.2019  0.2067  0.5647
 3023TIP3    H130484   5.641   6.372   2.211 -2.5889  0.9961  1.4838
 3023TIP3    H230485   5.712   6.495   2.264 -0.4449  0.3499  0.2395
 3024TIP3   OH230486   1.450   4.158   3.339  0.1546  0.4917 -0.5450
 3024TIP3    H130487   1.486   4.072   3.364 -0.0780  1.0497  2.0396
 3024TIP3    H230488   1.356   4.144   3.337  0.0329  0.8936  1.0302
 3025TIP3   OH230489   1.988   1.149   0.121 -0.2451  0.2744  0.4238
 3025TIP3    H130490   2.079   1.178   0.126 -0.1444 -0.1735  1.3571
 3025TIP3    H230491   1.958   1.149   0.212 -0.8425 -0.6274  0.2361
 3026TIP3   OH230492   2.953   6.772  13.349 -0.1200  0.1385 -0.1625
 3026TIP3    H130493   2.927   6.697  13.295  2.3344 -1.2109  0.3861
 3026TIP3    H230494   3.045   6.755  13.371  0.5242  3.2865  0.0623
 3027TIP3   OH230495   2.045   4.540   1.040 -0.1649 -0.2692 -0.1587
 3027TIP3    H130496   1.975   4.487   1.078 -1.1880  1.2217  0.1235
 3027TIP3    H230497   2.064   4.607   1.106  0.8489 -0.0544 -0.6403
 3028TIP3   OH230498   1.621   0.514  14.864 -0.5908 -0.3695  0.9700
 3028TIP3    H130499   1.630   0.607  14.884 -0.3715  0.2228 -1.5385
 3028TIP3    H230500   1.542   0.487  14.910 -1.9005  1.6238  0.0284
 3029TIP3   OH230501   5.065   2.109  14.567  0.1408 -0.4135 -0.1069
 3029TIP3    H130502   5.076   2.094  14.473  0.2752 -0.4801 -0.0810
 3029TIP3    H230503   5.088   2.026  14.608 -2.0481 -1.0731 -0.1260
 3030TIP3   OH230504   5.623   4.040  12.795 -0.4568 -0.1960 -0.3628
 3030TIP3    H130505   5.631   4.094  12.873 -2.5398 -0.0465 -0.1983
 3030TIP3    H230506   5.670   3.959  12.817 -1.2908 -0.2947  1.2127
 3031TIP3   OH230507   1.092   3.923  12.529 -0.5906 -0.1657  0.3428
 3031TIP3    H130508   1.100   3.837  12.571  0.4313 -0.4274 -0.3574
 3031TIP3    H230509   1.088   3.904  12.435  0.2793  0.5779  0.1390
 3032TIP3   OH230510   1.509   6.145   4.716  0.0782  0.4327 -0.0558
 3032TIP3    H130511   1.601   6.160   4.692  0.4735 -1.5866 -0.0388
 3032TIP3    H230512   1.471   6.232   4.723  2.1158  1.3404  0.4203
 3033TIP3   OH230513   5.179   3.944   2.255  0.5277 -0.7985  0.1219
 3033TIP3    H130514   5.188   3.924   2.161 -1.6698 -1.9060  0.0803
 3033TIP3    H230515   5.100   3.897   2.282 -0.9757  2.3254  1.7275
 3034TIP3   OH230516   6.376   6.096  13.418 -0.2872 -0.2463  0.5059
 3034TIP3    H130517   6.467   6.079  13.393 -0.0128  1.0353  0.5685
 3034TIP3    H230518   6.324   6.041  13.359  0.5139 -0.8081  0.3056
 3035TIP3   OH230519   0.536   0.559   2.578 -0.3641 -0.3336 -0.1597
 3035TIP3    H130520   0.583   0.594   2.502 -2.2148  2.2649 -0.2302
 3035TIP3    H230521   0.446   0.587   2.566 -0.9815 -0.9544  2.3812
 3036TIP3   OH230522   1.338   5.236   4.920  0.5771 -0.5714  0.5406
 3036TIP3    H130523   1.421   5.206   4.882 -0.0571 -0.2426 -1.2183
 3036TIP3    H230524   1.353   5.327   4.944  0.8457 -0.6379  0.6235
 3037TIP3   OH230525   3.680   2.768  12.649 -0.4588  0.2660  0.1706
 3037TIP3    H130526   3.752   2.718  12.688 -0.2391  0.1399 -0.3928
 3037TIP3    H230527   3.720   2.852  12.625  0.1323 -0.6534 -2.3475
 3038TIP3   OH230528   4.033   1.617   0.281 -0.1643  0.9664 -0.5499
 3038TIP3    H130529   4.021   1.669   0.201  1.4235  1.3390 -0.5779
 3038TIP3    H230530   4.123   1.584   0.274  0.0892  1.2132  1.1978
 3039TIP3   OH230531   4.968   4.417  16.711  0.0319 -0.1452 -0.8877
 3039TIP3    H130532   5.031   4.466  16.659 -0.1520  1.6018  0.4486
 3039TIP3    H230533   4.981   4.326  16.685  0.7753  0.5183 -3.0517
 3040TIP3   OH230534   4.452   0.784   5.107 -1.0204 -0.3950  0.0890
 3040TIP3    H130535   4.360   0.791   5.134 -2.1075 -2.0361 -2.7393
 3040TIP3    H230536   4.482   0.702   5.146 -0.0422  1.0330  2.5754
 3041TIP3   OH230537   2.404   5.929  15.049  0.1331 -0.0966 -0.0477
 3041TIP3    H130538   2.337   5.934  14.981  0.0868  1.0810  0.0779
 3041TIP3    H230539   2.354   5.918  15.131  0.2055 -2.2890 -0.2301
 3042TIP3   OH230540   0.228   1.461   4.013  0.0406 -0.0156 -0.3967
 3042TIP3    H130541   0.241   1.397   4.083 -0.7758  1.7265  1.4679
 3042TIP3    H230542   0.133   1.470   4.007  0.1122  2.5510  0.9672
 3043TIP3   OH230543   2.957   1.186  13.691  0.1689 -0.4433 -0.3625
 3043TIP3    H130544   2.957   1.129  13.614  2.9170 -1.0920  0.0227
 3043TIP3    H230545   2.954   1.126  13.766 -1.9411  0.1658  0.1291
 3044TIP3   OH230546   2.985   1.769   0.572 -0.3856  0.3359  0.1277
 3044TIP3    H130547   2.892   1.789   0.584  0.0065  2.4449 -0.0256
 3044TIP3    H230548   2.993   1.744   0.480 -0.6402  1.2931 -0.1654
 3045TIP3   OH230549   4.425   5.003  15.322 -0.1009 -0.0626  0.5382
 3045TIP3    H130550   4.360   5.040  15.382 -1.6638 -0.2717 -0.9246
 3045TIP3    H230551   4.435   4.912  15.350 -0.5859 -0.0748  0.6833
 3046TIP3   OH230552   3.134   6.521   2.386  0.2556 -0.1654  0.1831
 3046TIP3    H130553   3.104   6.592   2.330 -0.2727  0.1748  0.8838
 3046TIP3    H230554   3.058   6.498   2.439  1.2123  0.7579  2.0356
 3047TIP3   OH230555   4.023   4.235   3.221 -0.1552  0.8082  0.3718
 3047TIP3    H130556   4.053   4.166   3.280  0.6094  0.8623  0.0556
 3047TIP3    H230557   3.964   4.190   3.160 -0.3012  0.5950  0.6706
 3048TIP3   OH230558   3.579   6.290   4.689 -0.2726 -0.1948 -0.0489
 3048TIP3    H130559   3.658   6.258   4.732  0.7581  1.6871 -0.4081
 3048TIP3    H230560   3.583   6.386   4.699 -1.6087  0.0757 -1.5725
 3049TIP3   OH230561   2.145   0.970  10.874  0.2598  0.3721 -0.5026
 3049TIP3    H130562   2.140   1.033  10.802  2.5977 -0.2965 -1.3355
 3049TIP3    H230563   2.069   0.914  10.862  0.5555  0.3211 -2.4536
 3050TIP3   OH230564   1.897   0.487  11.165 -0.0839  0.0579  0.1069
 3050TIP3    H130565   1.899   0.488  11.261  0.8082  0.4131  0.0886
 3050TIP3    H230566   1.834   0.555  11.142 -0.6601 -0.3530  0.4447
 3051TIP3   OH230567   0.804   5.673   0.525 -0.3740 -0.5845  0.2365
 3051TIP3    H130568   0.871   5.618   0.483 -1.6176 -0.8282 -1.5509
 3051TIP3    H230569   0.768   5.724   0.453 -0.8191  0.9371  1.4956
 3052TIP3   OH230570   5.277   5.713  10.516 -0.8824 -0.2525  0.5158
 3052TIP3    H130571   5.285   5.804  10.544 -0.4321 -0.3515  0.7242
 3052TIP3    H230572   5.183   5.696  10.515 -0.9932  0.3633 -0.0144
 3053TIP3   OH230573   0.924   4.688   5.081 -0.4479  0.3195 -0.6792
 3053TIP3    H130574   0.966   4.601   5.076  1.4213  1.2276 -2.1905
 3053TIP3    H230575   0.941   4.717   5.171  1.1000  0.0961 -0.8613
 3054TIP3   OH230576   5.252   2.056   2.843 -0.7068 -0.1012 -0.0557
 3054TIP3    H130577   5.307   1.978   2.851 -0.7060 -0.0459  0.5571
 3054TIP3    H230578   5.293   2.108   2.774 -0.4521 -0.4376 -0.1574
 3055TIP3   OH230579   0.309   0.180  11.982  0.2288 -0.0077 -0.3718
 3055TIP3    H130580   0.220   0.213  11.993 -0.7255 -1.4921 -2.8219
 3055TIP3    H230581   0.365   0.255  12.000 -1.5391  1.1443  0.5599
 3056TIP3   OH230582   4.786   1.695  12.629  0.7323  0.4113 -0.5303
 3056TIP3    H130583   4.792   1.683  12.724  1.1549  0.1164 -0.5916
 3056TIP3    H230584   4.826   1.616  12.593 -2.7441 -1.3468 -0.9887
 3057TIP3   OH230585   5.668   3.869   4.004  0.0502  0.4878 -0.3995
 3057TIP3    H130586   5.574   3.882   3.997  0.0997  0.0705 -2.4630
 3057TIP3    H230587   5.702   3.953   4.035 -1.1444 -0.0178  2.6308
 3058TIP3   OH230588   0.392   1.608   0.150  0.4814 -0.2310 -0.3383
 3058TIP3    H130589   0.390   1.524   0.196  0.0647  0.7185  1.4594
 3058TIP3    H230590   0.353   1.590   0.064  1.9165 -2.2174 -0.6515
 3059TIP3   OH230591   3.255   2.719   5.609  0.4565  0.0474 -0.1147
 3059TIP3    H130592   3.315   2.761   5.671  0.5872 -0.5951  0.1963
 3059TIP3    H230593   3.178   2.696   5.662  0.1487  0.3855 -0.4025
 3060TIP3   OH230594   1.898   0.113  14.706  0.2396  0.1448  0.0991
 3060TIP3    H130595   1.935   0.026  14.690  1.3867  0.2587  1.9092
 3060TIP3    H230596   1.803   0.097  14.711  0.1233 -0.4898 -2.4027
 3061TIP3   OH230597   1.278   4.813   6.764  0.2477  0.1156 -0.3025
 3061TIP3    H130598   1.207   4.750   6.753 -0.2875  0.9801 -2.2189
 3061TIP3    H230599   1.235   4.893   6.796  0.6737  0.0518  0.4619
 3062TIP3   OH230600   4.673   3.049  16.135  0.0881 -0.2827  0.1982
 3062TIP3    H130601   4.705   3.101  16.062  0.5324  0.3478  0.8276
 3062TIP3    H230602   4.741   2.983  16.149 -0.1659 -0.6275 -0.1822
 3063TIP3   OH230603   1.054   5.327  14.583 -0.8098 -0.1338 -0.2754
 3063TIP3    H130604   1.044   5.234  14.600 -1.8901  0.4067  2.4550
 3063TIP3    H230605   0.964   5.360  14.574 -0.4217  0.4763 -2.6432
 3064TIP3   OH230606   5.574   2.303  15.039 -0.1571 -0.2137  0.5639
 3064TIP3    H130607   5.500   2.254  15.003 -1.3925  0.8512  1.5599
 3064TIP3    H230608   5.625   2.237  15.086 -1.3688 -0.6982  1.2442
 3065TIP3   OH230609   5.337   5.941   4.852 -0.5714  0.2431  0.3838
 3065TIP3    H130610   5.302   5.987   4.775  0.4826  2.3726  1.0831
 3065TIP3    H230611   5.262   5.897   4.890 -1.1075 -1.0420 -1.9294
 3066TIP3   OH230612   0.085   1.411   5.377 -0.2222 -0.1633 -0.2713
 3066TIP3    H130613   0.149   1.446   5.315 -0.3087  0.2917 -0.1094
 3066TIP3    H230614   0.114   1.443   5.462 -0.0843 -0.8183 -0.0714
 3067TIP3   OH230615   0.783   6.633   3.705  0.1008 -0.3822  0.3041
 3067TIP3    H130616   0.809   6.542   3.689 -0.0380 -0.1459 -1.5001
 3067TIP3    H230617   0.695   6.640   3.669 -1.3054 -0.3258  3.4219
 3068TIP3   OH230618   1.856   2.351  14.876  0.1469  0.5173  0.0069
 3068TIP3    H130619   1.833   2.271  14.829  2.0587  0.3918 -0.8163
 3068TIP3    H230620   1.894   2.320  14.958 -0.6567  0.6598  0.4462
 3069TIP3   OH230621   2.149   4.496   2.099 -0.3618 -0.2853  0.5037
 3069TIP3    H130622   2.215   4.532   2.040  2.5363 -1.2629  2.8912
 3069TIP3    H230623   2.092   4.571   2.119  0.4437  0.8105 -1.0785
 3070TIP3   OH230624   3.533   2.377  14.916 -0.0042  0.1657 -0.5063
 3070TIP3    H130625   3.530   2.381  15.011  3.6500  0.7043 -0.2796
 3070TIP3    H230626   3.495   2.460  14.887 -1.7745 -0.2887  0.3596
 3071TIP3   OH230627   3.748   0.140   3.677  0.4701  0.5264 -0.2026
 3071TIP3    H130628   3.688   0.108   3.744 -0.0908 -0.5597 -1.1948
 3071TIP3    H230629   3.800   0.207   3.722 -0.7907  0.7857  0.9448
 3072TIP3   OH230630   6.474   0.967   3.524  0.0049 -0.6659 -0.1192
 3072TIP3    H130631   6.489   1.011   3.440 -1.0359 -0.2133 -0.0847
 3072TIP3    H230632   6.531   0.890   3.522  3.5273  1.6995  0.6861
 3073TIP3   OH230633   3.375   6.358   1.750 -0.0139  0.1462  0.5859
 3073TIP3    H130634   3.360   6.424   1.682  1.4236  0.9587  1.0163
 3073TIP3    H230635   3.305   6.374   1.814 -0.2070  0.6805  0.2533
 3074TIP3   OH230636   1.321   1.710  15.031  0.1769 -0.3545 -0.2428
 3074TIP3    H130637   1.370   1.632  15.005  0.0199 -0.4819 -0.1617
 3074TIP3    H230638   1.369   1.783  14.992  1.9214 -0.2390  1.8923
 3075TIP3   OH230639   0.731   0.957   5.831 -0.7259  0.1608 -0.0376
 3075TIP3    H130640   0.678   0.960   5.910 -1.0029  0.4275 -0.2283
 3075TIP3    H230641   0.816   0.922   5.859 -1.0432 -0.3840  0.2455
 3076TIP3   OH230642   5.265   2.611   2.560  0.4644 -0.0330 -0.6883
 3076TIP3    H130643   5.235   2.522   2.543  0.1118 -0.5210  2.0365
 3076TIP3    H230644   5.186   2.665   2.556  0.2067 -0.3163  0.4009
 3077TIP3   OH230645   3.920   0.047   4.746  0.2706  0.4754  0.3450
 3077TIP3    H130646   3.929  -0.035   4.698  1.7286  1.6083 -1.4821
 3077TIP3    H230647   3.987   0.104   4.708  0.0187  2.1802  2.2829
 3078TIP3   OH230648   3.437   2.027   1.906  0.0218 -0.2713  0.2656
 3078TIP3    H130649   3.527   2.020   1.936  0.3296  0.4938 -0.4637
 3078TIP3    H230650   3.384   2.009   1.985  0.7791 -1.7451  0.4705
 3079TIP3   OH230651   3.938   2.307   0.547 -0.3633  0.0698 -0.3863
 3079TIP3    H130652   3.902   2.257   0.621  1.4009 -1.1686 -0.2928
 3079TIP3    H230653   3.891   2.390   0.549 -1.4303 -0.5171  1.1932
 3080TIP3   OH230654   1.020   1.630   3.110  0.9735 -0.0436  0.4310
 3080TIP3    H130655   1.078   1.703   3.128  0.9101  0.7567 -2.2177
 3080TIP3    H230656   1.048   1.597   3.024 -0.5092 -1.6104  0.4870
 3081TIP3   OH230657   3.336   4.201  15.725 -0.4493 -0.8232 -0.0303
 3081TIP3    H130658   3.343   4.239  15.638  0.8911  0.0110  0.4144
 3081TIP3    H230659   3.425   4.174  15.747 -0.8335 -1.3941  0.9334
 3082TIP3   OH230660   3.275   5.661  11.419 -0.5931  0.7775 -0.3083
 3082TIP3    H130661   3.230   5.744  11.433 -1.5726  0.2809 -0.3683
 3082TIP3    H230662   3.231   5.623  11.342  1.5886  1.3815 -1.9576
 3083TIP3   OH230663   2.524   5.086  15.971 -0.4484  0.3208  1.1695
 3083TIP3    H130664   2.438   5.128  15.977 -0.3784  0.5544  0.6091
 3083TIP3    H230665   2.553   5.102  15.881 -0.8884 -1.8869  0.5813
 3084TIP3   OH230666   3.243   6.335   5.805 -0.5687 -0.1800 -0.4339
 3084TIP3    H130667   3.206   6.252   5.833 -0.8020 -0.0212 -0.2646
 3084TIP3    H230668   3.169   6.385   5.771 -0.4005 -0.1080 -0.7033
 3085TIP3   OH230669   2.445   0.494  13.577 -0.1387  0.1241 -0.3049
 3085TIP3    H130670   2.434   0.580  13.535  1.0301 -0.4002 -1.8079
 3085TIP3    H230671   2.384   0.437  13.531  0.0901 -0.1369 -0.2880
 3086TIP3   OH230672   2.440   2.038   3.246  0.0076 -0.8406 -0.1370
 3086TIP3    H130673   2.409   2.094   3.318  3.0934  1.5609 -0.4505
 3086TIP3    H230674   2.379   2.057   3.174  0.0508  0.9805  0.2542
 3087TIP3   OH230675   2.826   1.752  15.469 -0.3890  0.0582  0.9466
 3087TIP3    H130676   2.913   1.746  15.508  0.2228  1.0174 -0.2035
 3087TIP3    H230677   2.771   1.788  15.538 -0.0568 -1.2238  1.9209
 3088TIP3   OH230678   1.884   3.429   2.154  0.0423 -0.9139 -0.5646
 3088TIP3    H130679   1.845   3.490   2.217  0.7712 -0.5316 -0.4815
 3088TIP3    H230680   1.858   3.463   2.069 -2.6070 -2.4908 -0.5308
 3089TIP3   OH230681   0.059   0.216  16.693 -0.3668  0.1713 -0.8148
 3089TIP3    H130682   0.036   0.135  16.648  0.7991 -0.7769  0.2310
 3089TIP3    H230683   0.146   0.200  16.728 -1.6619  0.2980  2.9351
 3090TIP3   OH230684   2.892   2.953  13.885 -0.1251  0.2643 -0.2527
 3090TIP3    H130685   2.882   2.911  13.800 -0.4039 -0.3836  0.0899
 3090TIP3    H230686   2.809   2.938  13.929  0.6717 -1.0917  0.8587
 3091TIP3   OH230687   1.885   4.331  14.931  0.2544  0.3856  0.4939
 3091TIP3    H130688   1.899   4.406  14.873  0.2555 -0.3285 -0.4462
 3091TIP3    H230689   1.858   4.370  15.014 -0.3962  1.4111 -0.1744
 3092TIP3   OH230690   4.890   5.853   2.277  0.1568 -0.1690  0.7925
 3092TIP3    H130691   4.809   5.828   2.232  0.5396 -1.8355  0.9634
 3092TIP3    H230692   4.885   5.811   2.362  0.1006  1.7804  1.8111
 3093TIP3   OH230693   1.174   3.338   2.639  0.3180  0.2867 -0.4917
 3093TIP3    H130694   1.177   3.247   2.669 -1.6354  0.6367  0.9548
 3093TIP3    H230695   1.203   3.389   2.715 -0.2752  0.9585 -0.7041
 3094TIP3   OH230696   2.498   5.625   0.714 -0.6030 -0.4196 -0.1919
 3094TIP3    H130697   2.436   5.572   0.763 -0.2493  0.0342  0.7706
 3094TIP3    H230698   2.581   5.577   0.720 -0.5401 -0.3274 -0.2968
 3095TIP3   OH230699   3.434   4.330  13.935 -0.4614  0.1789  0.3594
 3095TIP3    H130700   3.387   4.288  13.863 -0.4424  3.0220 -1.4882
 3095TIP3    H230701   3.515   4.364  13.894  0.2723  0.5956  2.0728
 3096TIP3   OH230702   0.297   1.130   2.283 -0.0265 -0.5845 -0.4272
 3096TIP3    H130703   0.309   1.186   2.207 -1.0481 -0.8764 -0.8290
 3096TIP3    H230704   0.206   1.144   2.310  0.1501 -0.9121  0.3896
 3097TIP3   OH230705   0.008   0.573  15.241  0.0098 -0.1259  0.4073
 3097TIP3    H130706   0.055   0.618  15.311 -1.2906 -1.7351  2.4317
 3097TIP3    H230707  -0.015   0.488  15.278 -0.4890 -1.1983 -2.1138
 3098TIP3   OH230708   2.409   0.728  15.865  0.0321 -0.9524 -0.3658
 3098TIP3    H130709   2.496   0.708  15.900  0.9573 -1.1193 -2.6054
 3098TIP3    H230710   2.423   0.805  15.809 -1.4789 -0.3705  0.0072
 3099TIP3   OH230711   0.703   3.126   0.373 -0.4057 -0.4066 -0.3673
 3099TIP3    H130712   0.654   3.044   0.374 -1.7631  0.2869 -2.1169
 3099TIP3    H230713   0.676   3.172   0.453  0.7955 -1.8418  0.9076
 3100TIP3   OH230714   3.397   3.360  14.085 -0.2823  0.2400 -0.0759
 3100TIP3    H130715   3.414   3.297  14.156 -1.5376 -1.4594 -1.2084
 3100TIP3    H230716   3.419   3.445  14.123 -1.8648 -0.4685  2.7209
 3101TIP3   OH230717   2.534   4.503  11.335  0.0877  0.3057  0.0094
 3101TIP3    H130718   2.457   4.537  11.380 -0.6919  0.6610 -1.5190
 3101TIP3    H230719   2.552   4.420  11.377 -0.8641  0.4317  0.6889
 3102TIP3   OH230720   2.089   5.849   1.964 -0.2328  0.2788  0.0792
 3102TIP3    H130721   2.148   5.866   1.890  0.4600 -0.0441  0.5516
 3102TIP3    H230722   2.014   5.804   1.924 -0.5353  1.3728 -0.6458
 3103TIP3   OH230723   5.401   5.610  11.980  0.2999 -0.0690  0.7195
 3103TIP3    H130724   5.477   5.578  11.932  1.7679 -0.4141  3.1193
 3103TIP3    H230725   5.379   5.539  12.040 -1.1741  0.5211  0.9189
 3104TIP3   OH230726   4.614   4.940   5.971  0.3241 -0.1001 -0.5522
 3104TIP3    H130727   4.574   4.956   5.886 -0.0867 -2.5057 -0.8889
 3104TIP3    H230728   4.542   4.943   6.033  0.0513 -1.4849 -0.7621
 3105TIP3   OH230729   5.565   4.068   6.480 -0.1454  0.2921 -0.2260
 3105TIP3    H130730   5.606   4.135   6.424 -0.1989  0.7818  0.3161
 3105TIP3    H230731   5.519   4.118   6.547 -1.0488 -0.2720 -0.4098
 3106TIP3   OH230732   5.051   1.800   3.267 -0.0928 -0.0996  0.0330
 3106TIP3    H130733   4.999   1.835   3.195  1.2319  0.7509 -0.5474
 3106TIP3    H230734   5.026   1.708   3.272 -0.5336 -0.0628 -1.2153
 3107TIP3   OH230735   3.713   0.512  11.432  0.0533 -0.6803  0.0903
 3107TIP3    H130736   3.783   0.563  11.391  0.6308 -0.7968  0.8937
 3107TIP3    H230737   3.653   0.492  11.361 -1.7063  3.4496  0.1042
 3108TIP3   OH230738   5.424   5.425   5.124  0.3959 -0.1452 -0.0712
 3108TIP3    H130739   5.502   5.457   5.079  1.0551 -1.6472 -0.0590
 3108TIP3    H230740   5.425   5.469   5.209  1.4810 -0.4554  0.0927
 3109TIP3   OH230741   1.022   4.814  14.150  0.4951 -0.1035  0.5385
 3109TIP3    H130742   0.987   4.748  14.210  2.4835 -0.3729  1.4738
 3109TIP3    H230743   0.973   4.894  14.171  0.3671 -0.4774  1.7349
 3110TIP3   OH230744   0.796   4.477  13.593 -0.1523  0.2215 -0.4938
 3110TIP3    H130745   0.858   4.461  13.664 -1.0181  0.2122  0.2803
 3110TIP3    H230746   0.843   4.454  13.514  0.4490 -0.8808  0.1684
 3111TIP3   OH230747   0.901   3.735  16.164  0.9137 -0.1728 -0.1877
 3111TIP3    H130748   0.907   3.755  16.071  0.0484  1.1823  0.0249
 3111TIP3    H230749   0.946   3.808  16.207  3.7665 -2.1011  0.4104
 3112TIP3   OH230750   2.200   2.358  14.308 -0.2269  0.2342  0.3134
 3112TIP3    H130751   2.138   2.351  14.237 -0.9811  0.5714  0.9241
 3112TIP3    H230752   2.147   2.352  14.388  0.7841 -2.0895  0.8938
 3113TIP3   OH230753   6.466   3.469  15.623 -0.1238  1.2588  0.1419
 3113TIP3    H130754   6.398   3.529  15.592  0.6397  2.6246  1.0319
 3113TIP3    H230755   6.436   3.440  15.709  0.8593  2.6734  0.9988
 3114TIP3   OH230756   5.898   0.743   3.993  0.0527 -0.3814 -0.2068
 3114TIP3    H130757   5.908   0.801   3.918  0.6123 -0.3229 -0.0925
 3114TIP3    H230758   5.972   0.765   4.050  0.6909 -1.6907 -0.4844
 3115TIP3   OH230759   3.086   2.354  11.564  0.1039  0.3673  0.7953
 3115TIP3    H130760   3.003   2.327  11.604 -0.4175  0.4315 -0.2271
 3115TIP3    H230761   3.061   2.421  11.500  0.9370  0.3483  0.4450
 3116TIP3   OH230762   5.568   0.784   4.785 -0.0847 -0.2009  0.1104
 3116TIP3    H130763   5.553   0.726   4.860 -1.5914 -0.5873 -0.4448
 3116TIP3    H230764   5.602   0.726   4.717  0.2445 -0.0554  0.1494
 3117TIP3   OH230765   4.421   0.738   0.577 -0.1616 -0.5771 -0.1161
 3117TIP3    H130766   4.402   0.691   0.658  0.9582 -0.0031  0.5118
 3117TIP3    H230767   4.516   0.738   0.572 -0.2234 -1.3063 -1.8822
 3118TIP3   OH230768   1.095   4.976  14.436 -0.1673 -0.1086 -0.1918
 3118TIP3    H130769   1.018   5.004  14.486 -0.4648 -3.3349  1.3603
 3118TIP3    H230770   1.142   4.918  14.494  3.5062  1.6402 -1.1453
 3119TIP3   OH230771   3.758   6.761   4.050  0.2846 -0.5871 -0.5106
 3119TIP3    H130772   3.675   6.770   4.004  0.2778 -2.8034 -1.0247
 3119TIP3    H230773   3.736   6.712   4.130  1.1703 -1.7457 -0.9585
 3120TIP3   OH230774   3.542   1.567   0.341 -0.2657 -0.1542  0.1005
 3120TIP3    H130775   3.593   1.648   0.337  2.7727 -1.8349  1.6395
 3120TIP3    H230776   3.502   1.568   0.428 -0.4103 -0.2079  0.0352
 3121TIP3   OH230777   1.241   6.578  16.116 -0.3757  0.1245  0.8267
 3121TIP3    H130778   1.332   6.578  16.147  1.2899 -0.4747 -3.4532
 3121TIP3    H230779   1.238   6.646  16.049 -2.9155 -0.3860  0.2975
 3122TIP3   OH230780   3.484   2.079  16.452 -0.1787 -0.1580  0.0182
 3122TIP3    H130781   3.509   1.987  16.455  2.9573  0.5781  0.0721
 3122TIP3    H230782   3.418   2.084  16.383  0.3464 -2.2882 -0.6988
 3123TIP3   OH230783   4.833   2.802  10.862 -0.3360  0.1622 -0.4834
 3123TIP3    H130784   4.920   2.842  10.861 -0.1726 -0.1198  1.0266
 3123TIP3    H230785   4.772   2.876  10.867 -0.0701  0.2912  1.2820
 3124TIP3   OH230786   4.692   4.171   1.635 -0.4316 -0.0648  0.2521
 3124TIP3    H130787   4.727   4.131   1.714  1.7713 -0.1823 -0.7137
 3124TIP3    H230788   4.629   4.108   1.602  0.1916 -0.9940  0.7955
 3125TIP3   OH230789   1.830   6.429  16.248 -0.1882 -0.0672  0.4725
 3125TIP3    H130790   1.791   6.373  16.315 -0.9996  2.8807  2.6304
 3125TIP3    H230791   1.799   6.392  16.165 -1.5840 -2.1111  1.8222
 3126TIP3   OH230792   1.871   6.375  14.494 -0.5126 -0.0674 -0.0784
 3126TIP3    H130793   1.962   6.396  14.473 -0.2283 -1.4779 -0.4074
 3126TIP3    H230794   1.839   6.331  14.415 -1.2951 -0.0902  0.2511
 3127TIP3   OH230795   3.514   1.817   2.473  0.7275  0.0765  0.2386
 3127TIP3    H130796   3.585   1.865   2.517  0.6665 -1.3144  1.9448
 3127TIP3    H230797   3.557   1.743   2.432  0.7152  1.1307 -1.7860
 3128TIP3   OH230798   4.926   2.328  11.096 -0.1644  0.3234  0.0370
 3128TIP3    H130799   4.898   2.251  11.047  1.3930 -0.1973 -0.0848
 3128TIP3    H230800   4.904   2.402  11.039 -2.0235  0.0555  0.3163
 3129TIP3   OH230801   5.783   5.664   5.206  0.2745  0.0422 -0.9652
 3129TIP3    H130802   5.775   5.683   5.299 -1.8780 -1.2986 -0.8019
 3129TIP3    H230803   5.768   5.748   5.163  0.3316  0.4946 -0.1195
 3130TIP3   OH230804   5.116   6.716   5.366 -0.1068 -0.5001 -0.7841
 3130TIP3    H130805   5.080   6.805   5.371  0.8032 -0.1764  0.4009
 3130TIP3    H230806   5.207   6.729   5.338  0.1123 -1.0315 -0.3398
 3131TIP3   OH230807   2.128   4.597  14.689  0.1668 -0.0296 -0.6757
 3131TIP3    H130808   2.166   4.523  14.737 -1.2989  1.7804  3.8262
 3131TIP3    H230809   2.034   4.583  14.694 -0.0944  1.4756 -0.8388
 3132TIP3   OH230810   6.713   4.522  12.628  0.2257 -0.5764  0.2612
 3132TIP3    H130811   6.644   4.456  12.638 -0.3345  0.3016  3.3162
 3132TIP3    H230812   6.785   4.490  12.681 -0.3884  1.5483  2.5838
 3133TIP3   OH230813   5.931   4.396  14.315  0.5261 -0.0108  0.1232
 3133TIP3    H130814   5.974   4.469  14.359  1.3414  0.2618 -1.0800
 3133TIP3    H230815   5.975   4.390  14.230 -0.3415 -1.1389 -0.2690
 3134TIP3   OH230816   1.099   0.935   4.458 -0.3543  0.0341  0.4359
 3134TIP3    H130817   1.150   0.986   4.395  0.8263 -1.5894  0.0096
 3134TIP3    H230818   1.163   0.880   4.502 -1.6219 -1.4861  0.4828
 3135TIP3   OH230819   1.800   5.243  12.658  0.0299 -0.0099 -0.2213
 3135TIP3    H130820   1.865   5.309  12.681  0.9023 -0.2171 -1.9223
 3135TIP3    H230821   1.749   5.283  12.588  0.8332 -1.2171 -1.5704
 3136TIP3   OH230822   5.394   0.503   0.960 -0.1948 -0.2289 -0.0206
 3136TIP3    H130823   5.450   0.531   0.887 -0.3502  0.8023  0.2352
 3136TIP3    H230824   5.361   0.418   0.934  0.6763 -0.3911 -0.6409
 3137TIP3   OH230825   1.379   3.602  11.682  0.1565  0.4079 -0.4051
 3137TIP3    H130826   1.336   3.639  11.759  0.9093 -0.6048  0.5490
 3137TIP3    H230827   1.451   3.551  11.718 -0.1161 -0.9804 -1.7126
 3138TIP3   OH230828   4.833   0.626  14.389  0.3278 -0.2318  0.5955
 3138TIP3    H130829   4.870   0.674  14.463 -1.0089 -0.4712  1.4649
 3138TIP3    H230830   4.747   0.597  14.420  0.1238 -1.1514 -0.7363
 3139TIP3   OH230831   6.748   1.581  13.579 -0.1401 -0.2410  0.0963
 3139TIP3    H130832   6.693   1.519  13.628 -1.7236  0.7165 -0.3832
 3139TIP3    H230833   6.762   1.538  13.494  3.6629 -2.4751  1.6169
 3140TIP3   OH230834   4.216   6.268  15.720 -0.5772  0.5666  0.4751
 3140TIP3    H130835   4.190   6.176  15.717 -1.6621  0.7957  1.8518
 3140TIP3    H230836   4.135   6.316  15.733  0.1351  1.6115  1.2808
 3141TIP3   OH230837   4.277   2.794  13.145 -0.3171  0.6260 -0.0693
 3141TIP3    H130838   4.345   2.814  13.208 -0.0488  2.2756 -0.8320
 3141TIP3    H230839   4.288   2.860  13.076  0.4782 -2.0319 -2.7002
 3142TIP3   OH230840   0.506   2.324   4.232  0.4788 -0.4598 -0.4978
 3142TIP3    H130841   0.585   2.365   4.197  0.6099 -0.9494 -0.7879
 3142TIP3    H230842   0.436   2.386   4.214  0.9712  0.5108  0.7919
 3143TIP3   OH230843   0.059   0.622   6.224 -0.1674 -0.0511 -0.1374
 3143TIP3    H130844   0.110   0.596   6.147 -0.4243 -2.4215  0.4344
 3143TIP3    H230845   0.106   0.583   6.297  1.5373  4.1975  1.3731
 3144TIP3   OH230846   0.731   2.686  15.497  0.6935  0.6758 -0.4667
 3144TIP3    H130847   0.660   2.673  15.560  2.1492  2.3834  1.6909
 3144TIP3    H230848   0.804   2.635  15.533  1.7136  2.1106 -0.4137
 3145TIP3   OH230849   5.697   0.076   3.113 -0.2427 -0.7804 -0.2170
 3145TIP3    H130850   5.790   0.095   3.112 -0.3425 -0.0278  1.3220
 3145TIP3    H230851   5.683   0.028   3.195 -1.0243 -1.9429 -1.0104
 3146TIP3   OH230852   5.421   0.362  15.051 -0.0216 -0.5272  0.2180
 3146TIP3    H130853   5.385   0.449  15.030 -0.5270 -1.1476 -1.6990
 3146TIP3    H230854   5.516   0.374  15.045 -0.1043 -0.2351 -0.6302
 3147TIP3   OH230855   0.015   6.427   1.627 -0.0926 -0.4435 -0.0246
 3147TIP3    H130856  -0.025   6.489   1.566 -0.5511 -0.4561  0.2590
 3147TIP3    H230857   0.085   6.385   1.577 -0.3410 -0.3134 -0.4790
 3148TIP3   OH230858   0.437   1.857  15.740  0.4101 -0.3769  0.3785
 3148TIP3    H130859   0.499   1.922  15.706  1.8776 -1.3680  1.0825
 3148TIP3    H230860   0.410   1.893  15.824 -1.1495  0.7538 -0.5334
 3149TIP3   OH230861   4.419   1.379   4.826  0.0756  0.2755  0.2933
 3149TIP3    H130862   4.513   1.388   4.845  0.3281 -1.1604 -0.1474
 3149TIP3    H230863   4.399   1.454   4.770  1.7376 -1.0225 -2.2480
 3150TIP3   OH230864   0.928   0.550  13.005 -0.0181 -0.3107  0.2033
 3150TIP3    H130865   0.926   0.558  12.909  1.1788  0.8675  0.2356
 3150TIP3    H230866   0.919   0.456  13.021  1.7464 -0.7958 -1.1957
 3151TIP3   OH230867   2.355   2.069   2.173  0.1981  0.1351 -0.4980
 3151TIP3    H130868   2.389   1.995   2.123  2.1744  1.3649 -1.0916
 3151TIP3    H230869   2.347   2.036   2.262  0.1567 -1.0534 -0.9262
 3152TIP3   OH230870   5.593   3.215  16.546  0.4625  0.1996 -0.3411
 3152TIP3    H130871   5.528   3.263  16.495  1.5852  1.8273 -0.3111
 3152TIP3    H230872   5.652   3.176  16.481  1.8767  2.2509 -0.3641
 3153TIP3   OH230873   5.484   6.437   1.669  0.2591 -0.4607 -0.2112
 3153TIP3    H130874   5.396   6.466   1.693  0.0054 -1.2161 -0.2079
 3153TIP3    H230875   5.477   6.415   1.576  0.2105 -1.3511 -0.0079
 3154TIP3   OH230876   4.484   5.444  12.858  0.1776  0.0298  0.8537
 3154TIP3    H130877   4.569   5.414  12.890  0.7514  0.5132 -0.1717
 3154TIP3    H230878   4.422   5.376  12.886  0.9527 -0.4879  1.3289
 3155TIP3   OH230879   2.081   5.324  15.678  0.6190 -0.0080 -0.1624
 3155TIP3    H130880   2.124   5.275  15.608  1.6970  0.3070  0.2587
 3155TIP3    H230881   2.139   5.315  15.754  1.2477  2.4557 -0.2482
 3156TIP3   OH230882   5.890   3.664   5.668  1.1388 -0.6287 -0.4474
 3156TIP3    H130883   5.923   3.593   5.723 -0.0646  0.2665  1.5469
 3156TIP3    H230884   5.797   3.670   5.690  0.4347 -0.6064 -3.0863
 3157TIP3   OH230885   3.170   3.157   2.411 -0.3590  0.1064 -0.9053
 3157TIP3    H130886   3.152   3.164   2.504 -0.8336  0.4599 -1.0184
 3157TIP3    H230887   3.086   3.132   2.372  0.0524 -0.9745 -1.1356
 3158TIP3   OH230888   1.448   1.637  17.069  0.1871  0.1421  0.8178
 3158TIP3    H130889   1.423   1.551  17.037  1.2315  0.0558  0.2303
 3158TIP3    H230890   1.385   1.655  17.140 -0.2085 -0.9656  0.7583
 3159TIP3   OH230891   4.351   2.434   2.632  0.6668 -0.4260  0.1396
 3159TIP3    H130892   4.443   2.448   2.656  0.4845  1.4302 -0.0736
 3159TIP3    H230893   4.302   2.465   2.708  0.1988 -1.0203  0.0842
 3160TIP3   OH230894   2.420   0.774   4.541 -0.5696  0.1792 -0.2678
 3160TIP3    H130895   2.419   0.722   4.461  1.8153 -0.6878  0.1917
 3160TIP3    H230896   2.442   0.862   4.511  0.1442 -0.1042 -0.5968
 3161TIP3   OH230897   5.052   2.358  14.201  0.2972  0.1680  1.1102
 3161TIP3    H130898   5.040   2.266  14.226 -0.0081 -0.1574 -0.1769
 3161TIP3    H230899   5.115   2.392  14.266 -0.4888 -0.6063  2.3202
 3162TIP3   OH230900   0.874   4.687  13.170 -0.0078 -0.4259  0.0099
 3162TIP3    H130901   0.969   4.680  13.161 -0.1374 -2.6445 -0.2541
 3162TIP3    H230902   0.859   4.776  13.202  2.2131 -0.3108  0.8855
 3163TIP3   OH230903   1.377   4.136  14.554  0.2562 -0.9923 -0.2052
 3163TIP3    H130904   1.413   4.078  14.486  1.8735  0.3213 -0.5386
 3163TIP3    H230905   1.416   4.222  14.535 -1.8744  0.1799  0.4054
 3164TIP3   OH230906   6.446   4.705  12.966  0.0288 -0.0541  0.2596
 3164TIP3    H130907   6.485   4.651  13.036 -0.7056 -0.7574  0.1381
 3164TIP3    H230908   6.358   4.670  12.956  0.7784 -1.3793 -2.4726
 3165TIP3   OH230909   2.620   2.889   5.498 -0.2419  0.1437  0.0846
 3165TIP3    H130910   2.714   2.908   5.491 -0.2658  0.1076 -0.3445
 3165TIP3    H230911   2.616   2.797   5.524 -0.1721 -0.2576 -1.2600
 3166TIP3   OH230912   5.301   4.169  11.137  0.2110  0.1182 -0.0557
 3166TIP3    H130913   5.221   4.177  11.085 -0.1843  0.7101  0.6243
 3166TIP3    H230914   5.288   4.231  11.210  1.4559  0.5244 -0.1608
 3167TIP3   OH230915   1.772   1.531  11.835  0.0248 -0.6944 -0.1119
 3167TIP3    H130916   1.781   1.438  11.811  2.8880 -0.3720 -0.6683
 3167TIP3    H230917   1.839   1.575  11.783 -1.4940  1.7797 -0.1036
 3168TIP3   OH230918   6.382   3.861  16.038 -0.2679 -0.8394  0.0150
 3168TIP3    H130919   6.452   3.926  16.041 -1.7390  1.0841 -2.7169
 3168TIP3    H230920   6.427   3.777  16.037  2.0694  0.3135 -1.5589
 3169TIP3   OH230921   5.649   2.943  11.839 -0.1449  0.2979  0.2517
 3169TIP3    H130922   5.611   3.021  11.798  1.5385  1.0520  0.0162
 3169TIP3    H230923   5.575   2.899  11.881 -1.1264  2.1343  0.5666
 3170TIP3   OH230924   5.664   2.456  17.073  0.0663 -0.2417 -0.5940
 3170TIP3    H130925   5.738   2.397  17.087  0.2855 -0.0081 -0.7414
 3170TIP3    H230926   5.631   2.432  16.987  0.3322  0.0358 -0.7749
 3171TIP3   OH230927   4.884   1.720  11.371  0.0320  0.0074 -0.4630
 3171TIP3    H130928   4.964   1.753  11.330 -0.2679  2.0718  0.4628
 3171TIP3    H230929   4.817   1.727  11.303  0.2921 -0.0760 -0.7276
 3172TIP3   OH230930   1.271   4.856   5.780 -0.0055  0.2001 -0.4007
 3172TIP3    H130931   1.239   4.943   5.759 -2.8219 -0.9272 -1.3324
 3172TIP3    H230932   1.312   4.865   5.866  1.1244  2.6679 -1.1303
 3173TIP3   OH230933   1.776   0.136   5.621  0.9914  0.0398  0.0087
 3173TIP3    H130934   1.867   0.107   5.633  0.4162 -1.4090  1.3135
 3173TIP3    H230935   1.731   0.102   5.698 -0.3272  2.2604  0.2897
 3174TIP3   OH230936   1.103   6.656  12.339  1.0680 -0.2240  0.3413
 3174TIP3    H130937   1.173   6.712  12.308  2.9992 -1.5676  2.0053
 3174TIP3    H230938   1.096   6.587  12.272 -0.2661  1.0800 -0.9330
 3175TIP3   OH230939   4.259   4.087   1.659 -0.2561 -0.3284  0.5359
 3175TIP3    H130940   4.195   4.080   1.588 -1.6121  0.5245  1.6258
 3175TIP3    H230941   4.239   4.171   1.700  1.8242  0.1363  0.6908
 3176TIP3   OH230942   0.011   6.486  14.090 -0.0058  0.2109  0.3081
 3176TIP3    H130943  -0.081   6.460  14.082 -0.4328  1.4346  0.9665
 3176TIP3    H230944   0.047   6.427  14.158  0.0448 -1.0759 -0.7889
 3177TIP3   OH230945   4.743   5.202  15.368  0.4830  0.0005 -0.2862
 3177TIP3    H130946   4.746   5.110  15.393  1.0710 -0.0877 -0.6557
 3177TIP3    H230947   4.653   5.230  15.386  0.5190 -0.4218  0.6065
 3178TIP3   OH230948   1.810   3.525  10.709  0.0350 -0.0740 -0.1555
 3178TIP3    H130949   1.839   3.435  10.698  0.4508 -0.3214  2.3645
 3178TIP3    H230950   1.716   3.518  10.728 -0.0117  0.0732 -0.3246
 3179TIP3   OH230951   4.958   4.311   0.730  0.3278 -0.3997  0.3956
 3179TIP3    H130952   4.882   4.339   0.680  1.6310  2.2206 -0.3022
 3179TIP3    H230953   4.991   4.234   0.684 -0.7436 -0.3766 -0.4386
 3180TIP3   OH230954   6.002   6.046  13.464  0.1095 -0.0496  0.3332
 3180TIP3    H130955   6.052   6.112  13.512  0.2500 -0.0701  0.2161
 3180TIP3    H230956   5.912   6.056  13.496  0.3422 -0.6246  1.2177
 3181TIP3   OH230957   6.392   5.022   4.399  0.8953 -0.2480  0.0801
 3181TIP3    H130958   6.370   4.932   4.375  2.0709 -1.1095  1.9560
 3181TIP3    H230959   6.356   5.075   4.328 -1.7818 -1.9854 -0.0327
 3182TIP3   OH230960   1.837   5.107  11.916  0.0110  0.0383  0.4004
 3182TIP3    H130961   1.896   5.151  11.855  1.4238 -1.0633  0.9418
 3182TIP3    H230962   1.879   5.024  11.935 -2.5938 -1.6200 -0.5949
 3183TIP3   OH230963   3.584   4.188   1.706 -0.2076 -0.2294 -0.0102
 3183TIP3    H130964   3.512   4.175   1.768 -0.2036  0.6037  0.1885
 3183TIP3    H230965   3.548   4.246   1.639  0.1203 -0.2381 -0.1959
 3184TIP3   OH230966   6.678   4.768  11.297 -0.1330 -0.6125 -0.4074
 3184TIP3    H130967   6.627   4.688  11.280  1.1791 -1.3725 -0.8883
 3184TIP3    H230968   6.715   4.754  11.385 -1.2415  0.2264  0.2186
 3185TIP3   OH230969   1.764   3.296   0.438 -0.0017  0.1585  0.0257
 3185TIP3    H130970   1.803   3.237   0.374 -0.0356  1.3497 -1.1254
 3185TIP3    H230971   1.838   3.328   0.490  0.1261 -0.1706  0.0484
 3186TIP3   OH230972   0.095   2.611  13.252 -0.0172 -0.3105 -0.1494
 3186TIP3    H130973   0.171   2.560  13.280 -0.9861 -1.7478 -0.0453
 3186TIP3    H230974   0.061   2.564  13.176 -1.6615 -0.5563  0.6951
 3187TIP3   OH230975   0.612   2.881   5.360  0.3489  0.2540  0.3955
 3187TIP3    H130976   0.599   2.805   5.417  1.5278  0.4288  0.9375
 3187TIP3    H230977   0.551   2.946   5.393 -2.1334 -1.0464 -1.3093
 3188TIP3   OH230978   3.725   4.644  13.653  0.2516 -0.4777  0.1844
 3188TIP3    H130979   3.665   4.569  13.643 -0.0464 -0.3557  0.9719
 3188TIP3    H230980   3.715   4.694  13.572 -0.6610 -0.5047  0.2716
 3189TIP3   OH230981   4.022   3.937  10.784 -0.0489 -0.1100 -0.0745
 3189TIP3    H130982   4.046   3.896  10.701 -0.1380  0.7429 -0.5292
 3189TIP3    H230983   4.024   3.865  10.847  1.6643 -0.4771 -0.4842
 3190TIP3   OH230984   2.945   1.443  11.228  0.7755 -0.0952  0.0527
 3190TIP3    H130985   2.901   1.485  11.302 -0.5416  2.5181 -2.0497
 3190TIP3    H230986   3.029   1.489  11.220  1.3058 -0.9708  0.4024
 3191TIP3   OH230987   2.911   6.394  12.110 -0.5196 -0.6261 -0.1596
 3191TIP3    H130988   2.817   6.408  12.110 -0.6581 -1.4746 -0.0244
 3191TIP3    H230989   2.944   6.441  12.033 -0.9343  0.3648  0.2514
 3192TIP3   OH230990   6.547   1.762  12.848 -0.5956 -0.4327  0.2481
 3192TIP3    H130991   6.486   1.692  12.870 -1.5336  0.8959  2.1057
 3192TIP3    H230992   6.503   1.812  12.779 -0.8631 -0.4432  0.4109
 3193TIP3   OH230993   6.752   1.449  11.474  0.3061  0.1445 -0.3648
 3193TIP3    H130994   6.807   1.474  11.400  2.3443  0.1128  1.0545
 3193TIP3    H230995   6.686   1.518  11.480  0.9684  0.8821 -1.3662
 3194TIP3   OH230996   2.006   1.824  15.105  0.3835  0.7913  0.0625
 3194TIP3    H130997   1.974   1.902  15.060 -1.4763  0.3792  0.5887
 3194TIP3    H230998   2.030   1.764  15.034 -0.3343  1.0008 -0.3658
 3195TIP3   OH230999   1.951   0.872  14.173  0.2521  0.2218  0.6110
 3195TIP3    H131000   2.045   0.858  14.171  0.2033 -0.0809  0.2234
 3195TIP3    H231001   1.940   0.966  14.186  0.6048 -0.0753  3.6519
 3196TIP3   OH231002   6.461   4.283  14.477  0.2436  0.0560  0.0318
 3196TIP3    H131003   6.539   4.303  14.529  0.5201 -0.1954 -0.2872
 3196TIP3    H231004   6.445   4.190  14.492 -0.1659  0.1691  0.3237
 3197TIP3   OH231005   0.296   2.516  10.344  0.2394 -0.0378  0.7625
 3197TIP3    H131006   0.288   2.605  10.378  0.0180 -0.6986  2.5206
 3197TIP3    H231007   0.384   2.489  10.367 -0.1221 -0.7165  1.3881
 3198TIP3   OH231008   1.355   0.448  14.657  1.0397 -0.4650 -0.4057
 3198TIP3    H131009   1.416   0.479  14.724  0.0232  0.2353  0.2358
 3198TIP3    H231010   1.326   0.363  14.688 -0.7767  0.6049  1.0276
 3199TIP3   OH231011   6.753   4.452   0.543 -0.2592  0.5563  0.0108
 3199TIP3    H131012   6.840   4.491   0.547 -0.9585  2.2282 -0.4215
 3199TIP3    H231013   6.755   4.399   0.463  1.7316 -3.0958  2.1885
 3200TIP3   OH231014   2.613   6.105   2.593  0.9246 -0.5705  0.0583
 3200TIP3    H131015   2.642   6.042   2.527  1.1677  0.4141 -0.7869
 3200TIP3    H231016   2.587   6.182   2.544 -1.1545 -0.6358  0.9574
 3201TIP3   OH231017   1.385   6.337  15.569 -0.3802  0.1567  0.1627
 3201TIP3    H131018   1.310   6.333  15.510  0.8389  0.9677 -1.5032
 3201TIP3    H231019   1.433   6.414  15.542  0.6962  0.0677  1.6904
 3202TIP3   OH231020   6.743   4.276  12.326  0.3600  0.2399  0.7302
 3202TIP3    H131021   6.824   4.225  12.336 -0.4155 -1.0146  0.9079
 3202TIP3    H231022   6.715   4.258  12.236  0.3137  0.7383  0.6437
 3203TIP3   OH231023   5.089   0.613  16.032 -0.7310 -0.4590 -0.1264
 3203TIP3    H131024   5.024   0.683  16.042 -0.5648 -0.5090  1.4761
 3203TIP3    H231025   5.173   0.658  16.033 -0.6754 -0.5398 -0.7357
 3204TIP3   OH231026   3.092   1.923   1.332 -0.1917  0.3229 -0.9417
 3204TIP3    H131027   3.071   1.903   1.241 -0.6010  2.3368 -1.3319
 3204TIP3    H231028   3.029   1.873   1.384 -1.4801  0.9567 -1.8636
 3205TIP3   OH231029   5.401   1.760   6.454  0.1802  0.2440 -0.2915
 3205TIP3    H131030   5.467   1.692   6.472 -0.3537 -0.4634 -0.9326
 3205TIP3    H231031   5.442   1.841   6.482  0.6766 -0.3949  0.8913
 3206TIP3   OH231032   5.761   1.951  14.175  0.1675  0.0530 -0.3353
 3206TIP3    H131033   5.742   1.941  14.268  1.0600 -0.1211 -0.1696
 3206TIP3    H231034   5.833   2.014  14.172 -0.7169  1.0642 -0.9841
 3207TIP3   OH231035   6.540   1.481   1.317 -0.4469 -0.4165  0.7249
 3207TIP3    H131036   6.550   1.535   1.395  0.7877 -1.0635  1.0418
 3207TIP3    H231037   6.562   1.539   1.244 -0.7988 -0.0401  0.9110
 3208TIP3   OH231038   5.307   0.355   2.702 -0.1417  0.2804 -0.2569
 3208TIP3    H131039   5.298   0.273   2.750 -1.7603  1.9109  2.4637
 3208TIP3    H231040   5.400   0.378   2.711  0.1088 -0.7030 -0.1943
 3209TIP3   OH231041   5.912   2.149   2.560 -0.6128  0.3994  0.2558
 3209TIP3    H131042   5.841   2.213   2.569 -2.0549 -1.1936  0.7103
 3209TIP3    H231043   5.983   2.184   2.615 -1.3120  1.6321  0.4096
 3210TIP3   OH231044   4.040   6.714   2.213  0.4822  0.0706  0.5809
 3210TIP3    H131045   4.101   6.646   2.182 -0.3861 -0.0594 -0.9332
 3210TIP3    H231046   4.095   6.791   2.225  1.0930 -0.2639  0.0330
 3211TIP3   OH231047   1.728   1.620  12.995 -0.0013  0.4063  0.4133
 3211TIP3    H131048   1.735   1.679  13.070  0.4710 -0.8900  1.4261
 3211TIP3    H231049   1.807   1.566  13.000 -0.6237 -0.5930 -0.2459
 3212TIP3   OH231050   6.765   3.379   6.237 -0.1700  0.0713 -0.0674
 3212TIP3    H131051   6.760   3.414   6.148 -0.2339 -0.8939 -0.4648
 3212TIP3    H231052   6.710   3.437   6.289  0.7685  1.3089 -0.4238
 3213TIP3   OH231053   0.946   4.580  14.990 -0.2290  1.1221 -0.5416
 3213TIP3    H131054   1.004   4.541  15.056 -0.1838  2.2220  0.1017
 3213TIP3    H231055   1.004   4.604  14.918 -0.1195  0.8060 -0.5577
 3214TIP3   OH231056   1.725   6.217  11.788  0.6805 -0.2475  0.1124
 3214TIP3    H131057   1.808   6.175  11.763 -0.0685 -1.4581 -0.4137
 3214TIP3    H231058   1.705   6.180  11.874  0.7985  0.2534  0.3643
 3215TIP3   OH231059   6.019   0.136   6.353 -0.3992 -0.2243  0.0073
 3215TIP3    H131060   6.064   0.054   6.333 -2.3481 -1.0308 -1.4027
 3215TIP3    H231061   5.934   0.128   6.311 -0.6937  2.5296 -0.1405
 3216TIP3   OH231062   2.969   5.466   4.534 -0.6247 -0.0716  0.4510
 3216TIP3    H131063   2.939   5.521   4.606  0.2627  1.8081 -0.5445
 3216TIP3    H231064   3.063   5.482   4.530 -0.6434 -0.2357 -1.0370
 3217TIP3   OH231065   1.016   3.916  16.873  0.1275  0.1673 -0.5250
 3217TIP3    H131066   1.110   3.907  16.890  0.2176  0.9514 -0.6030
 3217TIP3    H231067   0.975   3.856  16.935  0.6520  0.2224 -0.1169
 3218TIP3   OH231068   1.152   4.171   2.896 -0.2291 -0.2182  0.2458
 3218TIP3    H131069   1.233   4.202   2.936 -0.4993  1.7851 -0.6156
 3218TIP3    H231070   1.099   4.139   2.969  0.9212 -0.5947  0.9370
 3219TIP3   OH231071   5.856   0.049  16.912 -0.0100 -0.0501  0.3050
 3219TIP3    H131072   5.860  -0.017  16.842  1.3130 -0.3277  0.6110
 3219TIP3    H231073   5.939   0.038  16.959 -0.3793  0.9202  1.2020
 3220TIP3   OH231074   2.261   3.275   1.803  0.3326 -0.6568 -0.4782
 3220TIP3    H131075   2.303   3.223   1.871  0.0736 -2.7538 -1.8384
 3220TIP3    H231076   2.332   3.325   1.763  0.6129 -0.0528  0.7251
 3221TIP3   OH231077   3.994   4.842   5.499 -0.0167 -0.0350 -0.3428
 3221TIP3    H131078   4.059   4.802   5.557  0.4442 -0.3053 -1.0416
 3221TIP3    H231079   4.020   4.934   5.495 -0.3160  0.0834  0.2272
 3222TIP3   OH231080   0.854   5.286  15.848 -0.3885  0.0672 -0.1950
 3222TIP3    H131081   0.772   5.241  15.826 -1.3494  1.7578 -0.3079
 3222TIP3    H231082   0.900   5.294  15.765  0.0554 -1.1371 -0.0872
 3223TIP3   OH231083   0.209   3.872   5.726 -0.1332 -0.1328 -0.9173
 3223TIP3    H131084   0.127   3.823   5.731  0.6943 -1.5407 -0.4469
 3223TIP3    H231085   0.207   3.929   5.803 -0.8036  0.0571 -1.0710
 3224TIP3   OH231086   5.515   1.729   5.397 -0.8469  0.2247 -0.4725
 3224TIP3    H131087   5.575   1.673   5.348  1.1551  1.4835  0.4136
 3224TIP3    H231088   5.485   1.674   5.469  0.1223 -0.1195 -0.3106
 3225TIP3   OH231089   6.263   1.201  12.322  0.3613  0.0421 -0.2155
 3225TIP3    H131090   6.284   1.201  12.416  2.3037  0.3863 -0.6103
 3225TIP3    H231091   6.310   1.124  12.288 -0.8658 -0.4581 -0.8142
 3226TIP3   OH231092   0.537   6.279  16.695  0.5653 -0.7431  0.3611
 3226TIP3    H131093   0.564   6.194  16.731 -0.2728 -0.6152  1.3446
 3226TIP3    H231094   0.588   6.343  16.745  2.0029 -0.6809 -1.1158
 3227TIP3   OH231095   3.427   5.189  16.783  0.2628 -0.4079  0.4393
 3227TIP3    H131096   3.420   5.140  16.865 -0.7791 -1.7020 -0.3864
 3227TIP3    H231097   3.344   5.237  16.777  0.5425  0.0729  0.3678
 3228TIP3   OH231098   3.459   6.759  15.796  0.1559  0.3006 -0.6107
 3228TIP3    H131099   3.371   6.763  15.834  1.0293  0.1067  1.6277
 3228TIP3    H231100   3.505   6.695  15.850  1.2088 -0.9756 -2.8783
 3229TIP3   OH231101   4.437   6.154  14.263 -1.0164 -0.1456  0.3906
 3229TIP3    H131102   4.343   6.171  14.270 -0.9576  0.2841  0.1938
 3229TIP3    H231103   4.474   6.193  14.342 -1.0231 -0.4410  0.5370
 3230TIP3   OH231104   5.210   2.922   3.993  0.1114  0.2772  0.3241
 3230TIP3    H131105   5.128   2.900   3.949 -0.1351  1.5955  0.0830
 3230TIP3    H231106   5.208   2.871   4.074  0.7907 -2.5522 -1.3058
 3231TIP3   OH231107   2.974   4.695   2.406 -0.3862  0.8220 -0.0487
 3231TIP3    H131108   2.947   4.626   2.467  2.1737 -1.1737 -1.0040
 3231TIP3    H231109   2.909   4.692   2.336 -0.2188 -0.7716 -0.1611
 3232TIP3   OH231110   5.998   5.286   6.163 -0.3830  0.4772  0.2407
 3232TIP3    H131111   6.037   5.347   6.225 -0.7545  0.8709  0.0867
 3232TIP3    H231112   5.929   5.242   6.213 -0.2519  0.3234  0.2904
 3233TIP3   OH231113   1.703   4.036   1.718  0.3188 -0.5036 -1.0131
 3233TIP3    H131114   1.749   4.098   1.661  0.7393 -0.1119 -0.2552
 3233TIP3    H231115   1.746   4.043   1.803  0.2574 -1.7070 -0.8540
 3234TIP3   OH231116   3.447   0.731   5.262  0.1109  0.1610  0.1176
 3234TIP3    H131117   3.466   0.648   5.220  0.7582  1.0814 -1.5089
 3234TIP3    H231118   3.445   0.795   5.190  3.2598  2.1962  1.6009
 3235TIP3   OH231119   1.210   3.922   0.973 -0.0391  0.2375 -0.7890
 3235TIP3    H131120   1.276   3.954   1.035 -0.9575 -1.1926  1.0327
 3235TIP3    H231121   1.129   3.965   1.000 -0.2042  0.6245 -1.8715
 3236TIP3   OH231122   5.568   2.405  12.734 -0.0895 -0.1626  0.0484
 3236TIP3    H131123   5.533   2.319  12.758 -1.0344  0.2521  0.2069
 3236TIP3    H231124   5.647   2.386  12.684 -0.0249 -1.1110  0.4903
 3237TIP3   OH231125   1.210   6.424  14.911 -0.2555  0.5467 -0.1410
 3237TIP3    H131126   1.211   6.330  14.891 -1.1880 -0.0983  2.3754
 3237TIP3    H231127   1.153   6.431  14.988  0.7495  3.0245  0.4822
 3238TIP3   OH231128   5.893   4.612   3.212 -0.1090  0.2389  0.7816
 3238TIP3    H131129   5.984   4.630   3.236 -0.6057  3.7135  0.5403
 3238TIP3    H231130   5.842   4.677   3.261 -2.0722  0.9225 -1.9486
 3239TIP3   OH231131   1.702   3.152  14.640 -0.6698  0.1026  0.5612
 3239TIP3    H131132   1.615   3.177  14.607  0.6774  4.1666 -0.4771
 3239TIP3    H231133   1.740   3.100  14.568 -2.0827 -1.6549  0.9948
 3240TIP3   OH231134   4.662   1.001  13.749 -0.5755  0.1780 -0.3779
 3240TIP3    H131135   4.568   1.021  13.758 -0.2678  1.3655  0.4209
 3240TIP3    H231136   4.705   1.086  13.751  0.4599 -0.2634 -2.0527
 3241TIP3   OH231137   5.245   0.292  11.435 -0.3271  0.6268  0.0539
 3241TIP3    H131138   5.205   0.304  11.521 -0.0993  0.6218  0.1607
 3241TIP3    H231139   5.242   0.379  11.394 -0.6917  0.5674 -0.0441
 3242TIP3   OH231140   6.359   2.927   3.763  0.0418 -0.1601  0.4904
 3242TIP3    H131141   6.324   2.842   3.789 -0.0055 -0.0503  0.7938
 3242TIP3    H231142   6.441   2.935   3.811  0.4722 -0.4021 -0.1933
 3243TIP3   OH231143   4.096   0.745  14.771 -0.3915  0.1938 -0.4325
 3243TIP3    H131144   4.085   0.701  14.686 -1.6810  2.6780 -1.6496
 3243TIP3    H231145   4.182   0.788  14.765 -0.2425 -0.0762 -0.2488
 3244TIP3   OH231146   5.844   1.303  12.683 -0.3665  0.0384 -0.4678
 3244TIP3    H131147   5.932   1.312  12.718 -0.3854  0.0714 -0.4288
 3244TIP3    H231148   5.855   1.251  12.603 -0.2413  0.5009 -0.7589
 3245TIP3   OH231149   5.507   1.752   0.010 -0.5346  0.1475  0.1026
 3245TIP3    H131150   5.546   1.668   0.037  1.1148  0.9075  0.2382
 3245TIP3    H231151   5.431   1.727  -0.043  0.9716 -1.5175 -1.4576
 3246TIP3   OH231152   6.729   5.755   0.567 -0.6982 -0.1990  0.7067
 3246TIP3    H131153   6.770   5.815   0.630 -0.6720  2.2196 -1.4296
 3246TIP3    H231154   6.639   5.746   0.598  0.1733 -2.0658  3.0318
 3247TIP3   OH231155   1.257   3.028   4.999 -0.1445 -0.0192 -0.6822
 3247TIP3    H131156   1.314   3.052   5.072  2.7718 -2.2906 -2.0251
 3247TIP3    H231157   1.251   3.108   4.946 -0.4554  1.0035  0.8208
 3248TIP3   OH231158   5.540   5.811   0.809  0.7951  0.0547  0.7061
 3248TIP3    H131159   5.508   5.798   0.719  1.0543  3.3940 -0.0072
 3248TIP3    H231160   5.632   5.834   0.798  0.7167  0.9314  1.7731
 3249TIP3   OH231161   3.370   6.548  13.017  0.5423 -0.0173  0.3219
 3249TIP3    H131162   3.431   6.482  13.050 -1.4372 -2.5322 -0.7500
 3249TIP3    H231163   3.336   6.511  12.936 -0.5475  2.4467 -0.4337
 3250TIP3   OH231164   1.772   2.418   1.810 -0.0817 -0.3989 -0.2898
 3250TIP3    H131165   1.738   2.466   1.735  0.1579  0.9781  0.4403
 3250TIP3    H231166   1.695   2.406   1.867  0.2041  0.8918  0.4159
 3251TIP3   OH231167   3.874   1.728  12.539  0.5314  0.0642 -0.1072
 3251TIP3    H131168   3.798   1.773  12.577 -1.3847 -1.3953 -2.0044
 3251TIP3    H231169   3.898   1.662  12.605  0.2165  0.5890  0.5408
 3252TIP3   OH231170   6.549   6.184   2.035 -0.1964  0.1042 -0.1058
 3252TIP3    H131171   6.470   6.199   2.087 -0.8538  1.0095 -1.3125
 3252TIP3    H231172   6.609   6.255   2.061 -0.0319 -0.1889  0.3239
 3253TIP3   OH231173   1.048   0.424   5.710  0.1882 -0.3659 -0.1357
 3253TIP3    H131174   0.991   0.387   5.643  0.1483  1.6547 -1.2873
 3253TIP3    H231175   1.104   0.485   5.663  0.1113  1.1829  1.6528
 3254TIP3   OH231176   5.615   0.038   1.598 -0.5711  0.2258 -0.6252
 3254TIP3    H131177   5.531   0.005   1.566 -2.3357 -0.1540  3.6780
 3254TIP3    H231178   5.675  -0.035   1.588 -1.8850 -0.9740 -0.0652
 3255TIP3   OH231179   5.825   6.649   1.485 -0.5729  0.4659 -0.2070
 3255TIP3    H131180   5.819   6.656   1.390  3.2543 -0.3390 -0.6376
 3255TIP3    H231181   5.815   6.555   1.503  0.0793  0.4408  0.0398
 3256TIP3   OH231182   2.377   5.612  16.029  0.2151 -0.1048  0.3406
 3256TIP3    H131183   2.346   5.702  16.038 -1.5473 -0.8479  3.0348
 3256TIP3    H231184   2.473   5.620  16.026  0.0792  1.8669 -0.1193
 3257TIP3   OH231185   5.457   2.444   2.917 -0.2643 -0.2707  0.3324
 3257TIP3    H131186   5.441   2.408   2.829 -3.0524 -1.2840  1.1338
 3257TIP3    H231187   5.381   2.500   2.933  0.4210  0.2301  1.9386
 3258TIP3   OH231188   1.911   5.095   5.850 -0.1584  0.2720  0.0145
 3258TIP3    H131189   1.867   5.077   5.933  0.9807  0.4997  0.6901
 3258TIP3    H231190   1.938   5.009   5.818 -3.8615 -0.3343 -2.0995
 3259TIP3   OH231191   2.251   3.871   1.962 -0.6963 -0.2120  0.2639
 3259TIP3    H131192   2.254   3.833   2.050 -0.3638  0.4623  0.5483
 3259TIP3    H231193   2.207   3.804   1.909 -2.5140  0.0745  1.3104
 3260TIP3   OH231194   2.631   2.430  15.308  0.6286 -0.0121  0.0033
 3260TIP3    H131195   2.602   2.339  15.315 -1.3293  0.7072  4.0803
 3260TIP3    H231196   2.560   2.475  15.262  1.3853 -0.3724 -1.5914
 3261TIP3   OH231197   3.231   1.863  13.625 -0.6555 -0.2794 -0.2557
 3261TIP3    H131198   3.207   1.921  13.553 -0.5045  0.3329  0.1727
 3261TIP3    H231199   3.325   1.850  13.614 -0.6331 -0.1885 -0.1750
 3262TIP3   OH231200   1.656   6.413   1.263  0.4192 -0.1950  0.2023
 3262TIP3    H131201   1.743   6.405   1.224 -0.1815  0.6669 -1.3777
 3262TIP3    H231202   1.600   6.441   1.191 -1.4710 -2.0918  0.8355
 3263TIP3   OH231203   4.728   0.533   3.157 -0.7652  0.1302  0.4205
 3263TIP3    H131204   4.788   0.461   3.141  1.5030  1.7008  1.3464
 3263TIP3    H231205   4.688   0.552   3.072  0.0739 -0.9375 -0.2208
 3264TIP3   OH231206   2.001   5.106   0.847 -0.2575  0.2026  0.7174
 3264TIP3    H131207   2.081   5.055   0.863 -0.5581 -1.3685 -2.0540
 3264TIP3    H231208   1.930   5.042   0.858 -0.7806  0.4491 -0.9990
 3265TIP3   OH231209   1.453   1.418   2.252  0.7358  0.6208 -0.0598
 3265TIP3    H131210   1.376   1.380   2.208  1.5721  0.5635 -1.5438
 3265TIP3    H231211   1.517   1.347   2.253  1.2682  1.0970 -0.1413
 3266TIP3   OH231212   6.094   3.792   0.947  0.5029  0.2473  0.1601
 3266TIP3    H131213   6.136   3.787   0.862  0.6407  0.7414  0.1931
 3266TIP3    H231214   6.080   3.886   0.961 -1.4491  0.0701 -0.2700
 3267TIP3   OH231215   4.581   4.792  10.503 -0.1103 -0.5665 -0.1773
 3267TIP3    H131216   4.593   4.761  10.413 -0.3085 -1.4966  0.1132
 3267TIP3    H231217   4.625   4.727  10.557  0.5389  0.3160  0.3716
 3268TIP3   OH231218   1.065   4.237   3.397  0.8495 -0.0486 -0.2311
 3268TIP3    H131219   0.988   4.289   3.371  1.2536  1.0055  0.5915
 3268TIP3    H231220   1.137   4.274   3.346  0.6154 -1.9888 -2.1034
 3269TIP3   OH231221   0.289   4.226  16.898  0.7088 -0.0706 -0.3545
 3269TIP3    H131222   0.306   4.214  16.805 -2.1827  0.6407 -1.0962
 3269TIP3    H231223   0.327   4.149  16.940  2.9472  0.0831 -1.9509
 3270TIP3   OH231224   0.808   0.926  11.993 -0.5305  0.1774  0.1331
 3270TIP3    H131225   0.821   0.861  11.925 -0.9924  0.3077 -0.0864
 3270TIP3    H231226   0.810   1.010  11.947 -0.8049  0.2694  0.2834
 3271TIP3   OH231227   0.499   2.344   2.247  0.0863  0.1732  0.2825
 3271TIP3    H131228   0.594   2.336   2.251  0.0883  0.1471  0.1706
 3271TIP3    H231229   0.468   2.260   2.215  0.0121  0.1180  0.4957
 3272TIP3   OH231230   2.072   3.724   1.552 -0.6013  0.3548 -0.3017
 3272TIP3    H131231   2.086   3.803   1.499 -0.1938 -0.5926 -1.6343
 3272TIP3    H231232   2.089   3.651   1.493 -2.1374 -0.7804  0.5619
 3273TIP3   OH231233   6.530   6.154  13.925 -0.2769  0.0762 -0.8948
 3273TIP3    H131234   6.574   6.074  13.954  0.9949  1.1654  0.3279
 3273TIP3    H231235   6.517   6.142  13.831  0.9087 -1.0907 -0.9358
 3274TIP3   OH231236   4.883   5.370  14.541 -0.2799  0.0360  0.2137
 3274TIP3    H131237   4.851   5.420  14.466  1.2228 -2.4959 -2.3178
 3274TIP3    H231238   4.806   5.357  14.596 -2.1685 -0.4496 -2.3684
 3275TIP3   OH231239   2.503   4.656   3.555  0.2901  0.0013  0.0130
 3275TIP3    H131240   2.531   4.585   3.497  1.5276  1.6209 -1.4812
 3275TIP3    H231241   2.517   4.622   3.643  1.0998 -1.5014 -0.6615
 3276TIP3   OH231242   0.848   5.677   4.286 -0.2127  0.3349  0.1688
 3276TIP3    H131243   0.809   5.658   4.200  0.1133  0.3784  0.0062
 3276TIP3    H231244   0.863   5.591   4.324 -0.5083  0.3199  0.2509
 3277TIP3   OH231245   4.475   3.502   2.808  0.1941 -0.5754  0.1226
 3277TIP3    H131246   4.457   3.480   2.899 -3.1465  1.0559 -0.0130
 3277TIP3    H231247   4.496   3.596   2.809  2.8935 -1.0787 -0.5693
 3278TIP3   OH231248   4.794   0.093  10.769  0.3177 -0.3303  0.3410
 3278TIP3    H131249   4.810   0.061  10.858 -0.7472  0.8895  1.0097
 3278TIP3    H231250   4.877   0.134  10.743  1.1493 -2.0638  0.1200
 3279TIP3   OH231251   0.171   1.082  13.586 -0.4497  0.0332 -0.1992
 3279TIP3    H131252   0.187   1.038  13.669 -0.4706 -0.1967 -0.3149
 3279TIP3    H231253   0.136   1.013  13.529 -2.1073  0.5692  0.1197
 3280TIP3   OH231254   6.136   4.096  13.746  0.3401 -0.2703 -0.2344
 3280TIP3    H131255   6.188   4.175  13.760 -1.3526  1.2267 -1.8780
 3280TIP3    H231256   6.045   4.126  13.747 -0.4881 -2.6014  1.3044
 3281TIP3   OH231257   2.028   1.377  16.393  0.1319 -0.0465  0.3099
 3281TIP3    H131258   1.976   1.406  16.318  1.4138  0.8878 -0.2532
 3281TIP3    H231259   2.109   1.428  16.388 -0.1154  0.7826  2.8957
 3282TIP3   OH231260   2.269   2.209  12.658 -0.6227  0.0386  0.5658
 3282TIP3    H131261   2.198   2.274  12.652 -2.6532 -2.1334 -0.9085
 3282TIP3    H231262   2.230   2.135  12.703  0.6657 -1.2762 -0.3877
 3283TIP3   OH231263   5.276   2.556   0.773  0.1663  0.7007  0.2467
 3283TIP3    H131264   5.331   2.519   0.704  0.1007  1.2728 -0.1237
 3283TIP3    H231265   5.229   2.627   0.729 -0.0584  0.9098  0.8261
 3284TIP3   OH231266   0.406   3.036   5.448 -0.3457  0.3320 -0.6236
 3284TIP3    H131267   0.352   3.099   5.401 -0.4306  0.2155 -0.6824
 3284TIP3    H231268   0.347   2.963   5.466 -0.4499  0.5794  0.0905
 3285TIP3   OH231269   5.817   6.654   2.254  0.0573  0.0248  0.2876
 3285TIP3    H131270   5.804   6.671   2.160  1.2786  0.0858  0.1170
 3285TIP3    H231271   5.755   6.713   2.297 -0.4735  0.0473 -0.4719
 3286TIP3   OH231272   3.515   5.388   2.430 -0.5479  0.1179  0.0408
 3286TIP3    H131273   3.554   5.435   2.356  1.4437 -1.4256  0.0083
 3286TIP3    H231274   3.537   5.441   2.506 -3.2483  2.1120 -0.4087
 3287TIP3   OH231275   5.779   1.404   2.461  0.1664  0.2187 -0.0451
 3287TIP3    H131276   5.855   1.416   2.404  1.3646 -3.3541  0.5027
 3287TIP3    H231277   5.812   1.421   2.549 -0.7571  2.2969 -0.0436
 3288TIP3   OH231278   2.251   2.968   0.213 -0.4034 -0.2548  0.7806
 3288TIP3    H131279   2.274   3.046   0.263  2.5229  1.6072 -2.9063
 3288TIP3    H231280   2.322   2.906   0.231 -0.1028 -0.1181  0.1224
 3289TIP3   OH231281   1.060   1.363   4.415  0.1137 -0.0767 -0.2502
 3289TIP3    H131282   1.076   1.454   4.390 -1.1445 -0.2704 -1.9416
 3289TIP3    H231283   1.113   1.312   4.354 -0.4344 -0.5017 -0.3777
 3290TIP3   OH231284   1.842   5.476  15.234  0.0206  0.2891  0.0503
 3290TIP3    H131285   1.845   5.385  15.204 -0.9700 -0.2895  1.6051
 3290TIP3    H231286   1.769   5.479  15.297 -0.8548  2.4682 -0.9390
 3291TIP3   OH231287   1.411   6.052  16.650 -0.2681 -0.0040  1.0289
 3291TIP3    H131288   1.414   5.969  16.697 -0.2895 -0.2184  0.6528
 3291TIP3    H231289   1.317   6.072  16.644 -0.2478  0.2229  1.4222
 3292TIP3   OH231290   0.448   2.755   4.422  0.7511  0.0975 -0.1622
 3292TIP3    H131291   0.394   2.698   4.477 -0.9757  0.5262 -1.3310
 3292TIP3    H231292   0.534   2.712   4.419 -0.2075 -1.9129 -0.1983
 3293TIP3   OH231293   0.913   6.023   1.153  0.3616 -0.5565 -0.4154
 3293TIP3    H131294   0.888   6.109   1.187  1.7258 -0.5727  0.7189
 3293TIP3    H231295   0.831   5.986   1.120 -0.8660 -0.0248  1.7934
 3294TIP3   OH231296   0.540   4.597  12.354 -0.1322 -0.2020  0.0430
 3294TIP3    H131297   0.554   4.536  12.427 -1.9801 -0.1863  0.4401
 3294TIP3    H231298   0.450   4.626  12.364  0.2328  1.4059 -1.0673
 3295TIP3   OH231299   1.345   4.939   3.590 -0.5875  0.1676  0.4740
 3295TIP3    H131300   1.257   4.970   3.568 -0.9559 -1.0613  0.1388
 3295TIP3    H231301   1.333   4.847   3.613  0.8042 -0.4011 -0.8953
 3296TIP3   OH231302   3.429   4.378   3.621 -0.1511  0.2897 -0.0088
 3296TIP3    H131303   3.489   4.442   3.583 -0.2930  0.0719 -0.6006
 3296TIP3    H231304   3.485   4.304   3.643 -0.3576 -0.3719 -1.6036
 3297TIP3   OH231305   6.248   2.863  14.503 -0.0911  0.0933  0.7988
 3297TIP3    H131306   6.286   2.781  14.471 -1.7451 -0.6016  0.4906
 3297TIP3    H231307   6.185   2.836  14.569  0.2969  1.2435  1.6725
 3298TIP3   OH231308   5.517   1.324  15.113  0.1226  0.1750 -0.1670
 3298TIP3    H131309   5.437   1.302  15.160  0.1550 -0.4823 -0.4042
 3298TIP3    H231310   5.493   1.324  15.021  0.1097  1.2542 -0.1790
 3299TIP3   OH231311   5.848   4.672  10.430 -0.7059  0.6036  0.7788
 3299TIP3    H131312   5.917   4.731  10.461  0.2579  1.4084 -2.4354
 3299TIP3    H231313   5.895   4.596  10.397 -1.5309  0.2352  0.4290
 3300TIP3   OH231314   2.435   1.942  13.321  0.3559 -0.2312 -0.3932
 3300TIP3    H131315   2.488   2.017  13.293 -0.7016  0.8091  0.3080
 3300TIP3    H231316   2.461   1.872  13.261  1.1489  0.7692 -1.2791
 3301TIP3   OH231317   5.498   3.764  13.638 -0.0673 -0.2469 -0.2379
 3301TIP3    H131318   5.415   3.717  13.644 -0.1484  0.1057  2.7825
 3301TIP3    H231319   5.516   3.769  13.544 -2.2038 -2.4791 -0.8711
 3302TIP3   OH231320   2.875   1.501   2.611 -0.3393 -0.3109 -0.2096
 3302TIP3    H131321   2.809   1.434   2.596  0.5741 -1.0451 -1.1305
 3302TIP3    H231322   2.936   1.492   2.538  1.0737 -0.0244  0.8786
 3303TIP3   OH231323   5.242   4.819  12.971 -0.8309 -0.5798  0.2799
 3303TIP3    H131324   5.217   4.800  12.881 -0.1327  1.6543 -0.4397
 3303TIP3    H231325   5.181   4.888  12.999  0.2785  0.2202  0.7798
 3304TIP3   OH231326   6.189   4.873  15.920  0.3158  0.3416 -0.3705
 3304TIP3    H131327   6.223   4.962  15.909  1.4903 -0.1562 -1.0402
 3304TIP3    H231328   6.257   4.817  15.881 -0.3373 -0.8538  0.1553
 3305TIP3   OH231329   6.303   1.718   1.078  0.2608  0.2767 -0.0472
 3305TIP3    H131330   6.322   1.812   1.080  0.4890  0.2207  0.6324
 3305TIP3    H231331   6.386   1.677   1.057  0.3542  0.1787  0.5043
 3306TIP3   OH231332   0.092   4.820  13.175 -0.3404  0.0289  0.2893
 3306TIP3    H131333   0.053   4.847  13.091  0.1105  1.0293  0.3902
 3306TIP3    H231334   0.080   4.725  13.177 -0.4218 -0.0014 -0.8777
 3307TIP3   OH231335   4.490   3.651  16.759  0.4949 -0.3574  0.0148
 3307TIP3    H131336   4.411   3.596  16.761  0.2374  0.0140  0.0636
 3307TIP3    H231337   4.483   3.706  16.837  0.5877 -0.0253 -0.2106
 3308TIP3   OH231338   5.356   5.687  13.498 -0.3462  0.5255  0.0685
 3308TIP3    H131339   5.436   5.728  13.533 -0.1151  0.1762 -0.0450
 3308TIP3    H231340   5.313   5.757  13.449 -0.3322  0.8348  0.4889
 3309TIP3   OH231341   6.031   5.639   0.954 -0.1810  0.1090 -0.2031
 3309TIP3    H131342   5.948   5.680   0.929 -0.6401 -0.2223  0.7231
 3309TIP3    H231343   6.019   5.547   0.932 -0.1481  0.0226  0.1343
 3310TIP3   OH231344   5.959   4.934   2.700 -0.1747  0.3995  0.1929
 3310TIP3    H131345   5.905   5.000   2.743 -1.0158 -0.9655  1.3114
 3310TIP3    H231346   5.907   4.854   2.705  0.6362 -0.2704 -1.5023
 3311TIP3   OH231347   4.608   5.219  15.864  0.1213  0.2551  0.1767
 3311TIP3    H131348   4.670   5.237  15.935  0.7261  0.7603 -0.4701
 3311TIP3    H231349   4.634   5.134  15.830 -0.4694 -0.2126  0.8583
 3312TIP3   OH231350   3.616   1.614  15.774 -0.0251 -0.0118  0.4655
 3312TIP3    H131351   3.530   1.575  15.757 -0.5860  0.5639  1.8248
 3312TIP3    H231352   3.678   1.543  15.756 -0.7894 -0.4868 -0.3798
 3313TIP3   OH231353   0.588   0.304   6.362 -0.5434 -0.0525 -0.3694
 3313TIP3    H131354   0.555   0.391   6.343 -2.4323 -0.7655 -0.6016
 3313TIP3    H231355   0.519   0.245   6.331  0.0084 -1.5671  1.1282
 3314TIP3   OH231356   0.106   0.184   4.000 -0.5346  0.2182 -0.2629
 3314TIP3    H131357   0.201   0.191   3.999 -0.4673 -0.6532 -1.0521
 3314TIP3    H231358   0.082   0.194   4.092  0.5658 -2.4282  0.3978
 3315TIP3   OH231359   3.694   3.809   1.930  0.5861  0.6563 -0.0546
 3315TIP3    H131360   3.715   3.717   1.913 -0.7160  0.5320 -1.1616
 3315TIP3    H231361   3.688   3.849   1.844 -1.9282  1.0367  0.2154
 3316TIP3   OH231362   2.990   0.409   6.090 -0.1899 -0.3489 -0.6323
 3316TIP3    H131363   2.916   0.363   6.052  0.6700 -0.3581 -2.3889
 3316TIP3    H231364   3.052   0.340   6.115 -0.5515 -0.3180  0.3870
 3317TIP3   OH231365   4.049   0.971   4.005 -0.6586  0.2179 -1.1592
 3317TIP3    H131366   4.087   1.054   3.976 -1.6843  1.6489  1.2455
 3317TIP3    H231367   3.977   0.955   3.944 -0.7593  1.3696 -1.3717
 3318TIP3   OH231368   3.130   0.609   0.759  0.2944 -0.0673 -0.1355
 3318TIP3    H131369   3.111   0.667   0.685  0.5658  1.9817  1.3010
 3318TIP3    H231370   3.166   0.530   0.719 -0.4586  0.5810 -2.2213
 3319TIP3   OH231371   4.752   3.334  13.971  0.2273  0.3284  0.1397
 3319TIP3    H131372   4.777   3.425  13.985 -0.3875  0.2460  2.1149
 3319TIP3    H231373   4.835   3.289  13.953  0.5203  1.2811 -0.9584
 3320TIP3   OH231374   2.244   2.388   2.460  0.6131  0.3952 -0.0156
 3320TIP3    H131375   2.214   2.297   2.451  1.1247  0.1279  0.8657
 3320TIP3    H231376   2.243   2.422   2.370  0.2095 -0.4112 -0.3286
 3321TIP3   OH231377   0.786   5.641  12.534  0.3701  1.0154  0.3349
 3321TIP3    H131378   0.698   5.605  12.542  0.7149  0.4650  1.8198
 3321TIP3    H231379   0.830   5.584  12.471 -0.7800  2.2404 -1.6779
 3322TIP3   OH231380   3.929   3.357   2.821 -0.2706  0.1943 -0.2507
 3322TIP3    H131381   3.983   3.436   2.820  0.1697 -0.0766  0.5957
 3322TIP3    H231382   3.933   3.323   2.732 -0.9725  1.4508 -0.7834
 3323TIP3   OH231383   1.617   0.540   1.909  0.3978 -0.3617 -0.4342
 3323TIP3    H131384   1.560   0.604   1.950  2.1981  1.9951 -1.3584
 3323TIP3    H231385   1.667   0.502   1.981  0.6470  0.7170 -0.0193
 3324TIP3   OH231386   5.177   2.956  12.369  0.5624 -0.6918 -0.5278
 3324TIP3    H131387   5.134   2.995  12.293 -0.6699  0.9524  0.9251
 3324TIP3    H231388   5.220   3.030  12.413  0.4337 -1.4060  0.8666
 3325TIP3   OH231389   5.675   2.163   5.470 -0.4722 -0.0884  0.4291
 3325TIP3    H131390   5.624   2.244   5.462 -1.1510 -0.6225 -1.1032
 3325TIP3    H231391   5.750   2.175   5.412  1.4818  0.8500  2.9680
 3326TIP3   OH231392   4.866   1.685  14.877  0.2916 -0.0055  0.4996
 3326TIP3    H131393   4.839   1.762  14.827 -0.2927 -0.9071 -0.6080
 3326TIP3    H231394   4.786   1.653  14.918  0.2261 -0.8910 -0.2865
 3327TIP3   OH231395   2.215   2.756  14.273 -0.7834 -0.9704 -0.4946
 3327TIP3    H131396   2.131   2.724  14.242 -1.1042  0.7543 -1.5537
 3327TIP3    H231397   2.274   2.746  14.198 -0.2971 -1.2505 -0.0826
 3328TIP3   OH231398   5.888   6.003   3.229 -0.1602 -0.3697 -0.0130
 3328TIP3    H131399   5.978   6.026   3.253  0.7174 -3.1625 -0.2614
 3328TIP3    H231400   5.836   6.022   3.307  0.0664  3.6092 -0.6189
 3329TIP3   OH231401   3.124   2.145  15.529 -0.2279 -0.2775 -0.0121
 3329TIP3    H131402   3.064   2.220  15.532  0.4076  0.2507 -0.1925
 3329TIP3    H231403   3.161   2.147  15.441  0.3571 -0.3479  0.2237
 3330TIP3   OH231404   6.115   2.611  13.242 -0.5051  0.1434 -0.2532
 3330TIP3    H131405   6.061   2.531  13.238  0.3304 -0.3969 -1.0647
 3330TIP3    H231406   6.155   2.608  13.328 -2.3408  0.9568  0.6886
 3331TIP3   OH231407   2.833   6.001   4.743 -0.0884  0.0040 -0.4423
 3331TIP3    H131408   2.896   6.066   4.774  0.4057  0.4023 -2.1504
 3331TIP3    H231409   2.749   6.046   4.745  0.1483  0.4835 -0.9616
 3332TIP3   OH231410   0.020   3.692   3.351 -0.9139  0.3684  0.7763
 3332TIP3    H131411  -0.070   3.671   3.323 -0.1933 -0.4240 -1.0919
 3332TIP3    H231412   0.009   3.759   3.419 -2.9780 -0.7283  1.6100
 3333TIP3   OH231413   2.401   0.979   0.364  0.0593 -0.0796 -0.5554
 3333TIP3    H131414   2.482   0.993   0.413 -0.4884 -0.2943  0.4386
 3333TIP3    H231415   2.396   1.054   0.305  0.5077  0.4463  0.0569
 3334TIP3   OH231416   2.865   6.350   3.313  0.0445  0.2426  0.3245
 3334TIP3    H131417   2.904   6.342   3.226 -0.4958  1.0180 -0.0055
 3334TIP3    H231418   2.835   6.441   3.317  1.3447  0.6474  1.8736
 3335TIP3   OH231419   2.902   1.587   4.978 -0.5997  0.2496  1.0655
 3335TIP3    H131420   2.816   1.609   5.014 -0.6045 -0.5704  1.6034
 3335TIP3    H231421   2.959   1.580   5.054  0.3978  2.5189  0.5998
 3336TIP3   OH231422   1.557   0.567  16.790  0.3799 -0.4070  0.3950
 3336TIP3    H131423   1.616   0.512  16.841 -0.3192 -0.6391  0.9802
 3336TIP3    H231424   1.530   0.511  16.716 -0.2381 -0.8246  0.9248
 3337TIP3   OH231425   0.310   4.602  12.643 -0.2190  0.5439  0.0882
 3337TIP3    H131426   0.301   4.535  12.576 -0.4055  0.8861 -0.2285
 3337TIP3    H231427   0.393   4.580  12.687 -0.8395 -0.5606  0.7475
 3338TIP3   OH231428   2.805   3.665   2.214  0.0975 -0.2992 -0.2644
 3338TIP3    H131429   2.766   3.716   2.285 -3.0528 -2.5304 -0.2260
 3338TIP3    H231430   2.892   3.642   2.247 -0.4172  0.5884  1.9050
 3339TIP3   OH231431   3.071   0.305  15.939  0.9291  0.1350  0.1650
 3339TIP3    H131432   2.983   0.325  15.906  0.0537 -1.0301  1.6668
 3339TIP3    H231433   3.111   0.251  15.872 -0.0228 -0.4461  0.0508
 3340TIP3   OH231434   3.577   5.760  11.981  0.4697  0.0839 -0.6571
 3340TIP3    H131435   3.595   5.831  11.919  0.8437  0.1627 -0.4646
 3340TIP3    H231436   3.504   5.712  11.942 -0.3989  1.1093 -0.3375
 3341TIP3   OH231437   0.887   2.040   5.638  0.0842 -0.1375  0.5487
 3341TIP3    H131438   0.848   2.114   5.685 -0.6454  1.2787 -2.1275
 3341TIP3    H231439   0.844   1.963   5.675  0.9349  0.6494  3.4827
 3342TIP3   OH231440   0.937   4.876   2.280 -0.2379  0.1545 -0.4582
 3342TIP3    H131441   0.998   4.849   2.211 -0.0647  1.2792 -0.7742
 3342TIP3    H231442   0.881   4.799   2.294  0.4032 -0.4477 -1.1008
 3343TIP3   OH231443   2.012   3.429  13.924 -0.4959 -0.4433  0.1381
 3343TIP3    H131444   1.973   3.368  13.987  1.9192  0.0966  2.3194
 3343TIP3    H231445   1.971   3.513  13.944 -0.0971 -0.3723  0.6926
 3344TIP3   OH231446   0.291   4.158  13.175 -0.1567 -0.8141  0.1922
 3344TIP3    H131447   0.333   4.215  13.240 -1.0293 -0.6189  0.5946
 3344TIP3    H231448   0.324   4.071  13.196 -0.9960 -0.8746  1.3988
 3345TIP3   OH231449   1.900   5.722   0.677 -0.5193  0.2519  0.4196
 3345TIP3    H131450   1.868   5.811   0.683 -0.2639  0.4958 -1.2237
 3345TIP3    H231451   1.852   5.684   0.603 -1.0634 -1.1864  1.4521
 3346TIP3   OH231452   0.739   5.017   6.416  0.3281 -0.3558 -0.7647
 3346TIP3    H131453   0.828   5.002   6.386 -0.0301 -1.5979 -1.2890
 3346TIP3    H231454   0.742   4.998   6.510  0.9761  1.3708 -0.4046
 3347TIP3   OH231455   4.463   0.616  14.772 -0.7315 -0.1249 -0.0921
 3347TIP3    H131456   4.493   0.684  14.833  1.8341  0.9838 -2.3942
 3347TIP3    H231457   4.440   0.542  14.829  0.5374  1.1789  2.2754
 3348TIP3   OH231458   3.287   6.508  11.039 -0.1955  0.3354 -0.7218
 3348TIP3    H131459   3.363   6.502  11.096 -0.0828  2.0625 -0.6222
 3348TIP3    H231460   3.212   6.503  11.098 -0.1735 -0.7991 -0.7622
 3349TIP3   OH231461   1.293   6.482  15.317  0.2611 -0.4586  0.1185
 3349TIP3    H131462   1.285   6.570  15.354  1.4070 -1.1358  2.1460
 3349TIP3    H231463   1.205   6.444  15.328  0.0113  0.1079  0.1244
 3350TIP3   OH231464   0.186   3.447   1.832  0.4689  0.1746  0.4139
 3350TIP3    H131465   0.146   3.376   1.782  0.0751 -0.0885  1.0836
 3350TIP3    H231466   0.113   3.502   1.859  0.7678  0.8170 -0.0519
 3351TIP3   OH231467   1.063   1.991  11.364  0.1577  0.2565 -0.1210
 3351TIP3    H131468   1.096   1.917  11.313 -2.5345  0.6346 -2.7300
 3351TIP3    H231469   1.055   1.958  11.453  4.0300 -0.8267 -0.0203
 3352TIP3   OH231470   6.632   4.234   5.494 -0.2769 -0.3011 -0.3287
 3352TIP3    H131471   6.550   4.282   5.504 -0.3432 -0.6093  0.8211
 3352TIP3    H231472   6.607   4.142   5.507  0.3000 -0.3613  0.4269
 3353TIP3   OH231473   3.584   5.244   5.723  0.1237 -0.0147  0.2808
 3353TIP3    H131474   3.602   5.322   5.775 -2.2191  0.2644  0.7953
 3353TIP3    H231475   3.559   5.279   5.637  1.6538 -0.3662 -0.3371
 3354TIP3   OH231476   0.256   0.305   5.158  0.3865 -0.1653 -0.0566
 3354TIP3    H131477   0.222   0.280   5.244  1.3389  0.3243  0.4841
 3354TIP3    H231478   0.344   0.338   5.176  0.9383 -0.8514 -1.3236
 3355TIP3   OH231479   1.681   4.911  15.198 -0.4298 -0.1371  0.2035
 3355TIP3    H131480   1.687   5.005  15.178  1.1259  0.0556  1.3746
 3355TIP3    H231481   1.767   4.876  15.175 -1.4837 -1.6397 -1.7306
 3356TIP3   OH231482   4.556   4.027   2.000  0.2661 -0.1241 -0.3375
 3356TIP3    H131483   4.554   4.117   2.030 -0.1031 -0.3708  0.3917
 3356TIP3    H231484   4.471   4.015   1.957  0.0838 -0.2906  0.0669
 3357TIP3   OH231485   5.373   4.824   5.504 -0.1953  0.1243  0.5130
 3357TIP3    H131486   5.309   4.820   5.574  0.4367  2.2510  1.2856
 3357TIP3    H231487   5.417   4.739   5.506 -1.1060 -0.3352  1.7978
 3358TIP3   OH231488   3.481   0.797  14.859  0.4092  0.2301 -0.1740
 3358TIP3    H131489   3.433   0.783  14.940  0.3265  0.2946 -0.2114
 3358TIP3    H231490   3.535   0.874  14.877 -0.7579  1.2081 -0.6834
 3359TIP3   OH231491   5.215   4.394  15.997 -0.4403  0.9272  0.1870
 3359TIP3    H131492   5.305   4.426  16.008  0.0434 -0.1984 -0.2901
 3359TIP3    H231493   5.185   4.436  15.916 -0.0144  0.6076 -0.1395
 3360TIP3   OH231494   1.647   3.913   0.169  0.1108  0.3711  0.1645
 3360TIP3    H131495   1.649   3.899   0.264  0.4016 -0.2749  0.0691
 3360TIP3    H231496   1.732   3.881   0.139  0.4036  1.4668 -0.2022
 3361TIP3   OH231497   4.957   5.337   4.883 -0.5059 -0.1992  0.3771
 3361TIP3    H131498   4.948   5.331   4.978 -0.6388 -1.5508  0.2949
 3361TIP3    H231499   4.876   5.378   4.853 -0.4475  0.2664  0.8339
 3362TIP3   OH231500   6.057   1.866   2.049 -0.2103  0.3457 -0.3405
 3362TIP3    H131501   6.117   1.916   2.104 -1.2274  0.4238  0.7356
 3362TIP3    H231502   6.017   1.802   2.108 -1.6588  0.7234 -0.8599
 3363TIP3   OH231503   6.655   2.625  12.763  0.5838 -0.1019 -0.7284
 3363TIP3    H131504   6.729   2.606  12.820  1.4520  0.4451 -1.6361
 3363TIP3    H231505   6.650   2.550  12.703  0.2109 -0.2765 -0.4832
 3364TIP3   OH231506   5.561   3.617  16.952 -0.6252  0.2028  0.8424
 3364TIP3    H131507   5.474   3.586  16.927  0.8597 -4.2545  0.3517
 3364TIP3    H231508   5.559   3.620  17.047 -0.7685 -2.3197  0.9969
 3365TIP3   OH231509   4.717   3.582   3.578 -0.3080  0.0363  0.0648
 3365TIP3    H131510   4.749   3.625   3.657  1.8975 -0.1380 -0.6521
 3365TIP3    H231511   4.796   3.547   3.536 -1.2400  0.9140 -2.6701
 3366TIP3   OH231512   4.776   6.548   1.593  0.3472 -0.2179 -0.1613
 3366TIP3    H131513   4.777   6.640   1.566  1.6712  1.2043  4.0020
 3366TIP3    H231514   4.857   6.511   1.557 -0.3967  0.0079 -2.2170
 3367TIP3   OH231515   3.410   4.298  15.475 -0.2401  0.1432 -0.4668
 3367TIP3    H131516   3.502   4.283  15.498  0.1806  1.1478 -1.4166
 3367TIP3    H231517   3.412   4.374  15.417 -1.4293 -1.1585 -2.3013
 3368TIP3   OH231518   2.499   5.146   6.711  0.3359 -0.1504  0.5320
 3368TIP3    H131519   2.430   5.080   6.705  0.9722 -0.7477 -0.8319
 3368TIP3    H231520   2.560   5.123   6.641  2.5934 -0.4047  2.4548
 3369TIP3   OH231521   6.223   0.887   2.402  0.0804  0.4894 -0.3766
 3369TIP3    H131522   6.262   0.973   2.386 -0.5108  0.7202 -0.5945
 3369TIP3    H231523   6.164   0.873   2.328 -0.3933  0.2301  0.0466
 3370TIP3   OH231524   2.519   5.139  13.160 -0.1693  0.0686  0.1238
 3370TIP3    H131525   2.471   5.146  13.078 -3.6895  0.1156  1.9828
 3370TIP3    H231526   2.574   5.218  13.162  1.8075 -1.0342 -3.0538
 3371TIP3   OH231527   1.074   2.677  16.504 -0.5413 -0.4908  0.5051
 3371TIP3    H131528   1.158   2.632  16.497 -1.3631 -1.8818 -1.2199
 3371TIP3    H231529   1.068   2.704  16.595  2.7867  1.7462  0.2137
 3372TIP3   OH231530   1.839   2.735   0.815  0.0120  0.4692 -0.7507
 3372TIP3    H131531   1.745   2.752   0.814  0.2329  1.8217 -0.2895
 3372TIP3    H231532   1.871   2.771   0.732  0.5140  2.6174  0.3157
 3373TIP3   OH231533   6.767   4.223  10.459 -0.7989 -0.3898  0.0630
 3373TIP3    H131534   6.796   4.268  10.538  2.3915 -2.1020  0.0215
 3373TIP3    H231535   6.787   4.283  10.388 -1.5152  0.2113  0.3534
 3374TIP3   OH231536   0.958   3.310   4.929  0.3498  0.6241 -0.5334
 3374TIP3    H131537   0.966   3.225   4.884 -1.4610 -0.1491  0.5070
 3374TIP3    H231538   0.990   3.294   5.017 -0.5459  0.8440 -0.1547
 3375TIP3   OH231539   4.386   3.403   1.804  0.1862  0.4072  0.3270
 3375TIP3    H131540   4.473   3.433   1.779  0.5600 -1.4706 -0.8252
 3375TIP3    H231541   4.327   3.471   1.770  1.1632  1.5276  0.8197
 3376TIP3   OH231542   2.684   6.549  17.173 -0.2768  0.2014 -0.1760
 3376TIP3    H131543   2.625   6.503  17.232  0.4444 -0.7159 -0.1319
 3376TIP3    H231544   2.770   6.541  17.214 -0.0981  1.4624 -0.2603
 3377TIP3   OH231545   4.675   3.392   3.314  0.2124 -0.0656 -0.6156
 3377TIP3    H131546   4.710   3.375   3.227 -0.5074 -1.2139 -0.7088
 3377TIP3    H231547   4.751   3.392   3.371  0.6713  0.5015 -1.2134
 3378TIP3   OH231548   5.340   1.979  12.663 -0.0852 -0.3803  0.3966
 3378TIP3    H131549   5.300   1.908  12.612  1.1797  0.0608 -1.3310
 3378TIP3    H231550   5.404   1.934  12.719 -0.9830 -0.8107  1.0948
 3379TIP3   OH231551   3.074   5.653   0.289 -0.1308  0.4228  0.5399
 3379TIP3    H131552   3.037   5.737   0.264  0.0265  0.5188  0.6281
 3379TIP3    H231553   3.061   5.597   0.212 -0.6554  0.3885  0.6450
 3380TIP3   OH231554   1.941   1.426   0.638 -0.1135  0.2638  0.3013
 3380TIP3    H131555   2.012   1.367   0.663 -1.0619 -1.1308 -0.1936
 3380TIP3    H231556   1.957   1.444   0.545 -1.0784 -1.0796 -0.1526
 3381TIP3   OH231557   1.523   3.531  12.266  0.0404 -0.2229 -0.4254
 3381TIP3    H131558   1.520   3.619  12.304 -0.9621 -0.2820 -0.3250
 3381TIP3    H231559   1.431   3.511  12.247  0.0014 -2.0536  1.3942
 3382TIP3   OH231560   1.609   3.826  13.816 -0.0978  0.3447 -0.5581
 3382TIP3    H131561   1.631   3.735  13.797 -0.6752  0.5399 -2.3236
 3382TIP3    H231562   1.531   3.844  13.763 -1.7086  1.0606  1.8918
 3383TIP3   OH231563   0.043   3.229  15.179 -1.1652 -0.0911  0.7630
 3383TIP3    H131564   0.122   3.282  15.172 -2.3532  1.5764 -1.1139
 3383TIP3    H231565   0.067   3.145  15.139 -0.1562  0.1065  0.9258
 3384TIP3   OH231566   1.839   6.760   4.438 -0.0730 -0.5471  0.6905
 3384TIP3    H131567   1.873   6.843   4.405 -0.2828 -1.0673 -0.9177
 3384TIP3    H231568   1.887   6.745   4.520 -1.0748  1.8515  1.8302
 3385TIP3   OH231569   0.465   1.595  10.784 -0.5799 -0.1471  0.4362
 3385TIP3    H131570   0.552   1.614  10.819 -0.3516 -1.2401  0.4707
 3385TIP3    H231571   0.441   1.675  10.736  0.8148 -0.1747 -0.3519
 3386TIP3   OH231572   2.483   2.485  11.782 -0.3694  0.0009 -0.3097
 3386TIP3    H131573   2.389   2.467  11.792 -0.3652  0.3550  0.4912
 3386TIP3    H231574   2.507   2.444  11.699 -1.0803 -0.6999 -0.1787
 3387TIP3   OH231575   1.471   5.892  11.687 -0.6723 -0.0853 -0.0113
 3387TIP3    H131576   1.450   5.931  11.602 -0.4795 -0.1185 -0.0769
 3387TIP3    H231577   1.389   5.855  11.718 -0.5947 -0.6941 -0.5118
 3388TIP3   OH231578   0.301   2.570  16.842 -0.1281  0.6894  0.0134
 3388TIP3    H131579   0.338   2.517  16.771 -0.4871 -0.5275  0.7020
 3388TIP3    H231580   0.207   2.552  16.840 -0.0512  0.0160  1.2665
 3389TIP3   OH231581   4.140   4.946  16.005 -0.5695  0.4087 -0.0374
 3389TIP3    H131582   4.165   4.935  16.097 -1.6905  0.7285  0.3225
 3389TIP3    H231583   4.119   4.857  15.976  0.0956  0.2604 -0.0910
 3390TIP3   OH231584   5.470   4.501  12.833 -0.2132  0.1017  0.2878
 3390TIP3    H131585   5.403   4.435  12.849 -0.5516  0.2479 -0.5052
 3390TIP3    H231586   5.519   4.468  12.757 -1.1565  1.3278 -0.8972
 3391TIP3   OH231587   0.994   3.664   3.575  0.4942  0.0822  0.2306
 3391TIP3    H131588   1.033   3.599   3.634  1.0762  0.7397  0.5872
 3391TIP3    H231589   1.054   3.738   3.579  1.4417 -0.4443 -2.4542
 3392TIP3   OH231590   4.241   1.949  13.031  0.1972  0.2861  0.3162
 3392TIP3    H131591   4.232   2.041  13.003 -1.3923  0.2805  0.7426
 3392TIP3    H231592   4.242   1.953  13.127  1.5139 -0.0439  0.3309
 3393TIP3   OH231593   5.398   1.443  11.300 -0.2291 -0.0605  0.2971
 3393TIP3    H131594   5.411   1.506  11.230  0.5857 -0.6219 -0.0607
 3393TIP3    H231595   5.406   1.357  11.258  0.8034 -0.4062  1.1597
 3394TIP3   OH231596   3.078   0.791  16.689 -0.6038 -0.0699  0.2928
 3394TIP3    H131597   3.053   0.883  16.701  0.4917  0.2731  0.0128
 3394TIP3    H231598   3.110   0.763  16.774 -1.5417 -0.4011  0.5520
 3395TIP3   OH231599   3.395   4.665   1.826  0.1419 -0.1497 -0.8016
 3395TIP3    H131600   3.396   4.665   1.730  1.5119  0.3782 -0.8174
 3395TIP3    H231601   3.329   4.600   1.849 -1.0083  0.5216 -2.0894
 3396TIP3   OH231602   3.443   1.343  12.844  0.6520 -0.0736 -0.1684
 3396TIP3    H131603   3.348   1.341  12.836  0.6299  0.5523 -0.1233
 3396TIP3    H231604   3.460   1.388  12.927  0.9844 -0.3788 -0.0661
 3397TIP3   OH231605   1.001   5.033   4.341  0.4308  0.0629  0.5955
 3397TIP3    H131606   1.079   5.002   4.385  0.1661  0.9553  1.7332
 3397TIP3    H231607   0.944   4.956   4.336  1.7416 -0.8591 -1.1754
 3398TIP3   OH231608   5.561   2.664  15.449  1.0337  0.6631  0.1457
 3398TIP3    H131609   5.578   2.574  15.419  1.4737  0.6799  0.3437
 3398TIP3    H231610   5.468   2.677  15.433  1.1550  0.4920 -0.7582
 3399TIP3   OH231611   4.171   2.159  14.896 -0.0100  0.4016  0.1054
 3399TIP3    H131612   4.210   2.147  14.809 -0.6697  1.2978 -0.3396
 3399TIP3    H231613   4.202   2.245  14.924  1.3569 -0.4716  1.4062
 3400TIP3   OH231614   1.003   1.933   5.865 -0.0425 -0.4211  0.1485
 3400TIP3    H131615   0.983   1.847   5.827 -0.1486 -0.7741  0.9662
 3400TIP3    H231616   1.098   1.935   5.871 -0.0517 -0.5954  0.3711
 3401TIP3   OH231617   5.815   2.082   4.001  0.3755 -0.0394 -0.0772
 3401TIP3    H131618   5.819   2.017   4.071 -2.1694  0.9924  1.1528
 3401TIP3    H231619   5.744   2.052   3.944  1.7935 -0.3661 -1.7397
 3402TIP3   OH231620   0.749   4.095   1.440 -0.0304 -0.2556  0.4562
 3402TIP3    H131621   0.706   4.039   1.505 -0.8339  0.1832  0.3119
 3402TIP3    H231622   0.802   4.034   1.388 -2.2844 -1.2504 -0.8670
 3403TIP3   OH231623   0.063   5.354   0.005 -0.0712  0.0903  0.3128
 3403TIP3    H131624   0.082   5.266   0.038  1.1704 -0.3470 -1.4113
 3403TIP3    H231625   0.129   5.410   0.046 -1.6896  0.5422  2.4788
 3404TIP3   OH231626   1.795   2.877   5.198 -0.4559  0.5598 -0.0864
 3404TIP3    H131627   1.737   2.871   5.274 -1.2989  0.3727 -0.7260
 3404TIP3    H231628   1.880   2.846   5.230 -0.3727  1.9805  1.1821
 3405TIP3   OH231629   2.981   3.739  11.374 -0.2656 -0.5477 -0.1161
 3405TIP3    H131630   3.026   3.758  11.291 -0.6214  0.3905 -0.1125
 3405TIP3    H231631   2.898   3.786  11.367  0.3810  0.9356  1.4167
 3406TIP3   OH231632   4.965   4.852  14.315 -0.1449 -0.0804  0.3707
 3406TIP3    H131633   4.918   4.932  14.339 -0.5267  0.1332 -1.0236
 3406TIP3    H231634   4.950   4.842  14.221  4.4107  1.2400 -0.7713
 3407TIP3   OH231635   3.839   3.558   5.506  0.5576  0.1074 -0.6206
 3407TIP3    H131636   3.882   3.583   5.588  0.3079  0.4275 -0.5833
 3407TIP3    H231637   3.764   3.618   5.500  0.7155  0.2460 -1.2032
 3408TIP3   OH231638   4.744   3.006  11.591 -0.0206  0.9881  0.2091
 3408TIP3    H131639   4.726   3.004  11.684  0.4631  1.9589  0.3397
 3408TIP3    H231640   4.711   2.923  11.558 -0.5122  0.7837  1.1815
 3409TIP3   OH231641   0.097   6.330   2.854 -0.3036 -0.5928  0.5517
 3409TIP3    H131642   0.035   6.278   2.802 -1.6454  0.3872  1.1383
 3409TIP3    H231643   0.078   6.307   2.945 -0.4008  0.3548  0.7813
 3410TIP3   OH231644   4.360   3.201  15.713 -0.2069 -0.2645  0.3715
 3410TIP3    H131645   4.393   3.277  15.667  1.0778  0.0415  1.7354
 3410TIP3    H231646   4.338   3.138  15.643  0.6858  0.5577 -0.6777
 3411TIP3   OH231647   1.734   4.502  16.183 -0.4488 -0.0671  0.7695
 3411TIP3    H131648   1.699   4.424  16.140 -0.3552 -0.1263  0.8018
 3411TIP3    H231649   1.829   4.489  16.184 -0.3315  0.6110 -0.3308
 3412TIP3   OH231650   6.539   0.219  17.202 -0.0845  0.3600 -0.1791
 3412TIP3    H131651   6.632   0.233  17.218 -0.0417 -0.1431  0.0198
 3412TIP3    H231652   6.523   0.261  17.118  0.3992  0.1599 -0.3765
 3413TIP3   OH231653   4.320   1.157   2.661 -0.6089  0.0940  0.4240
 3413TIP3    H131654   4.261   1.148   2.586 -0.4041  1.0917  0.1311
 3413TIP3    H231655   4.350   1.068   2.679 -2.6464 -0.5247  0.9505
 3414TIP3   OH231656   2.911   3.900  12.636 -0.3235  0.0681  0.3342
 3414TIP3    H131657   2.937   3.860  12.552  0.3722  0.9242  0.1278
 3414TIP3    H231658   2.819   3.922  12.625 -0.4713 -0.6170  0.1169
 3415TIP3   OH231659   0.510   5.561  12.649  0.3769 -0.1226 -0.1179
 3415TIP3    H131660   0.519   5.652  12.678  1.3649  0.3093 -1.6925
 3415TIP3    H231661   0.427   5.532  12.687 -0.7958  1.9683 -0.9453
 3416TIP3   OH231662   5.140   5.081  13.525 -0.2202  0.3460 -0.1699
 3416TIP3    H131663   5.232   5.085  13.551 -0.6380 -0.1144  1.4986
 3416TIP3    H231664   5.113   5.172  13.520 -0.0382  0.4575  0.7579
 3417TIP3   OH231665   5.541   0.655  11.611  0.1038 -0.3493  0.3551
 3417TIP3    H131666   5.494   0.621  11.688 -0.8739  0.9984  0.3834
 3417TIP3    H231667   5.479   0.645  11.539  0.3659  0.0036  0.0810
 3418TIP3   OH231668   0.149   0.324  13.929  0.2577 -0.0499 -0.3929
 3418TIP3    H131669   0.084   0.290  13.991 -0.2663  1.1032 -0.2782
 3418TIP3    H231670   0.233   0.294  13.963  0.0570  1.2715  1.3959
 3419TIP3   OH231671   4.588   4.594  14.769  0.4786  0.2472 -0.3643
 3419TIP3    H131672   4.530   4.558  14.702  0.3324  1.3610 -0.8560
 3419TIP3    H231673   4.629   4.669  14.727 -0.3865  1.5975  1.0900
 3420TIP3   OH231674   5.388   5.346   0.658  0.3023  0.4060 -0.3321
 3420TIP3    H131675   5.337   5.345   0.577  2.9963  0.8488 -2.1447
 3420TIP3    H231676   5.341   5.286   0.716 -1.8714  0.2724 -2.0956
 3421TIP3   OH231677   1.957   6.601  14.705 -0.1205 -0.5540  0.3085
 3421TIP3    H131678   1.928   6.549  14.780 -0.8406  0.4146  0.7266
 3421TIP3    H231679   1.905   6.568  14.632 -1.7648  0.5925  0.8843
 3422TIP3   OH231680   4.012   1.429  14.401  0.1435  0.4025  0.3442
 3422TIP3    H131681   4.099   1.456  14.370 -0.2550  0.3384 -0.8769
 3422TIP3    H231682   4.029   1.351  14.455  0.6975 -0.6892 -1.3279
 3423TIP3   OH231683   3.286   3.338   0.655  0.2985 -0.2849  0.0168
 3423TIP3    H131684   3.314   3.254   0.692 -1.8721 -0.5428  1.2441
 3423TIP3    H231685   3.216   3.315   0.594 -1.0564  0.6525  1.1496
 3424TIP3   OH231686   5.037   5.718  13.400  0.0957 -0.3405 -0.0729
 3424TIP3    H131687   5.051   5.719  13.495  0.2732 -0.3097 -0.0994
 3424TIP3    H231688   5.086   5.794  13.368 -1.6606  0.8971  0.0492
 3425TIP3   OH231689   1.307   6.742  14.113 -0.1090 -0.3495 -0.2222
 3425TIP3    H131690   1.366   6.729  14.187  1.2796 -1.3176 -1.4429
 3425TIP3    H231691   1.275   6.654  14.091 -0.0286 -0.1655 -1.1351
 3426TIP3   OH231692   6.024   2.031   3.797  0.1556 -0.7096 -1.0331
 3426TIP3    H131693   6.109   2.074   3.799 -0.7004  1.2922 -3.1175
 3426TIP3    H231694   5.984   2.054   3.881  0.4468  1.1522 -1.3499
 3427TIP3   OH231695   6.729   1.228   3.470  0.6911 -0.0247  0.1606
 3427TIP3    H131696   6.714   1.282   3.393  1.0599  0.1239  0.1933
 3427TIP3    H231697   6.698   1.281   3.543 -0.4760 -0.5075  0.0407
 3428TIP3   OH231698   6.050   2.366  11.798  0.0332  0.4293  0.4262
 3428TIP3    H131699   5.996   2.354  11.876  0.5452 -0.2734  0.6867
 3428TIP3    H231700   5.988   2.370  11.726 -0.3422 -2.3149  0.4879
 3429TIP3   OH231701   4.507   2.524  12.011 -0.4294 -0.1310  0.3635
 3429TIP3    H131702   4.523   2.614  11.982 -0.1183 -0.3101 -0.0230
 3429TIP3    H231703   4.550   2.520  12.097  0.8942 -0.3430 -0.2775
 3430TIP3   OH231704   1.124   0.646   0.852  0.0531 -0.3768  0.0497
 3430TIP3    H131705   1.160   0.593   0.924 -0.1462  0.8633  1.0991
 3430TIP3    H231706   1.057   0.589   0.812  1.2463 -1.6684 -0.1839
 3431TIP3   OH231707   0.255   5.948  15.844  0.2390  0.0070 -0.5936
 3431TIP3    H131708   0.274   5.854  15.850 -1.4633 -0.2696  1.8206
 3431TIP3    H231709   0.331   5.991  15.884  0.6223 -0.3604 -0.9098
 3432TIP3   OH231710   6.637   0.257   3.211 -0.3584  0.1819 -0.2612
 3432TIP3    H131711   6.705   0.252   3.144 -0.6901 -1.3492 -0.5214
 3432TIP3    H231712   6.684   0.245   3.294 -0.0311  1.4401 -0.2497
 3433TIP3   OH231713   3.379   3.721   1.128 -0.1501  0.3717  0.2161
 3433TIP3    H131714   3.309   3.782   1.105  0.6415  0.2915 -2.8204
 3433TIP3    H231715   3.347   3.636   1.098  0.7119  0.1263 -0.0310
 3434TIP3   OH231716   2.073   4.662   4.524 -0.2189  0.7297  0.3839
 3434TIP3    H131717   2.103   4.578   4.490  1.8831  2.4442 -2.4810
 3434TIP3    H231718   1.978   4.651   4.535 -0.0101 -1.9722  0.1375
 3435TIP3   OH231719   6.303   2.417  10.793 -0.4480  0.4695 -0.1055
 3435TIP3    H131720   6.391   2.446  10.817 -0.6049  0.0361  1.0759
 3435TIP3    H231721   6.253   2.498  10.782 -0.1904  0.6973  0.3737
 3436TIP3   OH231722   6.254   2.352   4.377 -0.7338 -0.0247  0.3552
 3436TIP3    H131723   6.315   2.280   4.396 -0.2709  0.3908  0.4836
 3436TIP3    H231724   6.184   2.341   4.442  0.5323  1.0238  2.0001
 3437TIP3   OH231725   3.784   0.279  14.263 -0.2114  0.3346 -0.1883
 3437TIP3    H131726   3.713   0.343  14.260  1.1196  1.9679  1.1565
 3437TIP3    H231727   3.802   0.267  14.356  1.5044  0.2544 -0.4935
 3438TIP3   OH231728   6.548   4.409  15.402 -0.0455  0.0205  1.0299
 3438TIP3    H131729   6.536   4.379  15.492 -0.0856 -1.1026  0.6661
 3438TIP3    H231730   6.641   4.392  15.383 -0.1007  0.0013  0.7695
 3439TIP3   OH231731   3.097   0.090   0.967  0.2330  0.0000 -0.1513
 3439TIP3    H131732   3.050   0.088   1.051  0.2321 -0.3289 -0.1616
 3439TIP3    H231733   3.141   0.006   0.961  2.6374  1.0888  0.8789
 3440TIP3   OH231734   3.465   5.442  12.558 -0.1378  0.5543 -0.0786
 3440TIP3    H131735   3.515   5.523  12.545 -0.9538  0.9932 -0.5966
 3440TIP3    H231736   3.393   5.449  12.496  0.3766 -1.0827 -0.9223
 3441TIP3   OH231737   6.180   0.651   4.031  0.0678  0.2944  0.1205
 3441TIP3    H131738   6.182   0.609   3.945 -1.0343  1.2755 -0.3983
 3441TIP3    H231739   6.268   0.689   4.041  0.6936 -1.0588  0.0906
 3442TIP3   OH231740   5.948   3.031  17.157 -0.1126  0.2997 -0.5765
 3442TIP3    H131741   5.999   2.980  17.094  0.9348 -0.3065  0.7122
 3442TIP3    H231742   5.894   3.089  17.103  1.3113  0.3524 -2.0151
 3443TIP3   OH231743   5.633   5.524  11.274 -0.6362 -0.0424  0.1617
 3443TIP3    H131744   5.586   5.457  11.324  1.0260 -2.8466 -1.7027
 3443TIP3    H231745   5.586   5.530  11.191 -0.8281  1.2354  0.3482
 3444TIP3   OH231746   0.968   1.867   6.362  0.2601 -0.1966 -0.6176
 3444TIP3    H131747   0.993   1.924   6.289 -0.1438 -0.8336 -1.2546
 3444TIP3    H231748   0.900   1.917   6.408 -0.7147 -0.5124 -1.6772
 3445TIP3   OH231749   2.705   4.992   3.593  0.5654  0.0294  0.6084
 3445TIP3    H131750   2.629   4.965   3.645 -0.0616  1.9931  0.7576
 3445TIP3    H231751   2.669   5.042   3.521  1.4701 -2.2349 -1.5659
 3446TIP3   OH231752   4.302   1.453   4.069  0.1079 -0.1726  0.0066
 3446TIP3    H131753   4.363   1.502   4.124  0.0796 -0.3737  0.2180
 3446TIP3    H231754   4.352   1.432   3.990 -0.0554  0.6916 -0.3403
 3447TIP3   OH231755   5.230   0.984  12.048  0.4177  0.3652  0.3289
 3447TIP3    H131756   5.324   1.000  12.038  0.4397  0.2508  0.3597
 3447TIP3    H231757   5.212   1.003  12.140  0.8485 -1.8767  0.9208
 3448TIP3   OH231758   1.086   6.668  13.116  0.0121 -0.4735  0.0571
 3448TIP3    H131759   1.061   6.722  13.041 -0.5556 -1.0465 -0.1687
 3448TIP3    H231760   1.148   6.604  13.079  1.2413  0.4397  0.4593
 3449TIP3   OH231761   1.514   6.755  14.300 -0.2411 -0.3460  0.4592
 3449TIP3    H131762   1.463   6.817  14.352 -0.3769  1.9151 -2.1575
 3449TIP3    H231763   1.596   6.800  14.282 -0.3568 -0.8652 -1.5788
 3450TIP3   OH231764   4.773   6.328  13.187  0.6339 -0.1261 -0.2103
 3450TIP3    H131765   4.775   6.388  13.113  0.6515 -0.3467 -0.3896
 3450TIP3    H231766   4.681   6.321  13.211  0.7508  1.0366  0.6847
 3451TIP3   OH231767   5.959   5.459   1.624 -0.3748  0.1795 -0.2748
 3451TIP3    H131768   5.867   5.435   1.640 -0.8138  1.5819 -0.5438
 3451TIP3    H231769   6.009   5.409   1.689 -1.0343 -2.6322 -1.7580
 3452TIP3   OH231770   4.649   6.196  15.953 -0.2553  0.1228  0.5970
 3452TIP3    H131771   4.728   6.171  15.905 -0.3970 -0.3135  0.5941
 3452TIP3    H231772   4.612   6.114  15.983 -0.8392  0.3098  0.3977
 3453TIP3   OH231773   4.206   1.229  16.285  0.3159  0.1663 -0.2692
 3453TIP3    H131774   4.189   1.141  16.250 -1.4746 -0.0031  0.8770
 3453TIP3    H231775   4.221   1.283  16.208 -2.8770 -0.3178 -1.3696
 3454TIP3   OH231776   4.523   0.348   0.634 -0.3724 -0.1557 -0.1141
 3454TIP3    H131777   4.592   0.398   0.592 -1.3944  0.3890 -1.1981
 3454TIP3    H231778   4.510   0.390   0.719  0.7402 -0.3850  0.1755
 3455TIP3   OH231779   2.079   2.307  13.036  0.1421  0.3623 -0.2533
 3455TIP3    H131780   2.166   2.327  13.001  0.3300 -1.0627 -0.6437
 3455TIP3    H231781   2.019   2.330  12.964  0.2058  0.9835 -0.1203
 3456TIP3   OH231782   4.249   3.598   3.551  0.6280  0.1850  0.1504
 3456TIP3    H131783   4.191   3.657   3.600 -1.8860 -2.1641  0.2685
 3456TIP3    H231784   4.318   3.575   3.613 -0.6271 -0.1027  1.5003
 3457TIP3   OH231785   0.045   0.437  16.854  0.2279 -0.4991  0.0837
 3457TIP3    H131786   0.052   0.429  16.759  0.1604  0.6012 -0.0341
 3457TIP3    H231787   0.009   0.354  16.884 -0.8195 -0.4432 -0.9795
 3458TIP3   OH231788   5.922   3.594  10.811  0.0409  0.0570  0.5986
 3458TIP3    H131789   5.902   3.548  10.892  0.2254 -0.5900  0.2809
 3458TIP3    H231790   5.837   3.612  10.771 -0.0113 -1.9979 -0.3652
 3459TIP3   OH231791   1.538   0.838   2.362 -0.6619 -0.2579 -0.1278
 3459TIP3    H131792   1.511   0.929   2.362  1.9748  0.6162 -1.2902
 3459TIP3    H231793   1.606   0.832   2.429  1.0666 -0.6404 -1.7993
 3460TIP3   OH231794   0.357   0.739  15.714 -0.4896  0.0601 -0.1841
 3460TIP3    H131795   0.387   0.797  15.785  0.5753  0.6869 -1.1087
 3460TIP3    H231796   0.360   0.794  15.636 -0.4173 -0.9767 -0.9183
 3461TIP3   OH231797   1.737   2.952   6.525  0.2377 -1.1564 -0.2733
 3461TIP3    H131798   1.664   2.936   6.465  1.1720  0.3153 -1.9035
 3461TIP3    H231799   1.789   2.871   6.522 -0.5641 -1.6840 -0.1905
 3462TIP3   OH231800   0.488   6.605  11.210 -0.0562 -0.3483  0.1941
 3462TIP3    H131801   0.506   6.687  11.256 -0.3402  0.4540 -1.0658
 3462TIP3    H231802   0.471   6.632  11.120 -0.9861 -1.7254 -0.0663
 3463TIP3   OH231803   4.895   3.297   1.704 -0.0117  0.2158  0.0541
 3463TIP3    H131804   4.905   3.259   1.791  1.1369 -1.3399 -0.7059
 3463TIP3    H231805   4.930   3.230   1.645  1.9815  2.3796 -1.3881
 3464TIP3   OH231806   4.504   4.519  11.528 -0.6961  0.0161  0.4088
 3464TIP3    H131807   4.508   4.480  11.615 -0.7999 -0.8901  0.0246
 3464TIP3    H231808   4.411   4.532  11.511 -0.6918 -0.0304  0.3453
 3465TIP3   OH231809   4.234   5.248   3.641  0.2030  0.3895 -0.6402
 3465TIP3    H131810   4.158   5.227   3.588  0.3663  4.0107 -2.6402
 3465TIP3    H231811   4.221   5.340   3.666  2.2533  0.0922  2.0025
 3466TIP3   OH231812   6.631   3.856   4.669 -1.2001 -0.3517  0.1894
 3466TIP3    H131813   6.585   3.870   4.752 -1.3494  1.4237 -0.1579
 3466TIP3    H231814   6.568   3.808   4.615 -1.8382  0.1771  0.4459
 3467TIP3   OH231815   0.154   3.321   5.936  0.1945 -0.3202 -0.5381
 3467TIP3    H131816   0.085   3.384   5.956 -0.9573 -1.1719 -1.6473
 3467TIP3    H231817   0.173   3.278   6.019 -1.4284 -0.8420 -0.4021
 3468TIP3   OH231818   2.061   6.567   3.875 -0.1380 -0.1816 -0.1941
 3468TIP3    H131819   2.035   6.600   3.961 -0.1271 -0.7264  0.0215
 3468TIP3    H231820   1.980   6.533   3.837 -0.2707  0.6322 -0.6697
 3469TIP3   OH231821   1.437   5.947  15.118  0.3641  0.7128 -0.0008
 3469TIP3    H131822   1.394   5.927  15.035  1.5600  1.5641 -0.8717
 3469TIP3    H231823   1.486   5.868  15.140  0.4362  0.6574 -0.3611
 3470TIP3   OH231824   2.028   5.517  13.324  0.0950  0.0708 -0.2748
 3470TIP3    H131825   1.990   5.507  13.237 -0.4727 -1.9085  0.1453
 3470TIP3    H231826   1.953   5.521  13.383  0.4579  1.8354  0.1277
 3471TIP3   OH231827   2.156   6.023  12.844  0.3909 -0.1669 -0.6196
 3471TIP3    H131828   2.108   5.960  12.899 -0.5411  0.4112 -0.7510
 3471TIP3    H231829   2.127   6.108  12.875  2.2883  0.2520  0.1357
 3472TIP3   OH231830   0.936   1.160   2.639 -0.5502  0.2275 -0.3389
 3472TIP3    H131831   0.860   1.218   2.644 -0.5571  0.1340  3.5368
 3472TIP3    H231832   0.989   1.183   2.716  2.0345 -1.4966 -1.4714
 3473TIP3   OH231833   5.119   1.064   3.999  0.5172 -0.1110  0.1540
 3473TIP3    H131834   5.149   0.976   3.977  2.1356  0.2373  0.8073
 3473TIP3    H231835   5.110   1.064   4.094 -1.1467 -0.0355  0.0283
 3474TIP3   OH231836   4.775   6.165   1.031  0.2991 -0.2151  0.5054
 3474TIP3    H131837   4.852   6.114   1.005  0.3510 -0.0217  0.2753
 3474TIP3    H231838   4.793   6.190   1.121  0.0268 -1.0585  0.8051
 3475TIP3   OH231839   4.368   4.482  15.521 -0.5953 -0.5934 -0.0561
 3475TIP3    H131840   4.396   4.392  15.539 -0.7780 -0.3378  1.7050
 3475TIP3    H231841   4.299   4.499  15.585 -1.5056  0.3765 -1.2285
 3476TIP3   OH231842   1.992   1.707  14.840 -0.3735 -0.1950 -0.3643
 3476TIP3    H131843   1.897   1.696  14.838 -0.6406  1.5181  0.9664
 3476TIP3    H231844   2.009   1.773  14.773 -0.0138 -0.9760 -1.0626
 3477TIP3   OH231845   1.065   3.841  11.541 -0.4269  0.2305  0.0958
 3477TIP3    H131846   1.057   3.806  11.452 -3.4405  3.3854 -1.0978
 3477TIP3    H231847   1.144   3.896  11.538 -0.1439 -0.1914 -0.4081
 3478TIP3   OH231848   4.560   5.026  14.812 -0.1951 -0.6152 -0.0508
 3478TIP3    H131849   4.464   5.028  14.815 -0.2975 -0.8272 -1.9123
 3478TIP3    H231850   4.587   5.089  14.878 -1.6318 -0.2580  0.2359
 3479TIP3   OH231851   0.614   4.739   1.428  0.0503  0.1748 -0.1240
 3479TIP3    H131852   0.578   4.815   1.474  3.1564  0.6339  1.8052
 3479TIP3    H231853   0.658   4.776   1.352  0.6468  0.2119  0.2327
 3480TIP3   OH231854   0.635   4.913  17.030 -0.8326  0.4804  0.3380
 3480TIP3    H131855   0.574   4.862  17.084 -0.6867  0.1087  0.1599
 3480TIP3    H231856   0.694   4.847  16.993  0.6385  0.9735  1.7034
 3481TIP3   OH231857   3.996   0.808  14.276 -0.1138  0.4694 -0.0794
 3481TIP3    H131858   4.017   0.839  14.364  1.1360 -1.3092  0.3138
 3481TIP3    H231859   3.904   0.830  14.265  0.0916  2.1206  1.0343
 3482TIP3   OH231860   2.837   0.911  16.096 -0.4245  0.2055 -0.6421
 3482TIP3    H131861   2.875   0.980  16.150 -1.5305 -0.7847  1.5006
 3482TIP3    H231862   2.912   0.872  16.051  0.6868  0.4243  0.9593
 3483TIP3   OH231863   1.020   4.261   1.730 -0.0666 -0.1406 -0.2330
 3483TIP3    H131864   0.979   4.176   1.742 -0.3629  0.2031  1.4754
 3483TIP3    H231865   1.113   4.241   1.716  0.0529 -0.7151  1.2674
 3484TIP3   OH231866   5.672   2.952   0.045  0.3875  0.1233  0.4534
 3484TIP3    H131867   5.597   2.900   0.076 -1.1502  1.6392 -0.5358
 3484TIP3    H231868   5.721   2.891  -0.010 -0.0440 -0.9381  1.2039
 3485TIP3   OH231869   3.807   1.540  16.671  0.9132  0.2519 -0.2076
 3485TIP3    H131870   3.793   1.521  16.579  0.2357  0.3093 -0.1232
 3485TIP3    H231871   3.774   1.463  16.717 -0.6202  1.0356  0.0666
 3486TIP3   OH231872   3.848   3.775  12.627 -0.4304 -0.2973 -0.1113
 3486TIP3    H131873   3.922   3.830  12.601  0.3780 -1.0981  0.4059
 3486TIP3    H231874   3.882   3.685  12.620 -1.5673 -0.7141 -0.5027
 3487TIP3   OH231875   0.245   0.145  10.761  0.5267 -0.3718 -0.3941
 3487TIP3    H131876   0.233   0.051  10.774  1.1814 -0.2545  1.2088
 3487TIP3    H231877   0.176   0.169  10.698 -1.1448 -1.5190  0.8969
 3488TIP3   OH231878   2.007   3.513   3.898 -0.2327  0.3365 -0.9373
 3488TIP3    H131879   2.040   3.592   3.941 -0.0354  0.1700 -0.7814
 3488TIP3    H231880   1.963   3.464   3.968 -3.5852  1.9691 -1.6495
 3489TIP3   OH231881   1.291   5.745   4.668  0.0400  0.1493  0.1361
 3489TIP3    H131882   1.341   5.814   4.623 -1.2609  0.6426 -0.6367
 3489TIP3    H231883   1.265   5.785   4.751 -1.8338  1.1600 -0.8559
 3490TIP3   OH231884   3.511   0.513   5.116 -0.5570  0.3743 -0.6624
 3490TIP3    H131885   3.604   0.516   5.093 -0.2804 -2.6503 -0.4112
 3490TIP3    H231886   3.467   0.485   5.035 -1.1494  1.0802 -0.5885
 3491TIP3   OH231887   2.456   1.833   2.069 -0.4383 -0.3555  0.4468
 3491TIP3    H131888   2.487   1.750   2.107 -0.5048 -0.9207 -0.6880
 3491TIP3    H231889   2.372   1.811   2.029 -0.8256  0.4530  0.7903
 3492TIP3   OH231890   1.178   5.547  11.416 -0.0526  0.1635 -0.4228
 3492TIP3    H131891   1.150   5.460  11.385  2.1176 -0.6414 -0.2895
 3492TIP3    H231892   1.154   5.606  11.345  0.3337 -0.8840 -1.4541
 3493TIP3   OH231893   2.247   0.086   1.580  0.7509  0.6106  0.4044
 3493TIP3    H131894   2.194   0.008   1.595  0.9746  0.4134  0.1654
 3493TIP3    H231895   2.207   0.153   1.636  0.6559  0.2856  0.7286
 3494TIP3   OH231896   4.759   6.196  16.636 -0.5392 -0.1466  0.4647
 3494TIP3    H131897   4.802   6.249  16.703 -0.9700  0.2839  0.4089
 3494TIP3    H231898   4.812   6.117  16.630 -0.9834 -0.5744  1.9184
 3495TIP3   OH231899   3.465   6.259  16.840 -0.5492  0.0890 -0.7676
 3495TIP3    H131900   3.514   6.304  16.770  1.0741 -1.4315 -0.6866
 3495TIP3    H231901   3.381   6.238  16.800  0.0076  0.0607 -1.9669
 3496TIP3   OH231902   1.946   2.096   3.034 -0.5874 -0.3494 -0.0382
 3496TIP3    H131903   2.011   2.148   3.082 -0.8742  0.2067 -0.2446
 3496TIP3    H231904   1.865   2.109   3.083 -0.8828  0.2266 -0.6660
 3497TIP3   OH231905   5.937   1.082   5.711 -0.1498  0.0755 -0.3896
 3497TIP3    H131906   5.970   1.008   5.660 -2.6534 -0.3530 -1.5251
 3497TIP3    H231907   5.920   1.150   5.646 -1.1523  0.3788  0.1760
 3498TIP3   OH231908   3.910   5.189  12.251 -0.1778  0.7635  0.5141
 3498TIP3    H131909   3.845   5.248  12.289  0.1750  1.5948 -0.1290
 3498TIP3    H231910   3.941   5.235  12.173  1.8701  0.8268  1.3077
 3499TIP3   OH231911   3.796   5.219   1.781 -0.5336 -0.1104 -0.2689
 3499TIP3    H131912   3.704   5.205   1.758 -0.4618  0.2524 -0.7989
 3499TIP3    H231913   3.802   5.194   1.873 -1.1004 -0.4111 -0.3098
 3500TIP3   OH231914   0.780   2.535   3.776 -0.1812 -0.5346  0.3319
 3500TIP3    H131915   0.754   2.467   3.714 -0.5155 -0.8742  0.8317
 3500TIP3    H231916   0.844   2.588   3.729 -0.5989 -0.6482 -0.3794
 3501TIP3   OH231917   6.352   3.729  15.765 -0.5075  0.7427 -0.4368
 3501TIP3    H131918   6.332   3.823  15.761  0.7256  1.2054  2.1408
 3501TIP3    H231919   6.448   3.726  15.773 -0.5809 -0.6962  0.0777
 3502TIP3   OH231920   5.276   4.227  15.587  0.0307 -0.0175 -0.2353
 3502TIP3    H131921   5.303   4.304  15.536  2.1478 -1.4754 -1.5118
 3502TIP3    H231922   5.200   4.193  15.540  0.1511  0.3386 -0.7007
 3503TIP3   OH231923   3.095   2.222   4.185 -0.0730 -0.1667 -0.0887
 3503TIP3    H131924   3.038   2.148   4.163 -1.1465  0.7743 -0.5862
 3503TIP3    H231925   3.135   2.197   4.268 -0.3440 -1.3423 -0.2924
 3504TIP3   OH231926   3.666   1.266  15.866  0.5258  0.2041 -0.7735
 3504TIP3    H131927   3.612   1.246  15.789 -0.0902  1.0255 -0.5602
 3504TIP3    H231928   3.605   1.299  15.931  1.1805  0.4396 -0.2622
 3505TIP3   OH231929   4.433   1.469   1.805  0.3966  0.1549  0.9009
 3505TIP3    H131930   4.472   1.521   1.875  2.2096 -0.5467  0.4709
 3505TIP3    H231931   4.505   1.416   1.771 -0.2249  0.9330 -1.9287
 3506TIP3   OH231932   4.441   0.477   3.878  0.0215  0.5919 -0.0128
 3506TIP3    H131933   4.371   0.542   3.866  1.6400  2.3630 -0.4834
 3506TIP3    H231934   4.458   0.444   3.790 -0.7788 -0.4717  0.2232
 3507TIP3   OH231935   6.284   3.169   3.179 -0.0227 -0.4074 -0.3886
 3507TIP3    H131936   6.248   3.088   3.143  0.0102 -0.1172 -1.0828
 3507TIP3    H231937   6.366   3.182   3.131 -0.2812  0.3057 -0.6423
 3508TIP3   OH231938   0.433   3.756  16.271  0.1657 -0.2827 -0.4975
 3508TIP3    H131939   0.458   3.667  16.247  0.4345 -0.1033 -0.8997
 3508TIP3    H231940   0.517   3.802  16.284  0.0313 -0.0633 -0.3934
 3509TIP3   OH231941   2.461   6.392   5.384  0.3470 -0.0544  0.3508
 3509TIP3    H131942   2.486   6.425   5.298 -0.2996 -1.9933 -0.6341
 3509TIP3    H231943   2.434   6.471   5.433  1.9337  1.2308 -0.7494
 3510TIP3   OH231944   0.051   6.319   0.682  0.0224  0.4207 -0.2741
 3510TIP3    H131945   0.095   6.386   0.630  0.8701  0.1120  0.0322
 3510TIP3    H231946   0.024   6.253   0.618  1.1831 -0.0267 -0.3161
 3511TIP3   OH231947   1.838   6.343   5.481  0.5019 -0.1199 -0.0604
 3511TIP3    H131948   1.774   6.343   5.410  0.6530  2.0461 -0.2566
 3511TIP3    H231949   1.841   6.434   5.510  0.7209 -0.8675  2.4973
 3512TIP3   OH231950   3.124   4.260  12.256  0.1400 -0.5990 -0.4430
 3512TIP3    H131951   3.152   4.230  12.343  1.2586  2.4520  0.3905
 3512TIP3    H231952   3.031   4.280  12.266  0.3521  0.1136  0.2061
 3513TIP3   OH231953   0.042   6.130   4.215  0.2671  0.2427 -0.5203
 3513TIP3    H131954   0.070   6.220   4.230 -2.0183  0.8585  0.5437
 3513TIP3    H231955   0.082   6.080   4.286  0.3538  0.6822 -0.2570
 3514TIP3   OH231956   1.842   4.528  14.732 -0.1576 -0.1470  0.0349
 3514TIP3    H131957   1.768   4.576  14.768 -0.4801  1.5623 -2.6296
 3514TIP3    H231958   1.803   4.466  14.672  0.5011 -0.3798 -0.1590
 3515TIP3   OH231959   6.587   6.260   0.569  0.0911 -1.1839 -0.1415
 3515TIP3    H131960   6.636   6.192   0.523 -2.0435 -2.4905 -0.6136
 3515TIP3    H231961   6.517   6.213   0.615  1.1180  0.2608  3.1552
 3516TIP3   OH231962   3.743   3.957   0.878 -0.7572 -0.3759 -0.1058
 3516TIP3    H131963   3.813   3.911   0.833  0.1909  2.4678 -1.8434
 3516TIP3    H231964   3.782   3.987   0.960 -0.6118 -0.5485 -0.1124
 3517TIP3   OH231965   4.847   3.371   1.361  0.0007 -0.2979 -0.0955
 3517TIP3    H131966   4.923   3.423   1.334  0.9803 -0.8737  1.4463
 3517TIP3    H231967   4.882   3.285   1.383 -1.0269 -0.4712  1.0033
 3518TIP3   OH231968   6.303   6.419   3.779 -0.2794  0.1013 -0.0694
 3518TIP3    H131969   6.223   6.433   3.728 -1.8689  1.9521  2.6534
 3518TIP3    H231970   6.335   6.507   3.798  1.1311 -0.5711  0.8256
 3519TIP3   OH231971   3.422   0.730  13.236 -0.0322 -0.3955  0.4653
 3519TIP3    H131972   3.512   0.763  13.240 -0.3744  0.6012  0.0131
 3519TIP3    H231973   3.384   0.753  13.321  0.4614 -1.8119  1.1004
 3520TIP3   OH231974   0.402   5.201   0.865 -0.0338  0.3614  0.7633
 3520TIP3    H131975   0.343   5.221   0.793 -0.6159 -0.1936  1.0810
 3520TIP3    H231976   0.405   5.282   0.917  1.1115  1.0862 -0.3509
 3521TIP3   OH231977   5.080   1.378   0.472  0.1849 -0.6560  0.2348
 3521TIP3    H131978   5.064   1.348   0.382 -1.4160 -0.0999  0.3101
 3521TIP3    H231979   5.163   1.337   0.496  0.7862 -0.6032 -1.5888
 3522TIP3   OH231980   2.285   1.406  12.820 -0.3035  0.0500  0.7192
 3522TIP3    H131981   2.362   1.353  12.795  0.2204  0.4043  1.5456
 3522TIP3    H231982   2.267   1.381  12.911 -0.4427  0.8231  0.9126
 3523TIP3   OH231983   3.114   4.646  14.321  0.0678  0.2285 -0.4002
 3523TIP3    H131984   3.206   4.673  14.315  0.4659 -0.8213  0.6492
 3523TIP3    H231985   3.087   4.674  14.408 -0.5568  0.3592 -0.6354
 3524TIP3   OH231986   2.058   1.027  13.900  0.2091 -0.2237 -0.0888
 3524TIP3    H131987   2.046   0.940  13.864  0.0689 -0.1176 -0.2999
 3524TIP3    H231988   1.983   1.077  13.869  0.2605 -0.0419  0.0757
 3525TIP3   OH231989   2.711   2.885   4.885 -0.0508  0.2372  0.3230
 3525TIP3    H131990   2.666   2.969   4.887 -0.0392  0.2721 -0.4746
 3525TIP3    H231991   2.641   2.820   4.893 -0.0080  0.3210  1.5086
 3526TIP3   OH231992   5.544   4.714  12.983 -0.2606  0.2825 -0.1495
 3526TIP3    H131993   5.530   4.636  12.928 -0.3385 -0.4833  0.9222
 3526TIP3    H231994   5.470   4.771  12.963 -2.1032 -1.3869  1.4669
 3527TIP3   OH231995   0.887   4.391  15.674 -0.3602  0.3421 -0.1680
 3527TIP3    H131996   0.817   4.391  15.609  1.0036  1.3756 -1.7144
 3527TIP3    H231997   0.906   4.299  15.690 -1.7795  0.0604 -0.0121
 3528TIP3   OH231998   1.108   2.804  12.239  0.2428  0.4188  0.8261
 3528TIP3    H131999   1.125   2.859  12.163 -2.3264  0.1009 -0.0860
 3528TIP3    H232000   1.175   2.736  12.235 -1.2153 -1.0782 -2.7312
 3529TIP3   OH232001   6.158   6.615   2.139  0.0247  0.3824 -0.0562
 3529TIP3    H132002   6.244   6.574   2.130  0.7839  2.2158 -1.9166
 3529TIP3    H232003   6.137   6.646   2.051  0.3486  5.4156  1.3683
 3530TIP3   OH232004   0.075   4.783   1.744 -0.0705  0.0623  0.2428
 3530TIP3    H132005   0.112   4.802   1.830  1.2012  1.1209 -0.5030
 3530TIP3    H232006   0.151   4.778   1.686 -0.9991  1.0143 -1.1158
 3531TIP3   OH232007   0.887   1.259   5.165  0.2636 -0.3306 -0.2456
 3531TIP3    H132008   0.953   1.192   5.179  1.0270  0.7327  1.5508
 3531TIP3    H232009   0.932   1.342   5.184 -1.0891  0.5734 -0.8131
 3532TIP3   OH232010   2.883   1.871  15.224 -0.4392 -0.5043  0.2219
 3532TIP3    H132011   2.945   1.942  15.238  0.6963 -1.3252 -0.4369
 3532TIP3    H232012   2.875   1.828  15.310 -0.9817  0.2786  0.5738
 3533TIP3   OH232013   3.540   2.561  12.761  0.4494  0.2087 -0.1845
 3533TIP3    H132014   3.608   2.577  12.827  3.2693 -0.9770 -2.5776
 3533TIP3    H232015   3.562   2.621  12.689 -0.4573 -0.8767 -1.4128
 3534TIP3   OH232016   4.940   3.819   0.162 -0.3352 -0.1906 -0.2440
 3534TIP3    H132017   4.904   3.889   0.107 -0.1054 -1.2102 -1.7609
 3534TIP3    H232018   4.866   3.789   0.215 -0.6053  0.7140 -0.0968
 3535TIP3   OH232019   5.136   6.278   5.021  1.3288 -0.5967 -0.7778
 3535TIP3    H132020   5.213   6.239   5.062  0.8885 -1.8763 -1.1413
 3535TIP3    H232021   5.159   6.285   4.929  1.0414 -0.8944 -0.8708
 3536TIP3   OH232022   4.502   2.359   1.659 -0.2270 -0.5773 -0.1530
 3536TIP3    H132023   4.439   2.313   1.604  0.2506 -1.2216 -0.1863
 3536TIP3    H232024   4.532   2.292   1.721 -0.0687 -0.1074  0.2856
 3537TIP3   OH232025   3.911   2.073   6.209  0.0532 -0.1477 -0.0078
 3537TIP3    H132026   3.861   2.152   6.230  0.8533  0.4526 -0.3218
 3537TIP3    H232027   4.001   2.104   6.197  0.1853 -0.9447 -1.1938
 3538TIP3   OH232028   1.049   5.995   5.221  0.4035 -0.2879  0.0599
 3538TIP3    H132029   0.986   6.066   5.209  1.0529  0.2041 -0.5309
 3538TIP3    H232030   1.005   5.918   5.187 -0.0702 -0.0455  0.1143
 3539TIP3   OH232031   6.116   3.281  16.182  0.1258 -0.1709  0.0868
 3539TIP3    H132032   6.044   3.235  16.226 -1.1251  0.0776 -1.5730
 3539TIP3    H232033   6.099   3.267  16.088  0.7601  2.0961 -0.4221
 3540TIP3   OH232034   4.983   4.902   0.657  0.3576  0.1025  0.5663
 3540TIP3    H132035   4.905   4.935   0.702  0.8186  0.0371  1.4421
 3540TIP3    H232036   5.056   4.929   0.713  0.8698 -0.9199  0.4211
 3541TIP3   OH232037   4.128   1.448  16.538 -0.5136 -1.3819  0.0578
 3541TIP3    H132038   4.120   1.474  16.630  2.7792  0.8824 -0.0939
 3541TIP3    H232039   4.218   1.472  16.515 -1.5724 -0.5953 -4.1313
 3542TIP3   OH232040   4.502   5.667  15.285 -0.5057 -0.5021  0.1635
 3542TIP3    H132041   4.428   5.681  15.226 -1.3421  1.4224  1.5420
 3542TIP3    H232042   4.541   5.754  15.296  0.7045 -1.1157  1.0644
 3543TIP3   OH232043   0.206   6.528  12.491  0.1360  0.3515 -0.2537
 3543TIP3    H132044   0.171   6.445  12.461  1.3587 -0.0548 -0.6359
 3543TIP3    H232045   0.155   6.550  12.569 -1.2668  0.0588 -1.0685
 3544TIP3   OH232046   6.454   1.749   6.279  0.4190 -0.1528 -0.2570
 3544TIP3    H132047   6.494   1.835   6.272 -0.2541  0.0676 -1.8349
 3544TIP3    H232048   6.393   1.744   6.205  0.3665 -1.9430 -0.1526
 3545TIP3   OH232049   1.860   5.958   4.964  0.7460  0.2369 -0.0934
 3545TIP3    H132050   1.885   5.940   4.873  1.6319 -0.1694  0.2175
 3545TIP3    H232051   1.789   5.897   4.981  0.9512 -0.0806 -0.3473
 3546TIP3   OH232052   3.859   1.880  12.768  0.0366  0.3274  0.0120
 3546TIP3    H132053   3.884   1.903  12.857  0.7971  1.6326 -0.5103
 3546TIP3    H232054   3.941   1.858  12.725 -0.4187 -1.1980 -0.1587
 3547TIP3   OH232055   4.910   4.643   3.200 -0.2646 -0.2067  0.4007
 3547TIP3    H132056   4.960   4.570   3.238 -2.5282 -1.9643  0.1585
 3547TIP3    H232057   4.956   4.663   3.118  0.4884 -1.2471  0.5447
 3548TIP3   OH232058   5.387   4.791  16.734 -0.0365 -0.1138 -0.4733
 3548TIP3    H132059   5.308   4.759  16.777 -0.3278  0.7581 -0.3367
 3548TIP3    H232060   5.355   4.848  16.664  0.4629  0.4353 -0.2665
 3549TIP3   OH232061   5.243   4.251  12.546 -0.2520 -0.4928  0.2331
 3549TIP3    H132062   5.302   4.249  12.620  1.0386 -1.3076 -0.7760
 3549TIP3    H232063   5.230   4.159  12.522  2.1695 -0.2323 -2.6445
 3550TIP3   OH232064   5.296   0.240   0.933 -0.0243  0.3327  0.2779
 3550TIP3    H132065   5.211   0.238   0.888  0.5040  1.1891 -0.7994
 3550TIP3    H232066   5.331   0.152   0.920  0.0442  0.5122 -0.8773
 3551TIP3   OH232067   0.690   6.584  11.717 -0.6403  0.4937 -0.6802
 3551TIP3    H132068   0.737   6.592  11.635  0.7880  0.8904  0.1342
 3551TIP3    H232069   0.616   6.644  11.709 -0.1127  1.0608 -1.4060
 3552TIP3   OH232070   0.377   2.116  13.869  0.0409  0.4126 -0.0444
 3552TIP3    H132071   0.389   2.205  13.902 -0.7153  0.8514 -0.9157
 3552TIP3    H232072   0.465   2.078  13.871  0.6080  1.6256 -0.8918
 3553TIP3   OH232073   0.581   0.999  13.675 -0.0435 -0.2294  0.5540
 3553TIP3    H132074   0.658   1.034  13.721  0.6461 -0.8948 -0.0743
 3553TIP3    H232075   0.508   1.019  13.733  0.8492 -1.3910  2.1770
 3554TIP3   OH232076   2.678   4.383   5.270 -0.1636  0.1828  0.2058
 3554TIP3    H132077   2.596   4.413   5.310  0.2274  2.1433 -0.3843
 3554TIP3    H232078   2.664   4.289   5.256 -1.3191 -0.0513  2.4470
 3555TIP3   OH232079   0.494   3.493  13.691  0.0054 -0.2738 -0.6291
 3555TIP3    H132080   0.490   3.432  13.617 -0.0247  0.4151 -1.1959
 3555TIP3    H232081   0.410   3.538  13.690  0.2567  0.1992 -0.5702
 3556TIP3   OH232082   2.117   2.813  14.653  0.2461  0.4008 -0.1620
 3556TIP3    H132083   2.081   2.888  14.701 -1.8010 -0.5555 -0.0973
 3556TIP3    H232084   2.181   2.775  14.713 -0.7118  0.4954  0.9528
 3557TIP3   OH232085   5.372   4.215   5.526  0.7987 -0.4776  0.2482
 3557TIP3    H132086   5.465   4.206   5.506  0.5730  0.0021 -1.0885
 3557TIP3    H232087   5.349   4.131   5.567  1.9010 -0.4330  1.0105
 3558TIP3   OH232088   3.633   1.845  13.065  0.2829 -0.4911  0.3817
 3558TIP3    H132089   3.652   1.903  13.139  1.3709  0.5661 -0.6933
 3558TIP3    H232090   3.538   1.832  13.069  0.3202 -0.4218  1.9326
 3559TIP3   OH232091   1.278   1.494   1.806  0.1101 -0.4418  0.5516
 3559TIP3    H132092   1.241   1.405   1.803 -1.6321  0.1825  1.8279
 3559TIP3    H232093   1.201   1.551   1.805  1.2165  1.0895 -0.5792
 3560TIP3   OH232094   6.492   1.725  10.544 -0.3480 -0.0897  0.3201
 3560TIP3    H132095   6.555   1.663  10.506  0.1694  0.7605 -0.2636
 3560TIP3    H232096   6.437   1.750  10.470 -0.1453  0.6146  0.3987
 3561TIP3   OH232097   1.900   5.473  11.891 -0.1420 -0.1280  0.2029
 3561TIP3    H132098   1.897   5.435  11.979 -1.0176 -3.3700 -1.0840
 3561TIP3    H232099   1.819   5.444  11.850 -0.4616  2.5818 -1.2623
 3562TIP3   OH232100   6.427   1.399   4.383 -0.1450  0.1858 -0.1892
 3562TIP3    H132101   6.513   1.435   4.401  0.6975 -1.1223 -1.2979
 3562TIP3    H232102   6.370   1.475   4.371  1.2084  1.1203 -0.9620
 3563TIP3   OH232103   2.969   5.757  11.735 -0.0503  0.0219  0.5682
 3563TIP3    H132104   3.035   5.696  11.769 -1.9556 -3.2869 -1.1786
 3563TIP3    H232105   3.015   5.805  11.666  1.9296  1.9615  2.9956
 3564TIP3   OH232106   3.577   2.139  14.102  0.1579 -0.3366  0.3818
 3564TIP3    H132107   3.655   2.183  14.134  0.8409 -2.1278  1.3590
 3564TIP3    H232108   3.544   2.091  14.178 -1.8502  0.2873 -0.0405
 3565TIP3   OH232109   5.679   1.529  11.807 -0.1488  0.2005  0.3750
 3565TIP3    H132110   5.757   1.541  11.862  0.5590  0.7709 -0.7274
 3565TIP3    H232111   5.704   1.461  11.744  0.9944  3.0587 -2.5523
 3566TIP3   OH232112   0.761   5.602   3.682 -0.0915  0.3440 -0.5844
 3566TIP3    H132113   0.710   5.571   3.757 -0.0736  0.4745 -0.5184
 3566TIP3    H232114   0.847   5.624   3.719 -0.3974  1.3575 -0.4623
 3567TIP3   OH232115   2.360   5.566   3.529  0.5516  0.0795  0.2690
 3567TIP3    H132116   2.327   5.631   3.466 -0.3921 -1.1104 -0.5074
 3567TIP3    H232117   2.447   5.598   3.552 -0.3136  2.2716  0.8545
 3568TIP3   OH232118   5.131   5.233   2.539 -0.5005 -0.1956 -0.1488
 3568TIP3    H132119   5.093   5.317   2.566 -1.1839  0.5878 -3.1889
 3568TIP3    H232120   5.061   5.189   2.492 -0.2684 -2.7459  1.6854
 3569TIP3   OH232121   4.668   0.872  14.490 -0.1956  0.2611  0.2767
 3569TIP3    H132122   4.741   0.845  14.546 -0.3026  0.1550  0.3658
 3569TIP3    H232123   4.698   0.952  14.448  0.2507 -0.1669 -0.2382
 3570TIP3   OH232124   5.793   0.130  14.345  0.0788 -0.0403 -0.3773
 3570TIP3    H132125   5.833   0.074  14.412 -2.4136 -2.3564 -0.6620
 3570TIP3    H232126   5.755   0.202  14.395 -0.7182 -1.1076  0.6238
 3571TIP3   OH232127   5.240   1.785   2.368  0.3679 -0.3340 -0.3287
 3571TIP3    H132128   5.242   1.832   2.285  1.9170 -0.4155 -0.3765
 3571TIP3    H232129   5.302   1.713   2.357  0.0874 -0.7499  0.6591
 3572TIP3   OH232130   4.787   4.909  16.724 -0.3378 -0.1477  0.7289
 3572TIP3    H132131   4.736   4.875  16.797  0.2994  0.5664  1.5294
 3572TIP3    H232132   4.751   4.996  16.708  0.2506  0.1422  0.9409
 3573TIP3   OH232133   1.819   2.387  13.248  0.9217 -0.2515 -0.4499
 3573TIP3    H132134   1.724   2.384  13.240  0.9967 -2.7817 -1.2105
 3573TIP3    H232135   1.835   2.402  13.341 -0.1862  0.8899 -0.4177
 3574TIP3   OH232136   0.477   5.094   6.381  0.3480  0.1744  0.4867
 3574TIP3    H132137   0.426   5.029   6.333  0.7096  0.1699  0.0970
 3574TIP3    H232138   0.566   5.058   6.385  0.5581  0.6472  0.2421
 3575TIP3   OH232139   0.282   4.682  14.018 -0.3946  0.0409  0.5366
 3575TIP3    H132140   0.303   4.680  14.111  0.7651  0.5918  0.3042
 3575TIP3    H232141   0.331   4.609  13.980  2.3563  2.1274 -0.2211
 3576TIP3   OH232142   5.281   0.361  16.705  0.1231  0.1238  0.8090
 3576TIP3    H132143   5.372   0.384  16.685  0.0984 -0.3783  0.0814
 3576TIP3    H232144   5.287   0.312  16.787  0.7707 -1.5897 -0.1854
 3577TIP3   OH232145   6.511   3.556   2.388 -0.2977 -0.2583  0.1218
 3577TIP3    H132146   6.464   3.617   2.332  0.0881 -0.7474 -0.7621
 3577TIP3    H232147   6.524   3.604   2.470 -1.9899  0.0090  0.2709
 3578TIP3   OH232148   5.251   0.731  14.700 -0.0687 -0.4909 -0.2688
 3578TIP3    H132149   5.277   0.661  14.761  1.0647  0.0310 -0.1297
 3578TIP3    H232150   5.170   0.766  14.737 -0.5145 -1.5482 -0.1984
 3579TIP3   OH232151   1.841   6.682  16.361 -0.7671  0.1891  0.2831
 3579TIP3    H132152   1.892   6.611  16.322  0.0253  1.2290 -0.6376
 3579TIP3    H232153   1.812   6.647  16.445 -0.0784 -1.0833  0.0200
 3580TIP3   OH232154   2.717   3.784  12.418 -0.1234 -0.3003  0.0152
 3580TIP3    H132155   2.672   3.763  12.500 -2.7771  0.0743 -1.2538
 3580TIP3    H232156   2.771   3.707  12.400  0.5583 -0.3683  2.0991
 3581TIP3   OH232157   3.839   1.917   2.860  0.4641  0.5679  0.0819
 3581TIP3    H132158   3.915   1.890   2.808 -0.3096 -1.5419 -0.0428
 3581TIP3    H232159   3.866   1.906   2.951  0.9082  1.6670  0.1044
 3582TIP3   OH232160   3.374   5.869  16.549  0.3739 -0.3043 -0.0328
 3582TIP3    H132161   3.300   5.819  16.584  1.7451 -1.9443  0.6780
 3582TIP3    H232162   3.345   5.960  16.553 -1.6849 -0.8948 -0.0091
 3583TIP3   OH232163   3.118   3.659   4.452 -0.2651 -0.1341 -0.0637
 3583TIP3    H132164   3.202   3.659   4.404  0.1566  2.0004  0.5759
 3583TIP3    H232165   3.135   3.713   4.529 -2.1339 -0.0083  0.2870
 3584TIP3   OH232166   1.663   5.420  15.574 -0.6247 -0.4757  0.1608
 3584TIP3    H132167   1.587   5.372  15.540 -0.5858  0.6770 -1.6843
 3584TIP3    H232168   1.625   5.501  15.609 -0.3889 -0.5259  0.5292
 3585TIP3   OH232169   6.052   0.155  12.966  0.1736 -0.4300  0.6582
 3585TIP3    H132170   6.080   0.098  12.894  0.7191  0.4957  0.1198
 3585TIP3    H232171   6.064   0.101  13.045  0.8794 -0.9926  0.1841
 3586TIP3   OH232172   4.142   3.059   0.151  0.2576  0.0250  0.4540
 3586TIP3    H132173   4.147   2.969   0.119 -3.8637 -0.5325  0.8699
 3586TIP3    H232174   4.122   3.111   0.073  1.1609  0.4099  0.4617
 3587TIP3   OH232175   1.853   3.796   2.716 -0.0525  0.1881 -0.1064
 3587TIP3    H132176   1.929   3.795   2.657 -0.7454  0.9860 -1.0418
 3587TIP3    H232177   1.888   3.767   2.800  1.9284  3.0853  0.2108
 3588TIP3   OH232178   6.662   3.804  13.537 -0.5635 -0.4205 -0.6373
 3588TIP3    H132179   6.584   3.749  13.533 -1.0797  0.2888 -0.5166
 3588TIP3    H232180   6.652   3.866  13.465 -1.0930  0.9346  0.5532
 3589TIP3   OH232181   4.362   5.579   3.479 -0.1647  0.9324  0.0904
 3589TIP3    H132182   4.338   5.524   3.404 -1.5008  1.5004  0.0778
 3589TIP3    H232183   4.451   5.609   3.459  0.1077 -0.1956 -0.4972
 3590TIP3   OH232184   0.586   4.599  11.077 -0.1783 -0.0873  0.2940
 3590TIP3    H132185   0.538   4.624  10.998 -0.6332  0.1833  0.6604
 3590TIP3    H232186   0.572   4.670  11.139  1.5605  0.5286  0.0532
 3591TIP3   OH232187   3.655   4.523  14.511  0.0772  0.1446  0.1129
 3591TIP3    H132188   3.570   4.559  14.536 -0.2902 -1.4756  1.3656
 3591TIP3    H232189   3.645   4.429  14.521  1.1616 -0.3372 -2.5131
 3592TIP3   OH232190   5.220   0.393   3.139  0.8669  0.0450  0.4081
 3592TIP3    H132191   5.143   0.358   3.095  2.5832 -2.7392 -0.6800
 3592TIP3    H232192   5.213   0.488   3.127 -1.3427 -0.2538 -1.4356
 3593TIP3   OH232193   0.995   2.942  16.693  0.1937  0.4356  0.0488
 3593TIP3    H132194   1.030   3.018  16.647  0.3384  0.5572  0.3583
 3593TIP3    H232195   1.025   2.951  16.783 -0.3984  0.3958  0.2599
 3594TIP3   OH232196   4.461   3.290  14.604 -0.1053 -0.3940 -0.4880
 3594TIP3    H132197   4.551   3.277  14.573 -0.5082 -1.1943 -1.3764
 3594TIP3    H232198   4.406   3.258  14.532 -1.1226  0.8350 -0.2968
 3595TIP3   OH232199   3.004   3.147   3.786  0.0611  0.4347 -0.1080
 3595TIP3    H132200   2.985   3.054   3.780 -1.2350  0.6212  0.5608
 3595TIP3    H232201   3.003   3.178   3.695 -0.6309 -0.0060 -0.2590
 3596TIP3   OH232202   0.605   4.569   2.333 -0.1314  0.9825  0.4089
 3596TIP3    H132203   0.536   4.625   2.297 -1.0541 -1.0852 -1.2425
 3596TIP3    H232204   0.671   4.565   2.264  0.2713  0.6234  0.8142
 3597TIP3   OH232205   1.824   2.778   0.105  0.3776 -0.6586  0.7284
 3597TIP3    H132206   1.850   2.687   0.092 -0.2166 -0.6352 -0.7314
 3597TIP3    H232207   1.795   2.808   0.019  0.6976  0.9603  1.1478
 3598TIP3   OH232208   0.210   5.668   2.536  0.6943 -0.8641  0.1433
 3598TIP3    H132209   0.195   5.619   2.617  2.2443 -0.8391  0.4815
 3598TIP3    H232210   0.223   5.600   2.470 -0.2186 -0.8857 -0.0220
 3599TIP3   OH232211   2.583   5.809   3.110  0.1737  0.5281 -0.1323
 3599TIP3    H132212   2.507   5.817   3.053  0.6410  0.4344 -0.7825
 3599TIP3    H232213   2.550   5.830   3.198 -1.4476 -3.1178  0.3007
 3600TIP3   OH232214   5.486   3.279  14.936  0.3146  0.1484 -0.5260
 3600TIP3    H132215   5.413   3.298  14.876 -0.4939 -2.0928 -0.3524
 3600TIP3    H232216   5.507   3.187  14.920  1.4411  0.0499  1.2083
 3601TIP3   OH232217   0.038   0.526  12.003 -0.2067  0.3072 -0.2820
 3601TIP3    H132218   0.087   0.605  12.029  0.1516 -0.5344  1.7672
 3601TIP3    H232219   0.074   0.503  11.917 -0.4796  2.4756 -1.0483
 3602TIP3   OH232220   0.247   4.167   6.112 -0.0187  0.5727  0.6992
 3602TIP3    H132221   0.278   4.153   6.201  0.7560 -0.3012  0.3117
 3602TIP3    H232222   0.178   4.101   6.099  0.2751  0.3035  0.4706
 3603TIP3   OH232223   2.034   0.976  15.342 -0.1496 -0.1208  0.2604
 3603TIP3    H132224   2.010   0.980  15.250  1.1896 -0.1593 -0.1148
 3603TIP3    H232225   2.000   0.892  15.373  1.7819 -1.4264 -0.9488
 3604TIP3   OH232226   4.477   5.692   0.385  0.0285 -0.3625  0.2951
 3604TIP3    H132227   4.478   5.787   0.395 -1.3810 -0.3437  0.4857
 3604TIP3    H232228   4.460   5.677   0.292 -1.5246 -0.3780  0.5462
 3605TIP3   OH232229   5.567   0.097  12.011 -0.4589  0.1580 -0.4231
 3605TIP3    H132230   5.641   0.038  12.025 -0.4751  0.4673  1.1489
 3605TIP3    H232231   5.542   0.126  12.098 -0.8989  1.9481 -1.0894
 3606TIP3   OH232232   6.749   2.405  11.081 -0.3144  0.1831  0.2061
 3606TIP3    H132233   6.683   2.430  11.016 -0.2545 -0.3706 -0.0785
 3606TIP3    H232234   6.725   2.315  11.106 -1.4539  1.0213  2.3598
 3607TIP3   OH232235   3.782   1.503   4.458 -0.0258  0.4117  0.6154
 3607TIP3    H132236   3.788   1.545   4.372  0.1513 -0.0674  0.3862
 3607TIP3    H232237   3.819   1.415   4.444 -1.2438 -0.1602  0.8543
 3608TIP3   OH232238   5.612   3.895  12.230 -0.1976 -0.3312 -0.0375
 3608TIP3    H132239   5.517   3.883  12.241 -0.7870  1.5627 -2.2284
 3608TIP3    H232240   5.623   3.990  12.225  1.6341 -0.5596 -1.1228
 3609TIP3   OH232241   4.214   2.782   0.703  0.2506 -0.1007  0.1559
 3609TIP3    H132242   4.292   2.731   0.682 -0.4039 -1.9086  1.8346
 3609TIP3    H232243   4.247   2.855   0.756  0.8308 -0.8107  0.7939
 3610TIP3   OH232244   0.800   0.301  16.928  0.1518 -0.0814  0.2182
 3610TIP3    H132245   0.812   0.321  17.021  0.9094 -0.6018  0.2433
 3610TIP3    H232246   0.868   0.351  16.884 -0.7014  0.7841 -0.1459
 3611TIP3   OH232247   2.552   0.348   4.427 -0.3813  0.8381  0.1240
 3611TIP3    H132248   2.646   0.332   4.424 -0.7181 -1.6887  0.7913
 3611TIP3    H232249   2.537   0.385   4.514 -0.2952 -1.6114  1.2679
 3612TIP3   OH232250   0.597   5.033   2.433  0.1126  0.0294 -0.2793
 3612TIP3    H132251   0.686   5.004   2.453 -0.4409 -1.3257  0.3449
 3612TIP3    H232252   0.548   4.952   2.417 -1.3575  0.6205  0.9322
 3613TIP3   OH232253   4.778   1.831   4.674  0.0151  0.2266 -0.3020
 3613TIP3    H132254   4.692   1.812   4.713 -0.9421 -0.6690 -2.6472
 3613TIP3    H232255   4.799   1.752   4.623  2.9685 -0.1823  1.3260
 3614TIP3   OH232256   1.902   0.642   5.970  0.4831 -0.3592  0.3065
 3614TIP3    H132257   1.965   0.713   5.984  0.4796 -0.2252 -0.3577
 3614TIP3    H232258   1.833   0.659   6.034  0.6926 -0.0156  0.4487
 3615TIP3   OH232259   6.770   3.027   5.081 -0.4461  0.3238  0.0940
 3615TIP3    H132260   6.844   2.970   5.103  0.4009  0.2877 -2.5867
 3615TIP3    H232261   6.809   3.113   5.067 -1.0692  0.5563 -0.2765
 3616TIP3   OH232262   0.217   5.094   3.559  0.0033 -0.1793 -0.1085
 3616TIP3    H132263   0.129   5.058   3.547 -0.8773  1.6472  0.5677
 3616TIP3    H232264   0.228   5.102   3.654  0.1298  1.3662 -0.2282
 3617TIP3   OH232265   3.335   2.952   1.930  0.2109  0.0685 -0.0616
 3617TIP3    H132266   3.340   2.886   1.861  0.3001 -0.3378  0.3245
 3617TIP3    H232267   3.256   2.928   1.979  0.2403  0.2530  0.0740
 3618TIP3   OH232268   1.379   5.904   2.384  0.0593  0.8133 -0.1921
 3618TIP3    H132269   1.288   5.880   2.401  0.4341 -0.7567 -0.2810
 3618TIP3    H232270   1.389   5.990   2.425 -0.7646 -0.1342  2.1550
 3619TIP3   OH232271   6.576   0.313   2.679  0.5185  0.2647  0.2558
 3619TIP3    H132272   6.565   0.296   2.585 -0.5646 -0.9702  0.5824
 3619TIP3    H232273   6.668   0.340   2.687  0.7662 -0.0640 -1.0939
 3620TIP3   OH232274   5.538   4.357  16.845  0.7948  0.2739 -0.7978
 3620TIP3    H132275   5.562   4.412  16.920 -3.6870  0.0016  1.1509
 3620TIP3    H232276   5.523   4.419  16.774 -0.4358  1.2782  0.2720
 3621TIP3   OH232277   2.318   6.292   5.863 -0.3915  0.1665 -0.3709
 3621TIP3    H132278   2.349   6.220   5.918 -0.3553  1.1833  0.9855
 3621TIP3    H232279   2.239   6.324   5.907 -0.0794  1.3219 -0.6046
 3622TIP3   OH232280   6.526   2.786  15.641  0.4512 -0.6737  1.1450
 3622TIP3    H132281   6.548   2.874  15.608 -0.5078 -1.1219 -0.8590
 3622TIP3    H232282   6.437   2.795  15.675  1.5468 -0.1338  4.1874
 3623TIP3   OH232283   6.662   6.450   1.905  0.0869 -0.2341  0.1382
 3623TIP3    H132284   6.673   6.532   1.856 -1.4831  0.3996  0.7707
 3623TIP3    H232285   6.607   6.475   1.979 -1.8657 -2.1989 -0.5620
 3624TIP3   OH232286   3.210   0.345  14.391  0.2157  0.3301  0.1624
 3624TIP3    H132287   3.272   0.418  14.383 -0.7634  1.1974  0.2932
 3624TIP3    H232288   3.266   0.267  14.392  1.2893  1.0645  0.0138
 3625TIP3   OH232289   0.146   6.053  11.538  0.1574 -0.0898 -0.2749
 3625TIP3    H132290   0.102   5.981  11.584 -2.9025  1.7712 -0.0027
 3625TIP3    H232291   0.139   6.029  11.445 -1.6084  0.1671 -0.2454
 3626TIP3   OH232292   3.617   0.970   0.195  0.3107  0.5800  0.3152
 3626TIP3    H132293   3.586   1.014   0.274 -1.1118 -0.7463  0.5390
 3626TIP3    H232294   3.540   0.927   0.159  0.5272  2.4832 -2.7729
 3627TIP3   OH232295   5.179   1.552  13.343  0.1154  0.2433 -0.2186
 3627TIP3    H132296   5.153   1.643  13.329 -3.4851 -1.0251 -3.6979
 3627TIP3    H232297   5.221   1.526  13.261  4.2424 -0.5139  1.8952
 3628TIP3   OH232298   0.054   4.838  15.119 -0.5689  0.0560 -0.1657
 3628TIP3    H132299   0.022   4.912  15.171 -0.9845 -0.1096 -0.1885
 3628TIP3    H232300   0.042   4.762  15.174  2.3277  0.2703  0.9660
 3629TIP3   OH232301   0.119   4.741  12.196  0.4005  0.4664  0.3780
 3629TIP3    H132302   0.091   4.685  12.269 -0.5495  0.4768  0.0366
 3629TIP3    H232303   0.078   4.703  12.119  2.3715 -0.2657 -0.3737
 3630TIP3   OH232304   2.397   3.284  12.262 -0.4800  0.6742  0.1041
 3630TIP3    H132305   2.334   3.261  12.194 -1.1839  0.9576  0.6505
 3630TIP3    H232306   2.407   3.379  12.255  1.8281  0.3795 -1.6306
 3631TIP3   OH232307   3.329   5.138  12.931 -0.0325 -0.0515 -0.0985
 3631TIP3    H132308   3.405   5.126  12.874  0.3084 -1.1242  0.5567
 3631TIP3    H232309   3.303   5.229  12.916  1.6944  0.5098  0.0389
 3632TIP3   OH232310   3.330   5.612   0.379 -0.0157 -0.0528  0.1313
 3632TIP3    H132311   3.238   5.620   0.354 -0.8386 -2.5035  1.9617
 3632TIP3    H232312   3.350   5.693   0.425 -2.1915 -0.5371  2.1450
 3633TIP3   OH232313   4.913   1.056  13.241 -0.1720  0.3634  0.3735
 3633TIP3    H132314   4.828   1.021  13.217 -0.7085  1.4987  0.5518
 3633TIP3    H232315   4.975   0.985  13.224 -1.0869 -0.2898 -0.2491
 3634TIP3   OH232316   4.388   0.466  16.414 -0.0987  0.4971 -0.5973
 3634TIP3    H132317   4.368   0.478  16.321 -1.8034 -2.0570 -0.6417
 3634TIP3    H232318   4.440   0.386  16.417  2.2802  1.9626  0.4926
 3635TIP3   OH232319   1.557   2.138   0.159  0.5255  0.1041  0.2342
 3635TIP3    H132320   1.549   2.129   0.064  1.8369  0.7239  0.0448
 3635TIP3    H232321   1.566   2.232   0.173 -0.6403  0.1149  1.0783
 3636TIP3   OH232322   4.052   2.106  16.246 -0.1249 -0.7393 -0.1213
 3636TIP3    H132323   4.017   2.019  16.228 -2.1413  0.0734 -0.3909
 3636TIP3    H232324   4.025   2.160  16.172 -0.3489  0.4879  0.8079
 3637TIP3   OH232325   5.927   4.347   5.595 -0.0264 -0.3133 -0.0764
 3637TIP3    H132326   5.996   4.353   5.661 -0.0990 -0.2098 -0.0094
 3637TIP3    H232327   5.972   4.357   5.511 -0.2549  2.5291  0.0417
 3638TIP3   OH232328   3.962   3.486  13.262 -0.1040  0.3835 -0.4929
 3638TIP3    H132329   3.928   3.563  13.217 -1.1714  0.6161  0.6388
 3638TIP3    H232330   4.050   3.474  13.226  0.1689  2.2482 -0.5650
 3639TIP3   OH232331   5.338   6.248  13.192  0.7830 -0.0138  0.5145
 3639TIP3    H132332   5.280   6.323  13.207  1.6237  0.9267 -0.7212
 3639TIP3    H232333   5.291   6.173  13.229  0.0114  1.1470  1.9968
 3640TIP3   OH232334   0.182   1.640   2.466  0.0346 -0.3538  1.1536
 3640TIP3    H132335   0.257   1.592   2.432 -0.0855  0.7539 -0.8152
 3640TIP3    H232336   0.213   1.729   2.476 -0.9093  0.0630  0.5559
 3641TIP3   OH232337   0.984   2.285  15.027  0.4584 -0.4524  0.3811
 3641TIP3    H132338   0.903   2.336  15.014 -0.2998 -1.1829  1.9775
 3641TIP3    H232339   0.989   2.272  15.122  2.9947  0.3988  0.4503
 3642TIP3   OH232340   5.601   2.613  12.939  0.6001  0.0990  0.4722
 3642TIP3    H132341   5.591   2.684  12.875 -3.2261  0.0398  0.7534
 3642TIP3    H232342   5.594   2.533  12.887  1.0419 -0.0308  0.6046
 3643TIP3   OH232343   1.379   6.422   2.901  0.2814  0.2112  0.1825
 3643TIP3    H132344   1.314   6.363   2.863 -1.6483  1.5120  1.2813
 3643TIP3    H232345   1.387   6.394   2.992  1.0157  0.2879  0.1507
 3644TIP3   OH232346   5.012   5.256  11.433  0.3330 -0.1331  0.5405
 3644TIP3    H132347   4.998   5.313  11.508 -1.6261  0.0221  0.1236
 3644TIP3    H232348   4.983   5.308  11.358  2.2865 -0.2689 -0.3586
 3645TIP3   OH232349   4.742   0.884  11.264  0.3381 -0.2770  0.3333
 3645TIP3    H132350   4.773   0.868  11.175 -1.6670 -0.9712 -0.2811
 3645TIP3    H232351   4.735   0.980  11.270 -1.0029 -0.2638 -0.8396
 3646TIP3   OH232352   6.535   1.840   2.820  0.0108 -0.3611  0.6175
 3646TIP3    H132353   6.500   1.751   2.817 -1.2841  0.1462 -1.8006
 3646TIP3    H232354   6.496   1.884   2.744  2.5270  1.5708  0.3138
 3647TIP3   OH232355   4.470   0.352   0.971  0.6682  0.2670  0.3690
 3647TIP3    H132356   4.392   0.300   0.954  0.2218  1.6839 -2.3628
 3647TIP3    H232357   4.449   0.401   1.051 -0.8083 -0.1446  0.2625
 3648TIP3   OH232358   0.999   2.074   1.255  0.4134 -0.0860 -0.4948
 3648TIP3    H132359   1.091   2.049   1.258  0.0806 -1.4525  1.8320
 3648TIP3    H232360   0.972   2.074   1.347 -1.8399  0.5226 -1.0928
 3649TIP3   OH232361   0.537   6.598  14.610  0.1657  0.1377 -0.2852
 3649TIP3    H132362   0.516   6.638  14.526  0.1930 -0.0979 -0.4052
 3649TIP3    H232363   0.461   6.616  14.665  1.2219  2.6526  0.5125
 3650TIP3   OH232364   5.119   2.043  16.883  0.3309 -0.0355 -0.0457
 3650TIP3    H132365   5.086   2.025  16.971 -0.4690 -0.5039 -0.4386
 3650TIP3    H232366   5.202   1.996  16.879  0.3978  0.0254  0.4648
 3651TIP3   OH232367   2.507   0.478  12.496 -0.1604  0.0033 -0.8212
 3651TIP3    H132368   2.566   0.405  12.511 -3.1435 -2.5357 -0.2723
 3651TIP3    H232369   2.514   0.496  12.402  0.1978 -1.4327 -1.0852
 3652TIP3   OH232370   5.437   3.341   0.637  0.5391 -1.1751 -0.1388
 3652TIP3    H132371   5.476   3.421   0.603 -0.9741  0.1525  1.0583
 3652TIP3    H232372   5.358   3.328   0.584  0.0977 -1.1239  0.4929
 3653TIP3   OH232373   3.471   2.122   5.554 -0.5665  0.1627  0.2526
 3653TIP3    H132374   3.403   2.185   5.530 -0.6061  1.0717  2.5335
 3653TIP3    H232375   3.428   2.062   5.615  0.2241 -0.3059  0.3606
 3654TIP3   OH232376   4.420   1.221  16.485  0.0298 -0.3899 -0.0365
 3654TIP3    H132377   4.325   1.215  16.473 -0.0847  0.9991  0.0129
 3654TIP3    H232378   4.452   1.259  16.402  0.8352 -2.8287 -0.9327
 3655TIP3   OH232379   6.491   2.339   3.072  0.4135  0.4399  0.1537
 3655TIP3    H132380   6.499   2.419   3.020 -0.0893  0.0435 -0.5485
 3655TIP3    H232381   6.561   2.282   3.039  1.1386  0.7872  1.0459
 3656TIP3   OH232382   5.542   6.750  11.146  0.3243 -0.1081  0.2334
 3656TIP3    H132383   5.472   6.749  11.080  0.7570  1.6609 -0.2972
 3656TIP3    H232384   5.529   6.831  11.194  1.5460 -0.1307  0.6391
 3657TIP3   OH232385   6.117   6.311   6.561 -0.0419 -0.1732 -0.1312
 3657TIP3    H132386   6.156   6.308   6.474  1.3691  1.3474  0.3772
 3657TIP3    H232387   6.064   6.231   6.568  1.1022 -1.1185 -1.7700
 3658TIP3   OH232388   5.827   3.897  10.822 -0.7615 -0.3614 -0.3255
 3658TIP3    H132389   5.788   3.811  10.836  0.6809 -1.1104 -0.7104
 3658TIP3    H232390   5.787   3.930  10.741 -1.4454 -0.5739 -0.0800
 3659TIP3   OH232391   3.991   3.585  13.974  0.1747 -0.3567  0.0462
 3659TIP3    H132392   3.930   3.580  13.899  1.7180  0.8759 -1.3554
 3659TIP3    H232393   4.068   3.536  13.945  0.3024 -0.9927  1.3835
 3660TIP3   OH232394   0.012   4.493  13.642  0.3085  0.3098 -0.6887
 3660TIP3    H132395   0.103   4.496  13.613  0.4023  1.8718 -0.3205
 3660TIP3    H232396   0.011   4.430  13.714  1.6926  2.3032  1.1718
 3661TIP3   OH232397   3.225   2.446  14.177  0.0663 -0.2738  0.2529
 3661TIP3    H132398   3.215   2.534  14.142  1.0330 -0.5830 -0.8603
 3661TIP3    H232399   3.231   2.390  14.099  0.2694 -1.2221  0.9359
 3662TIP3   OH232400   1.659   2.433   6.522 -0.2088 -0.0588  0.2053
 3662TIP3    H132401   1.626   2.500   6.582  2.0261  0.3937  1.0432
 3662TIP3    H232402   1.754   2.434   6.535  0.0731 -2.0680 -1.1706
 3663TIP3   OH232403   4.246   3.165  11.035 -0.5999 -0.1265 -0.4562
 3663TIP3    H132404   4.296   3.133  10.959 -1.0606 -1.2047 -0.3311
 3663TIP3    H232405   4.231   3.257  11.017  0.7650  0.0415 -0.8669
 3664TIP3   OH232406   6.595   0.753  13.941  0.6591  0.3154 -0.0045
 3664TIP3    H132407   6.669   0.698  13.969 -0.6906 -2.1407 -1.0023
 3664TIP3    H232408   6.568   0.799  14.021 -0.2671 -3.1059  1.8336
 3665TIP3   OH232409   4.828   2.993  13.854  0.2046 -0.3305  0.5062
 3665TIP3    H132410   4.749   2.961  13.898 -0.6029  0.7173 -0.1285
 3665TIP3    H232411   4.801   3.007  13.764  1.3723 -0.7875  0.0644
 3666TIP3   OH232412   2.008   4.921   5.299  0.3779 -0.0742 -0.2941
 3666TIP3    H132413   1.929   4.965   5.332 -0.5722 -1.3376 -0.8009
 3666TIP3    H232414   1.975   4.840   5.261  1.9586 -0.6711 -0.4235
 3667TIP3   OH232415   4.709   0.974  15.141 -0.5901 -0.4298  0.3506
 3667TIP3    H132416   4.695   1.066  15.119  1.1265 -0.2152  0.0580
 3667TIP3    H232417   4.635   0.952  15.198 -3.1417  0.0110 -2.5435
 3668TIP3   OH232418   4.557   1.710  16.828 -0.1800 -0.5115  0.0578
 3668TIP3    H132419   4.605   1.629  16.841 -0.8901 -1.0910 -0.8321
 3668TIP3    H232420   4.471   1.683  16.797 -0.5937  0.5628  0.2152
 3669TIP3   OH232421   0.635   5.549  10.897  0.1565  0.4781 -0.0053
 3669TIP3    H132422   0.627   5.641  10.921  0.6669  0.8062 -1.0368
 3669TIP3    H232423   0.717   5.544  10.846 -0.9642 -0.1230 -1.8373
 3670TIP3   OH232424   1.903   0.130   2.961  0.0521 -0.0187  0.8235
 3670TIP3    H132425   1.988   0.087   2.977 -0.1384 -0.9313 -0.4178
 3670TIP3    H232426   1.891   0.188   3.036 -0.2669 -3.0814  3.3480
 3671TIP3   OH232427   0.773   5.653   6.235 -0.0357 -0.2320 -0.2924
 3671TIP3    H132428   0.698   5.661   6.293  0.4674 -0.1573  0.3574
 3671TIP3    H232429   0.848   5.677   6.289  0.5623 -1.1604 -0.6863
 3672TIP3   OH232430   1.910   4.774   1.448 -0.5469 -0.0508 -0.0345
 3672TIP3    H132431   1.885   4.811   1.532  1.2265 -0.4456  0.7202
 3672TIP3    H232432   2.001   4.746   1.460 -0.6869 -1.3803 -1.6603
 3673TIP3   OH232433   3.558   1.986   0.233  0.2730 -0.2919 -0.4647
 3673TIP3    H132434   3.579   2.058   0.292  0.1346 -0.0188 -0.7503
 3673TIP3    H232435   3.622   1.918   0.255 -0.0313 -0.3518  0.2790
 3674TIP3   OH232436   6.344   4.432  12.478  0.1402  0.2582  0.0388
 3674TIP3    H132437   6.382   4.431  12.390  0.6013  0.9900  0.2242
 3674TIP3    H232438   6.264   4.380  12.470  1.6647 -2.2254 -0.1432
 3675TIP3   OH232439   0.140   4.691   0.058 -0.0274  0.2399  0.1406
 3675TIP3    H132440   0.111   4.673   0.148 -0.3004  0.3241  0.0707
 3675TIP3    H232441   0.114   4.781   0.042  1.1091  0.6240  0.3979
 3676TIP3   OH232442   0.561   0.477   2.221  0.2455  0.2106  0.3999
 3676TIP3    H132443   0.582   0.421   2.146 -1.0410  0.7831 -0.4133
 3676TIP3    H232444   0.522   0.417   2.285  0.0831 -0.0520  0.0573
 3677TIP3   OH232445   0.932   4.763  12.878 -0.0290  0.3486 -0.1046
 3677TIP3    H132446   0.855   4.728  12.922  0.2099  1.7935  1.5812
 3677TIP3    H232447   1.001   4.699  12.895 -0.9826 -1.4190 -2.4039
 3678TIP3   OH232448   0.387   0.180  13.859 -0.5294  0.5030  1.0607
 3678TIP3    H132449   0.307   0.127  13.866 -0.2346  0.0430  0.9762
 3678TIP3    H232450   0.438   0.137  13.790 -0.7746  1.5380  0.2121
 3679TIP3   OH232451   3.740   2.573  11.771  0.1150  0.3669  0.4008
 3679TIP3    H132452   3.744   2.512  11.845  1.1169  0.5556  0.5145
 3679TIP3    H232453   3.647   2.593  11.761 -0.0310  0.3354  1.6046
 3680TIP3   OH232454   5.856   1.338   2.728 -0.0837  0.3796  0.0126
 3680TIP3    H132455   5.898   1.417   2.762  2.4817 -0.8538 -0.0790
 3680TIP3    H232456   5.928   1.285   2.694 -1.9199 -1.2021 -1.6457
 3681TIP3   OH232457   1.022   4.890  15.743  0.0949 -0.0274 -0.2340
 3681TIP3    H132458   1.057   4.811  15.701 -1.8266 -1.5098  0.8003
 3681TIP3    H232459   0.931   4.894  15.714 -0.8113 -0.1414  2.3954
 3682TIP3   OH232460   4.581   5.055  16.376 -0.1694  0.2767 -0.2620
 3682TIP3    H132461   4.558   5.129  16.431  0.2037 -0.0967  0.4173
 3682TIP3    H232462   4.675   5.063  16.363 -0.4361  1.0439 -1.8916
 3683TIP3   OH232463   0.238   5.005   0.621 -0.0118  0.1741  0.2159
 3683TIP3    H132464   0.195   4.980   0.539  1.2869  0.4919 -0.6071
 3683TIP3    H232465   0.255   5.099   0.611  0.2180  0.2003  0.8229
 3684TIP3   OH232466   0.883   6.528  15.968  0.7441  0.1032  0.5311
 3684TIP3    H132467   0.831   6.581  15.907  1.2786  0.4958  0.4131
 3684TIP3    H232468   0.971   6.527  15.930  0.6812 -1.1180  0.3809
 3685TIP3   OH232469   3.853   0.161   3.210  0.1222  0.3664  0.4473
 3685TIP3    H132470   3.782   0.099   3.194 -1.4593  1.4314  2.6988
 3685TIP3    H232471   3.920   0.110   3.255 -1.1547  0.1922  2.2536
 3686TIP3   OH232472   6.742   6.726  11.251  0.0080  0.3114  0.0450
 3686TIP3    H132473   6.813   6.789  11.238 -0.0755  0.0532 -1.8640
 3686TIP3    H232474   6.787   6.644  11.270  0.2563  0.1565 -1.1195
 3687TIP3   OH232475   3.502   1.548   5.695  0.1140  0.5224 -0.7393
 3687TIP3    H132476   3.487   1.561   5.788 -0.0842 -0.5489 -0.6113
 3687TIP3    H232477   3.578   1.491   5.691  0.0607  0.4836 -1.2374
 3688TIP3   OH232478   6.240   5.776   1.395  0.1008 -0.8442 -0.0525
 3688TIP3    H132479   6.254   5.839   1.466 -0.6582  0.3418 -0.9160
 3688TIP3    H232480   6.148   5.750   1.405 -0.1445 -0.3278 -0.8360
 3689TIP3   OH232481   0.403   0.876   1.395 -0.1158 -0.9183 -0.1194
 3689TIP3    H132482   0.424   0.964   1.364  0.0686 -1.1769 -0.7389
 3689TIP3    H232483   0.415   0.820   1.319 -3.3479 -1.0564 -0.6690
 3690TIP3   OH232484   0.908   4.234  14.097  0.3728  0.1456 -0.7149
 3690TIP3    H132485   0.833   4.175  14.085  0.2203  0.3364 -0.7022
 3690TIP3    H232486   0.978   4.177  14.129  0.2197 -0.0265 -0.6828
 3691TIP3   OH232487   4.717   3.320   5.298 -0.0368  0.1994 -0.1349
 3691TIP3    H132488   4.630   3.359   5.290 -0.3704 -0.3316  0.7293
 3691TIP3    H232489   4.776   3.394   5.311 -0.1280  0.6949 -2.1019
 3692TIP3   OH232490   3.707   1.388   2.275 -0.2496 -0.0965  0.1246
 3692TIP3    H132491   3.707   1.482   2.294  0.9852  0.1632 -1.0480
 3692TIP3    H232492   3.717   1.383   2.180 -0.0582 -1.4331  0.2053
 3693TIP3   OH232493   4.651   4.760  11.474  0.2446 -0.1035 -0.0150
 3693TIP3    H132494   4.600   4.837  11.498  0.0074 -0.5794  1.0806
 3693TIP3    H232495   4.595   4.686  11.497  0.0770 -0.6359 -1.9196
 3694TIP3   OH232496   2.980   6.166  15.145  0.0854  0.5287 -0.6380
 3694TIP3    H132497   2.896   6.158  15.189  0.6007  1.4123  0.5854
 3694TIP3    H232498   3.044   6.137  15.211  0.7733  0.3972 -1.3484
 3695TIP3   OH232499   3.882   0.920   1.352  0.4964 -0.2626 -0.6115
 3695TIP3    H132500   3.953   0.961   1.303 -0.7915  1.7812 -0.8736
 3695TIP3    H232501   3.926   0.857   1.409  2.2766 -0.9364 -2.5520
 3696TIP3   OH232502   4.731   1.641  13.404 -0.1589  1.1628 -0.3211
 3696TIP3    H132503   4.647   1.632  13.449 -0.5757 -1.2854 -1.4408
 3696TIP3    H232504   4.791   1.588  13.456 -0.5130 -1.2008 -2.1744
 3697TIP3   OH232505   0.942   4.398   1.972  0.6255 -0.0741 -0.3141
 3697TIP3    H132506   0.978   4.346   1.900  1.7757  1.1360 -0.6586
 3697TIP3    H232507   1.014   4.404   2.036  0.1414  0.1743  0.2216
 3698TIP3   OH232508   2.901   4.794  15.443  0.2542  0.5179  0.8270
 3698TIP3    H132509   2.911   4.759  15.532 -1.3250 -0.3568  0.6972
 3698TIP3    H232510   2.817   4.840  15.445  1.0900  2.1143  0.2793
 3699TIP3   OH232511   4.274   0.479   1.115 -0.3281  0.1252  0.3612
 3699TIP3    H132512   4.198   0.428   1.085 -0.3083  0.3716 -0.1138
 3699TIP3    H232513   4.236   0.559   1.151 -0.2918  0.2583  0.1031
 3700TIP3   OH232514   2.865   4.600  13.306 -0.2486  0.0262  0.0015
 3700TIP3    H132515   2.920   4.665  13.261  0.9479 -0.9567 -0.0118
 3700TIP3    H232516   2.843   4.641  13.390  0.8645  0.2847  0.1840
 3701TIP3   OH232517   5.390   1.595   2.247  0.2135  0.0088  0.2454
 3701TIP3    H132518   5.474   1.549   2.242 -0.0315 -0.7390  2.1702
 3701TIP3    H232519   5.371   1.620   2.156  3.5325  2.1508 -0.0529
 3702TIP3   OH232520   4.532   1.945   2.458 -0.5625 -0.0096 -0.2630
 3702TIP3    H132521   4.498   1.908   2.539 -0.6880 -2.7646 -1.4530
 3702TIP3    H232522   4.532   2.040   2.472 -0.1150 -0.4005  3.0932
 3703TIP3   OH232523   4.688   2.511  16.413  0.2309 -0.5497  0.7725
 3703TIP3    H132524   4.664   2.471  16.497 -1.5569 -1.9718 -0.3196
 3703TIP3    H232525   4.635   2.463  16.349  0.6447  1.3060 -1.0372
 3704TIP3   OH232526   0.798   6.570   0.868  0.2575  0.8924 -0.3607
 3704TIP3    H132527   0.838   6.656   0.880  0.2731  0.9082 -0.5191
 3704TIP3    H232528   0.720   6.571   0.923  0.4680  0.8673 -0.0578
 3705TIP3   OH232529   3.567   4.858   4.393  0.0228 -0.1424 -0.0285
 3705TIP3    H132530   3.525   4.824   4.472  0.3819 -0.1947  0.1430
 3705TIP3    H232531   3.513   4.933   4.367  0.3011  0.3186  0.6798
 3706TIP3   OH232532   1.402   2.074   4.299 -0.0234  0.0487  0.0660
 3706TIP3    H132533   1.458   2.052   4.225 -2.1919  1.1984 -2.0744
 3706TIP3    H232534   1.338   2.135   4.263 -1.7347 -0.0242  2.7094
 3707TIP3   OH232535   6.061   4.739  15.312  0.0706  0.3981  0.2867
 3707TIP3    H132536   6.021   4.670  15.364  0.3287 -0.5551 -0.7442
 3707TIP3    H232537   6.148   4.706  15.290 -0.0989  0.6893 -0.8914
 3708TIP3   OH232538   4.433   4.484   6.526 -0.2789  0.2168 -0.2411
 3708TIP3    H132539   4.372   4.544   6.569 -0.3322  0.3393 -0.4848
 3708TIP3    H232540   4.407   4.485   6.434  0.5514  0.8310 -0.4747
 3709TIP3   OH232541   2.738   4.025   5.746  0.5238  0.2126  0.4541
 3709TIP3    H132542   2.680   4.069   5.808  1.0855 -0.0505  1.1792
 3709TIP3    H232543   2.721   3.931   5.759  0.8540  0.1466  0.4280
 3710TIP3   OH232544   5.880   0.813   5.071  0.3792 -0.3529  0.0808
 3710TIP3    H132545   5.936   0.767   5.009  3.8931  0.4435  2.3249
 3710TIP3    H232546   5.843   0.744   5.126  1.4807 -0.8262  0.2619
 3711TIP3   OH232547   5.396   2.803   5.348  0.0342  0.2711 -0.0029
 3711TIP3    H132548   5.392   2.894   5.320 -1.1521  0.3271  0.2991
 3711TIP3    H232549   5.488   2.789   5.372  0.1263  1.5391  0.4403
 3712TIP3   OH232550   0.600   3.036  13.939 -0.2821  0.3986  0.5430
 3712TIP3    H132551   0.526   3.054  13.998  0.1269  1.0740  0.8636
 3712TIP3    H232552   0.585   3.094  13.864 -0.9299 -0.6332 -0.1443
 3713TIP3   OH232553   4.684   6.126   1.835  0.0790 -0.0866 -0.0001
 3713TIP3    H132554   4.764   6.166   1.871  0.5310 -0.7653 -0.2524
 3713TIP3    H232555   4.711   6.088   1.752 -0.7664  0.6620 -0.6355
 3714TIP3   OH232556   6.176   3.179   0.315  0.2364 -0.5022  0.0324
 3714TIP3    H132557   6.248   3.116   0.322  1.1852  0.5933  0.3995
 3714TIP3    H232558   6.191   3.241   0.386 -0.8111  0.0170 -0.1788
 3715TIP3   OH232559   1.387   4.344  10.755  0.2127  0.2660 -0.7484
 3715TIP3    H132560   1.473   4.360  10.794 -0.1249  0.1838  0.0484
 3715TIP3    H232561   1.329   4.328  10.830 -0.2064 -1.0839 -1.3308
 3716TIP3   OH232562   5.104   5.052  15.553 -0.1922  0.4792 -0.4580
 3716TIP3    H132563   5.183   5.070  15.503  0.0281  0.7353 -0.0278
 3716TIP3    H232564   5.040   5.020  15.488  0.1613  0.5729 -0.8531
 3717TIP3   OH232565   5.114   3.955  15.624 -0.1637 -0.2904 -0.0132
 3717TIP3    H132566   5.071   4.038  15.602  2.6823  1.2124 -0.5414
 3717TIP3    H232567   5.083   3.934  15.712 -3.7661 -0.7552 -1.2464
 3718TIP3   OH232568   4.527   0.994   0.450 -0.3732  0.2697 -0.0413
 3718TIP3    H132569   4.460   0.927   0.451  0.0198 -0.1365 -0.5596
 3718TIP3    H232570   4.479   1.077   0.447 -0.8423 -0.0137 -0.3086
 3719TIP3   OH232571   1.493   3.190  16.492  0.0123 -0.4342  0.0827
 3719TIP3    H132572   1.530   3.277  16.480 -0.1315 -0.3859 -0.0119
 3719TIP3    H232573   1.542   3.135  16.431 -0.7749 -0.1725 -0.8092
 3720TIP3   OH232574   3.270   0.682  11.177  1.1788  0.6235 -0.5650
 3720TIP3    H132575   3.343   0.736  11.207  1.2683  0.8335 -1.1531
 3720TIP3    H232576   3.251   0.714  11.089 -0.0099  0.9791 -0.1984
 3721TIP3   OH232577   4.097   0.634  16.874  0.2014  0.6349  0.5255
 3721TIP3    H132578   4.142   0.718  16.868  0.5595  0.4204  0.1628
 3721TIP3    H232579   4.140   0.579  16.809  1.5666 -0.5809  2.3774
 3722TIP3   OH232580   5.136   4.669   1.259  0.2345 -0.1077 -1.2049
 3722TIP3    H132581   5.057   4.638   1.215  1.0841 -0.9519 -2.1917
 3722TIP3    H232582   5.175   4.590   1.296  1.0080  0.1933 -1.3712
 3723TIP3   OH232583   2.880   6.420  11.676 -0.3290 -0.0606  0.6292
 3723TIP3    H132584   2.922   6.471  11.607  1.7156 -4.1060 -1.5294
 3723TIP3    H232585   2.947   6.414  11.745 -0.2548 -0.4765  0.5207
 3724TIP3   OH232586   2.792   1.265  17.013  0.2211 -0.3316  0.1252
 3724TIP3    H132587   2.698   1.248  17.007  0.2701 -0.4394 -0.3746
 3724TIP3    H232588   2.832   1.186  16.978  0.4647  0.4986 -1.5952
 3725TIP3   OH232589   6.471   3.578  15.010  0.1027  0.1822 -0.3800
 3725TIP3    H132590   6.412   3.637  15.056  1.1508 -0.5056  2.0645
 3725TIP3    H232591   6.546   3.632  14.986  1.0761 -0.0574  1.8810
 3726TIP3   OH232592   1.031   0.148   4.296  0.0379  0.1253  0.3074
 3726TIP3    H132593   1.099   0.202   4.256  1.2776 -0.9097  0.9485
 3726TIP3    H232594   1.070   0.061   4.302 -1.1314 -0.3609  1.2721
 3727TIP3   OH232595   5.172   6.156  12.358  0.3533 -0.0300  0.2163
 3727TIP3    H132596   5.174   6.243  12.397  2.7379 -0.8924  2.2621
 3727TIP3    H232597   5.254   6.150  12.308  1.4771 -1.8607  2.1287
 3728TIP3   OH232598   0.258   2.618  16.484  0.1573  0.3291 -0.0452
 3728TIP3    H132599   0.299   2.554  16.425 -1.3378 -1.8566  1.1468
 3728TIP3    H232600   0.166   2.619  16.458 -0.0983  1.0347  0.8267
 3729TIP3   OH232601   3.280   1.972   2.472 -0.7439 -0.1392 -0.0272
 3729TIP3    H132602   3.264   2.006   2.560  0.9540 -0.3409  0.3953
 3729TIP3    H232603   3.366   1.931   2.478 -0.4165  0.2179 -1.9090
 3730TIP3   OH232604   2.065   6.654  11.277 -0.2101  1.1333  0.0458
 3730TIP3    H132605   2.007   6.716  11.320  0.5826  2.7265 -1.0480
 3730TIP3    H232606   2.036   6.653  11.186 -0.1673 -0.0824  0.0322
 3731TIP3   OH232607   4.898   3.018  14.795  0.4050  0.2294 -0.2254
 3731TIP3    H132608   4.927   2.988  14.710  0.5777 -0.1624 -0.0293
 3731TIP3    H232609   4.931   2.952  14.857  1.2944  1.1021  0.2701
 3732TIP3   OH232610   1.869   2.877   4.331  0.3972 -0.2633  0.6084
 3732TIP3    H132611   1.847   2.912   4.244  0.6851  0.6601  0.8918
 3732TIP3    H232612   1.786   2.845   4.365  0.4880 -1.7743 -0.4815
 3733TIP3   OH232613   4.720   5.947   4.174  0.1565 -0.1745  0.4533
 3733TIP3    H132614   4.706   5.878   4.110  0.0291  0.3984 -0.1399
 3733TIP3    H232615   4.803   5.925   4.216 -0.5900 -1.4998  1.3216
 3734TIP3   OH232616   4.992   0.074  14.896 -0.2094 -0.0882 -0.5131
 3734TIP3    H132617   4.921   0.029  14.941  0.4251  0.8242  1.5619
 3734TIP3    H232618   4.984   0.047  14.805 -2.6270 -0.7362 -0.1895
 3735TIP3   OH232619   3.688   2.867   6.275 -0.0253  0.1995  0.3227
 3735TIP3    H132620   3.651   2.924   6.343  0.1744  1.8781 -0.9141
 3735TIP3    H232621   3.780   2.893   6.270  0.0751 -0.2671 -0.2448
 3736TIP3   OH232622   1.283   5.723   6.162 -0.6930 -0.1571  0.4563
 3736TIP3    H132623   1.338   5.713   6.239 -0.6645  0.8051  0.5726
 3736TIP3    H232624   1.310   5.807   6.124  0.8384 -1.5738 -1.8565
 3737TIP3   OH232625   5.711   1.717   1.057  0.1227  0.4389 -0.2358
 3737TIP3    H132626   5.641   1.673   1.105  0.7150  0.0476  0.2851
 3737TIP3    H232627   5.742   1.785   1.116  0.7979  0.0121 -0.0824
 3738TIP3   OH232628   1.645   4.753  13.317 -0.2204 -0.0257 -0.5156
 3738TIP3    H132629   1.631   4.838  13.360 -0.0480 -0.4915  0.4741
 3738TIP3    H232630   1.592   4.759  13.237 -0.7990  0.7428 -0.0967
 3739TIP3   OH232631   6.519   1.034  15.372 -0.3014 -0.2827 -0.6673
 3739TIP3    H132632   6.567   0.951  15.370  1.1872  0.4534  0.9856
 3739TIP3    H232633   6.428   1.009  15.360  0.0294 -2.2484  0.3278
 3740TIP3   OH232634   2.529   2.474  13.368 -0.1524 -0.2178  0.1315
 3740TIP3    H132635   2.500   2.529  13.440  1.6875  0.2306  0.5766
 3740TIP3    H232636   2.451   2.462  13.314 -0.7474  2.4012  0.2775
 3741TIP3   OH232637   5.039   0.124   5.790  0.0731 -0.4203  0.2196
 3741TIP3    H132638   5.073   0.180   5.721  1.9543 -1.5876  0.1452
 3741TIP3    H232639   5.005   0.186   5.856  1.3413  0.7938 -0.2155
 3742TIP3   OH232640   5.972   1.818  13.377 -0.0764  0.3753  0.3879
 3742TIP3    H132641   5.939   1.870  13.450  0.4176  1.2572 -0.0037
 3742TIP3    H232642   6.055   1.859  13.354  0.7158 -1.0723  0.5672
 3743TIP3   OH232643   4.494   5.057   5.740  0.7405 -0.2168  0.1777
 3743TIP3    H132644   4.462   5.126   5.797  1.4049  1.9517 -1.8913
 3743TIP3    H232645   4.554   5.102   5.680  3.7766 -3.1762  0.7198
 3744TIP3   OH232646   6.121   3.667   4.448 -0.8277  0.0756  0.1920
 3744TIP3    H132647   6.094   3.725   4.377 -0.2813 -0.5999 -0.5882
 3744TIP3    H232648   6.115   3.579   4.411  1.3355 -0.1863  0.3229
 3745TIP3   OH232649   4.191   3.220   1.932  0.4206 -0.0369  0.5617
 3745TIP3    H132650   4.206   3.142   1.880  1.2994  0.9118 -0.6626
 3745TIP3    H232651   4.254   3.284   1.899  0.3890  0.8939  2.1834
 3746TIP3   OH232652   6.544   5.931  16.224 -0.6803  0.0318 -0.0610
 3746TIP3    H132653   6.619   5.971  16.180 -0.6476 -0.5884 -0.5971
 3746TIP3    H232654   6.491   6.004  16.255 -0.0974  0.4747 -0.1035
 3747TIP3   OH232655   4.586   5.043  11.573 -0.2630 -0.2325  0.7838
 3747TIP3    H132656   4.573   5.137  11.562  1.2208  0.1991  2.2299
 3747TIP3    H232657   4.679   5.030  11.555 -0.1845 -1.2125  1.7954
 3748TIP3   OH232658   0.400   0.295  15.819  1.1110  0.1254  0.7187
 3748TIP3    H132659   0.467   0.281  15.752  0.7597 -0.9247  0.5693
 3748TIP3    H232660   0.375   0.207  15.847  0.0988  0.5108  1.0846
 3749TIP3   OH232661   5.015   6.777   1.504 -0.3079  0.3525 -0.3411
 3749TIP3    H132662   4.992   6.752   1.414  1.5646  0.5470 -0.9294
 3749TIP3    H232663   4.997   6.871   1.508 -1.2024  0.1894 -0.2080
 3750TIP3   OH232664   6.449   1.422   1.045  0.3086 -0.2628 -0.3502
 3750TIP3    H132665   6.466   1.413   1.139  0.8748  2.7669 -0.0324
 3750TIP3    H232666   6.367   1.375   1.031  1.9514 -3.8380  0.8405
 3751TIP3   OH232667   5.361   3.797   3.260  0.3600  0.2574  0.0343
 3751TIP3    H132668   5.277   3.841   3.267 -0.5164 -1.2234 -0.7223
 3751TIP3    H232669   5.367   3.771   3.168  0.4406 -1.8891  0.5942
 3752TIP3   OH232670   0.947   3.139  15.979  0.1659 -0.2185 -0.0226
 3752TIP3    H132671   0.867   3.188  16.001  1.5672  2.2792 -0.0419
 3752TIP3    H232672   1.007   3.160  16.050  1.0825 -1.3530 -0.4499
 3753TIP3   OH232673   0.106   1.598   5.590 -0.3020  0.2264  0.0373
 3753TIP3    H132674   0.078   1.680   5.631  0.4791  0.2598  0.5242
 3753TIP3    H232675   0.122   1.621   5.499  0.1042  0.6595  0.2172
 3754TIP3   OH232676   1.369   6.328   1.603  0.2728  0.3324  0.0857
 3754TIP3    H132677   1.297   6.268   1.624 -0.4148  1.0334 -0.2347
 3754TIP3    H232678   1.354   6.352   1.512  0.6887  0.8066  0.1399
 3755TIP3   OH232679   0.888   6.204  12.498  0.0752 -0.0008 -0.2651
 3755TIP3    H132680   0.919   6.210  12.589 -0.5929 -0.9100  0.0306
 3755TIP3    H232681   0.969   6.194  12.447  0.3510 -2.5634  0.5170
 3756TIP3   OH232682   5.152   2.276  10.726 -0.0675  0.0827  0.7614
 3756TIP3    H132683   5.204   2.261  10.647 -1.6145  0.7608 -0.4388
 3756TIP3    H232684   5.163   2.369  10.745 -1.6551  0.4913 -0.1566
 3757TIP3   OH232685   0.877   0.367  12.542 -0.6122  0.3782  0.0805
 3757TIP3    H132686   0.821   0.290  12.551 -1.2136  0.9073  1.0233
 3757TIP3    H232687   0.880   0.383  12.447 -0.6869 -0.6436 -0.1067
 3758TIP3   OH232688   3.919   4.044  13.844 -0.3051  0.1414 -1.0656
 3758TIP3    H132689   4.004   4.084  13.826  0.0856 -0.3238 -0.3383
 3758TIP3    H232690   3.855   4.112  13.823  0.2244  0.3992 -1.9019
 3759TIP3   OH232691   1.422   3.954  12.431 -0.1404  0.2526 -0.0697
 3759TIP3    H132692   1.369   3.880  12.399 -1.4099  0.6379  1.0090
 3759TIP3    H232693   1.509   3.939  12.395 -0.1519 -2.2026  0.7032
 3760TIP3   OH232694   2.455   5.690  16.841  0.1264  0.2238 -0.4641
 3760TIP3    H132695   2.363   5.696  16.816 -0.2113 -1.8434  0.1027
 3760TIP3    H232696   2.500   5.668  16.759 -0.2474 -1.1654 -0.3288
 3761TIP3   OH232697   2.756   1.956   2.463 -0.0353  0.4789 -0.3921
 3761TIP3    H132698   2.692   1.896   2.500  1.9172 -2.4698 -1.3919
 3761TIP3    H232699   2.793   2.001   2.539 -1.8883  0.8198  0.3553
 3762TIP3   OH232700   3.289   1.617  11.726  0.1587 -0.0106 -0.2266
 3762TIP3    H132701   3.268   1.637  11.817 -0.1541  2.5461 -0.7897
 3762TIP3    H232702   3.211   1.574  11.692  0.2658 -0.9500  0.6671
 3763TIP3   OH232703   2.377   6.181   1.731 -0.1672  0.5622  0.4383
 3763TIP3    H132704   2.472   6.180   1.716 -0.3933 -1.6085 -1.4767
 3763TIP3    H232705   2.343   6.241   1.665 -0.2238  0.1179  0.0549
 3764TIP3   OH232706   6.310   5.289   3.830 -0.2527 -0.0171 -0.4459
 3764TIP3    H132707   6.286   5.325   3.915 -0.2823 -0.7575 -0.1322
 3764TIP3    H232708   6.235   5.308   3.774 -0.8824 -0.8283  0.0892
 3765TIP3   OH232709   5.128   3.726  17.216 -0.1008 -0.4735  0.3301
 3765TIP3    H132710   5.082   3.754  17.295  0.4843  0.6875  0.2822
 3765TIP3    H232711   5.107   3.792  17.151  1.7355  0.1883  0.3583
 3766TIP3   OH232712   3.496   1.421   1.389 -0.0074 -0.4027 -0.0752
 3766TIP3    H132713   3.568   1.387   1.336 -0.7975 -0.7884 -0.9438
 3766TIP3    H232714   3.516   1.513   1.401  0.0583 -0.2344 -1.3131
 3767TIP3   OH232715   3.834   3.526   0.463  0.0303  0.0419 -0.0441
 3767TIP3    H132716   3.777   3.596   0.432 -0.5552  0.3694  1.6260
 3767TIP3    H232717   3.818   3.454   0.403 -2.3892  0.0408  0.4749
 3768TIP3   OH232718   0.898   2.021  11.946  1.3269 -0.1020 -0.0246
 3768TIP3    H132719   0.988   2.025  11.913  2.0034  0.6580  1.7963
 3768TIP3    H232720   0.901   2.064  12.031 -0.6720 -0.5294  0.3247
 3769TIP3   OH232721   0.270   2.472  11.270  1.0563  0.0652 -0.6148
 3769TIP3    H132722   0.305   2.537  11.331  1.8733 -0.6668 -0.2827
 3769TIP3    H232723   0.298   2.504  11.184  2.7371 -0.5807 -0.3461
 3770TIP3   OH232724   1.603   1.267   0.979 -0.1196  0.1900  0.0945
 3770TIP3    H132725   1.602   1.362   0.974 -0.0899  0.3095  1.9195
 3770TIP3    H232726   1.513   1.243   1.002  0.0239 -0.1865  0.2719
 3771TIP3   OH232727   2.591   3.279   4.704  0.1239 -0.3323  0.5067
 3771TIP3    H132728   2.685   3.291   4.690 -0.0975  2.3396  0.6969
 3771TIP3    H232729   2.585   3.200   4.758  2.1201 -1.3965 -0.7180
 3772TIP3   OH232730   2.107   0.641  10.985 -0.2899  0.3138  0.1134
 3772TIP3    H132731   2.037   0.680  11.037 -1.4140 -1.2930 -0.1287
 3772TIP3    H232732   2.062   0.595  10.914  1.0488 -0.1945 -0.4509
 3773TIP3   OH232733   4.860   6.400   6.111  0.3910  0.5467  0.0177
 3773TIP3    H132734   4.888   6.401   6.203  0.6349  1.5449 -0.0479
 3773TIP3    H232735   4.806   6.478   6.102 -2.3600 -1.2415  0.0896
 3774TIP3   OH232736   0.017   2.804  16.691  0.4693 -0.5360 -0.1887
 3774TIP3    H132737   0.062   2.795  16.607  0.7255  0.9316 -0.2474
 3774TIP3    H232738   0.002   2.715  16.720  0.5417 -1.0765 -1.7071
 3775TIP3   OH232739   3.076   3.453   5.764 -0.1339  0.9753  0.5236
 3775TIP3    H132740   3.059   3.405   5.845 -2.1611  3.3165  1.6201
 3775TIP3    H232741   3.055   3.544   5.786 -0.0460  1.8034 -2.4555
 3776TIP3   OH232742   2.876   0.426  11.139 -0.2977  0.4488  0.0088
 3776TIP3    H132743   2.787   0.392  11.128  0.1736 -0.5619 -0.8114
 3776TIP3    H232744   2.912   0.376  11.213 -0.1468  0.2855 -0.1731
 3777TIP3   OH232745   3.476   6.708   2.207 -0.2505  0.7516  0.6342
 3777TIP3    H132746   3.530   6.638   2.245  0.5512  1.1851  0.3327
 3777TIP3    H232747   3.532   6.747   2.139 -1.4985  0.2334 -0.7478
 3778TIP3   OH232748   2.873   6.317  11.302 -0.0479 -0.3762  0.8472
 3778TIP3    H132749   2.847   6.353  11.217  1.7046 -0.4201  0.2403
 3778TIP3    H232750   2.828   6.372  11.366 -2.8682 -1.4763 -0.0673
 3779TIP3   OH232751   1.505   6.333  10.956 -0.0348  0.0802 -0.3175
 3779TIP3    H132752   1.549   6.256  10.920  0.8835  0.4891 -0.1017
 3779TIP3    H232753   1.509   6.320  11.051  1.2556  0.9781 -0.2248
 3780TIP3   OH232754   0.292   6.758  11.785  0.5458 -0.2331  0.2449
 3780TIP3    H132755   0.367   6.749  11.728 -0.1645 -0.6710 -0.6483
 3780TIP3    H232756   0.302   6.845  11.825  0.2059  0.8343 -1.8330
 3781TIP3   OH232757   5.959   5.678  16.767  0.3326 -0.0665 -0.2033
 3781TIP3    H132758   5.896   5.667  16.837  0.4540  1.3630  0.1555
 3781TIP3    H232759   5.998   5.591  16.755 -0.4424 -0.5523  0.7647
 3782TIP3   OH232760   4.839   0.086   0.579 -0.0321  0.1129 -0.4241
 3782TIP3    H132761   4.858   0.042   0.662  0.0350 -0.5794 -0.7976
 3782TIP3    H232762   4.747   0.111   0.585  0.2277  0.9729  0.2586
 3783TIP3   OH232763   0.752   5.896  14.352  0.2702  0.3311  0.2574
 3783TIP3    H132764   0.693   5.826  14.324  1.1472  0.5051 -2.2813
 3783TIP3    H232765   0.731   5.970  14.295  1.6298  1.0116  0.5801
 3784TIP3   OH232766   3.209   3.950  14.491  0.0439  0.0860  0.0429
 3784TIP3    H132767   3.224   4.003  14.413 -0.9239 -0.5971 -0.6308
 3784TIP3    H232768   3.241   3.863  14.468 -0.7836 -0.2672  0.1857
 3785TIP3   OH232769   3.685   4.348   3.976  0.7759  0.4151  0.5332
 3785TIP3    H132770   3.688   4.253   3.959  1.0081 -0.0085  2.6587
 3785TIP3    H232771   3.720   4.387   3.896 -0.6102 -1.1971 -0.9484
 3786TIP3   OH232772   1.137   5.910   0.028 -0.3289  0.2192 -0.5079
 3786TIP3    H132773   1.214   5.920   0.084 -0.1893 -0.0936 -0.6435
 3786TIP3    H232774   1.161   5.841  -0.034 -0.0668  1.3169 -1.6752
 3787TIP3   OH232775   3.772   5.478  12.884 -0.0437 -0.4626  0.1739
 3787TIP3    H132776   3.690   5.520  12.908 -0.3069 -0.2600 -1.0607
 3787TIP3    H232777   3.837   5.548  12.886 -0.3411 -0.1350 -1.1314
 3788TIP3   OH232778   6.506   4.529   3.677  0.5130 -0.4729 -0.1434
 3788TIP3    H132779   6.599   4.549   3.689  0.0329  1.5541  0.5425
 3788TIP3    H232780   6.502   4.484   3.592  1.9621  0.6307 -0.8342
 3789TIP3   OH232781   0.977   2.160   1.815 -0.1853  0.2352  0.1458
 3789TIP3    H132782   1.010   2.080   1.855 -1.1312  0.3929  1.2892
 3789TIP3    H232783   0.954   2.216   1.889  0.7447  1.7002 -0.6346
 3790TIP3   OH232784   1.663   6.478   2.276 -0.1151 -0.5946  0.4772
 3790TIP3    H132785   1.705   6.393   2.270 -1.3023 -1.6184  4.1082
 3790TIP3    H232786   1.707   6.521   2.350 -0.1713  1.5986 -0.6819
 3791TIP3   OH232787   4.700   6.308   3.876  0.5741  0.3527 -0.2550
 3791TIP3    H132788   4.675   6.239   3.937 -0.5616 -0.5777 -1.7061
 3791TIP3    H232789   4.701   6.266   3.790  1.2242  1.8221 -1.0148
 3792TIP3   OH232790   0.817   1.162   3.882  0.6350 -0.2473 -0.0637
 3792TIP3    H132791   0.897   1.213   3.875 -0.6129  1.7463 -0.7000
 3792TIP3    H232792   0.765   1.208   3.949 -1.0718  0.1761 -1.5886
 3793TIP3   OH232793   1.378   5.977   4.541  0.2911 -0.3064 -0.5511
 3793TIP3    H132794   1.444   6.030   4.585  0.3927 -1.3970  0.6731
 3793TIP3    H232795   1.390   5.996   4.448 -0.1100  2.2875 -0.1619
 3794TIP3   OH232796   0.275   6.358   1.538  0.0234 -0.0802  0.1302
 3794TIP3    H132797   0.344   6.309   1.583  1.3074  0.4649 -1.1718
 3794TIP3    H232798   0.304   6.449   1.540 -0.7485  0.1854 -0.2760
 3795TIP3   OH232799   3.802   1.748   5.227  0.7666  0.0065  0.1941
 3795TIP3    H132800   3.868   1.698   5.179 -0.7172 -1.3431 -0.5466
 3795TIP3    H232801   3.755   1.682   5.278 -0.0811  0.9227  0.6174
 3796TIP3   OH232802   0.028   1.033   3.123 -0.5565 -0.0264  0.5545
 3796TIP3    H132803   0.041   0.954   3.176  2.7040 -2.1421 -2.9355
 3796TIP3    H232804   0.082   1.100   3.165  0.3268 -1.0478  1.0918
 3797TIP3   OH232805   0.394   0.268   3.998  0.4927 -0.1332 -0.0078
 3797TIP3    H132806   0.442   0.312   3.927 -0.7936 -0.1751 -0.9255
 3797TIP3    H232807   0.443   0.187   4.013  0.7324 -0.1669 -0.9126
 3798TIP3   OH232808   0.912   5.777   5.128  0.4492  0.3599 -0.4816
 3798TIP3    H132809   0.870   5.805   5.046  1.7046  1.4590 -0.7820
 3798TIP3    H232810   0.839   5.754   5.186 -0.4760  0.0691 -1.7246
 3799TIP3   OH232811   4.103   1.128  11.359  0.0333 -0.4722  0.4721
 3799TIP3    H132812   4.114   1.057  11.421 -1.6482 -0.8614  0.3828
 3799TIP3    H232813   4.132   1.206  11.406  0.9698 -1.0660  0.9060
 3800TIP3   OH232814   5.353   4.515  11.074 -0.9412 -0.4268 -0.3337
 3800TIP3    H132815   5.381   4.466  10.997 -1.1555  0.7744 -1.1868
 3800TIP3    H232816   5.397   4.600  11.067  0.6487 -0.9596  1.9107
 3801TIP3   OH232817   0.435   3.373   1.883 -0.5852 -0.6544 -0.3716
 3801TIP3    H132818   0.412   3.290   1.841 -1.1805 -1.3820  1.3260
 3801TIP3    H232819   0.353   3.421   1.889 -0.8846 -1.3503  1.6105
 3802TIP3   OH232820   3.132   0.148  15.677  0.1004 -0.1759  0.1698
 3802TIP3    H132821   3.090   0.191  15.603 -0.3146  0.2408  0.6364
 3802TIP3    H232822   3.216   0.192  15.686 -1.0246  1.7998  1.7288
 3803TIP3   OH232823   5.398   3.803  12.602  0.2687  0.2007 -0.4384
 3803TIP3    H132824   5.487   3.769  12.593  0.0196 -0.1762 -1.6470
 3803TIP3    H232825   5.347   3.754  12.537 -1.2984 -1.1867  1.6963
 3804TIP3   OH232826   4.960   3.243   5.033 -0.2160  0.0947  0.1291
 3804TIP3    H132827   4.906   3.165   5.044  0.8143 -0.6578 -0.0171
 3804TIP3    H232828   5.050   3.210   5.027  0.0095  0.8685 -3.8879
 3805TIP3   OH232829   6.125   0.881   4.319 -0.4085  0.4975  0.3425
 3805TIP3    H132830   6.194   0.854   4.381 -0.4949 -0.0050  0.2280
 3805TIP3    H232831   6.086   0.798   4.290 -0.4128  0.7345 -0.3379
 3806TIP3   OH232832   5.623   1.587   3.001 -0.1289 -0.2555  0.4493
 3806TIP3    H132833   5.544   1.595   3.055 -0.9605 -0.3856 -0.7137
 3806TIP3    H232834   5.597   1.530   2.929  0.9300 -0.0065 -0.1508
 3807TIP3   OH232835   0.297   6.164   0.775 -0.4838  0.1375  0.3599
 3807TIP3    H132836   0.382   6.201   0.750  1.1424 -1.8745  2.4817
 3807TIP3    H232837   0.238   6.190   0.704  1.5091  2.8766 -0.4664
 3808TIP3   OH232838   3.159   4.533   2.231  0.2585  0.4576  0.2560
 3808TIP3    H132839   3.151   4.606   2.292 -1.4383  0.4278  0.1155
 3808TIP3    H232840   3.192   4.460   2.284  0.1591  0.8115  0.8067
 3809TIP3   OH232841   3.784   3.710   4.560 -0.6795  0.1752  0.5668
 3809TIP3    H132842   3.796   3.801   4.533 -1.5875 -0.2668 -1.5497
 3809TIP3    H232843   3.851   3.695   4.626  1.2424  1.6159 -0.9646
 3810TIP3   OH232844   2.904   6.023  13.372  0.2027 -0.3555  0.1932
 3810TIP3    H132845   2.851   5.943  13.375 -1.9434  0.9993  1.1122
 3810TIP3    H232846   2.985   6.000  13.417  0.3861 -2.4715 -1.0767
 3811TIP3   OH232847   3.302   3.190  15.182 -0.1237 -0.1502  0.3230
 3811TIP3    H132848   3.325   3.170  15.273  1.0099 -0.1584  0.0469
 3811TIP3    H232849   3.348   3.124  15.131  1.7350  1.6311 -0.4468
 3812TIP3   OH232850   0.222   1.324   0.014 -0.2812  0.0183 -0.2530
 3812TIP3    H132851   0.231   1.252  -0.048  1.5098  0.5262 -0.6244
 3812TIP3    H232852   0.267   1.397  -0.027  2.3866 -0.0406  2.2260
 3813TIP3   OH232853   5.415   6.357   1.403  0.6938  0.0955 -0.2206
 3813TIP3    H132854   5.456   6.271   1.402  2.3540  0.8154  0.8203
 3813TIP3    H232855   5.433   6.394   1.317 -0.0329 -0.5799 -0.6741
 3814TIP3   OH232856   2.375   1.893   0.315 -0.2915  0.4753  0.2220
 3814TIP3    H132857   2.443   1.826   0.309  1.0153  1.7435 -0.0220
 3814TIP3    H232858   2.424   1.975   0.324 -1.7910  1.5003 -0.4948
 3815TIP3   OH232859   3.619   5.423   0.749 -0.4447  0.3976 -0.2166
 3815TIP3    H132860   3.624   5.385   0.837  0.6706 -0.1845 -0.5099
 3815TIP3    H232861   3.584   5.511   0.763  3.5068  1.9630  1.3966
 3816TIP3   OH232862   6.226   2.148  11.902 -0.0683  0.4538 -0.0303
 3816TIP3    H132863   6.167   2.198  11.846 -0.2354  0.1670 -0.1090
 3816TIP3    H232864   6.173   2.123  11.977 -0.3076 -0.5923 -0.5326
 3817TIP3   OH232865   6.366   4.047   5.194  0.0509 -0.5727 -0.3789
 3817TIP3    H132866   6.347   3.970   5.140  1.5641 -0.0384 -1.7906
 3817TIP3    H232867   6.461   4.059   5.185 -0.2749  2.0811 -1.1340
 3818TIP3   OH232868   2.551   2.593   4.321  0.0493 -0.1034 -0.5873
 3818TIP3    H132869   2.526   2.678   4.358 -1.1287 -0.1157 -1.3216
 3818TIP3    H232870   2.639   2.608   4.286 -0.0694  0.7645 -0.5407
 3819TIP3   OH232871   6.482   5.407  16.440 -0.4647 -0.1971  0.0433
 3819TIP3    H132872   6.488   5.351  16.517 -1.0010 -0.8069 -0.3492
 3819TIP3    H232873   6.551   5.473  16.453  0.0646 -0.8367  0.5931
 3820TIP3   OH232874   2.481   6.739  13.725 -0.4544  0.1321  0.2076
 3820TIP3    H132875   2.482   6.701  13.637 -0.1630 -0.9502  0.6562
 3820TIP3    H232876   2.390   6.767  13.739 -0.2210  1.5394 -0.9226
 3821TIP3   OH232877   1.391   4.682   5.284  0.1570 -0.0216 -0.2793
 3821TIP3    H132878   1.483   4.658   5.295  0.2066  0.5293  0.6373
 3821TIP3    H232879   1.382   4.763   5.334 -0.4428  0.8470 -1.7484
 3822TIP3   OH232880   4.113   2.181  13.383 -0.1604  0.2419  0.3127
 3822TIP3    H132881   4.086   2.101  13.429 -0.1572 -2.5300 -3.9205
 3822TIP3    H232882   4.208   2.183  13.392 -0.1637 -0.2083  0.4902
 3823TIP3   OH232883   3.341   0.661  13.004  0.2463 -0.7819 -0.1730
 3823TIP3    H132884   3.428   0.673  12.965  1.1449 -2.3470  1.2180
 3823TIP3    H232885   3.353   0.678  13.097 -0.4892 -2.8313  0.3417
 3824TIP3   OH232886   4.402   6.066   6.499 -0.4500  0.5276 -0.4897
 3824TIP3    H132887   4.468   6.077   6.431 -0.4661 -0.0409 -0.5941
 3824TIP3    H232888   4.396   5.972   6.514  0.3719  0.6913  1.0957
 3825TIP3   OH232889   2.757   5.490  15.430  0.2687 -0.2315 -0.1555
 3825TIP3    H132890   2.777   5.400  15.405  1.0500 -0.3053  0.6667
 3825TIP3    H232891   2.805   5.503  15.513 -0.2679  0.7590  0.0153
 3826TIP3   OH232892   4.864   6.116  13.022  0.0394  0.8730 -0.1475
 3826TIP3    H132893   4.808   6.177  13.070 -0.9346  0.3681 -0.6184
 3826TIP3    H232894   4.885   6.160  12.940  0.1284  0.9534 -0.0824
 3827TIP3   OH232895   1.964   6.682   4.202 -0.0007 -0.2629  0.0722
 3827TIP3    H132896   1.917   6.708   4.282  0.0767 -0.9393  0.3460
 3827TIP3    H232897   2.040   6.634   4.234 -0.6465 -1.6523 -0.4248
 3828TIP3   OH232898   6.162   0.370   2.103 -0.6025 -0.8589 -0.1365
 3828TIP3    H132899   6.192   0.403   2.018  0.9047  0.7620  0.9588
 3828TIP3    H232900   6.161   0.275   2.092  1.5647 -0.8032 -1.3705
 3829TIP3   OH232901   1.741   1.136   4.818  0.2540  0.1089 -0.1671
 3829TIP3    H132902   1.648   1.156   4.811  0.0543 -0.9227 -0.5789
 3829TIP3    H232903   1.751   1.093   4.903  0.2980 -0.0836 -0.2687
 3830TIP3   OH232904   1.023   2.131  12.601 -0.1397 -0.3952 -0.0791
 3830TIP3    H132905   0.946   2.076  12.587  0.6002 -1.3401 -0.5145
 3830TIP3    H232906   1.091   2.071  12.630  0.8171  0.2040 -0.9983
 3831TIP3   OH232907   5.157   1.663  11.289  0.2299  0.6433  0.6467
 3831TIP3    H132908   5.197   1.651  11.375  1.0625 -1.1661  0.0643
 3831TIP3    H232909   5.231   1.669  11.229 -0.3428  1.7565  0.0316
 3832TIP3   OH232910   0.381   6.343   2.902  0.2594 -0.0417  0.2931
 3832TIP3    H132911   0.291   6.345   2.870  0.2340  0.2461  0.3739
 3832TIP3    H232912   0.391   6.425   2.950  0.6861  0.1199 -0.0577
 3833TIP3   OH232913   5.593   5.789  13.840 -0.8109 -0.3471  0.1332
 3833TIP3    H132914   5.566   5.866  13.891 -0.4132  1.6883 -2.4992
 3833TIP3    H232915   5.686   5.802  13.825 -1.1309 -0.2326 -2.0137
 3834TIP3   OH232916   3.300   3.816   3.183 -0.1010  0.2738  0.2278
 3834TIP3    H132917   3.323   3.754   3.113  2.7043 -1.1493  2.2010
 3834TIP3    H232918   3.223   3.777   3.225 -0.2560 -0.2181 -0.4824
 3835TIP3   OH232919   3.027   3.412   4.415  0.0956  0.4756  0.8578
 3835TIP3    H132920   3.117   3.380   4.399 -0.5342 -0.0307 -2.4763
 3835TIP3    H232921   3.039   3.500   4.450  1.8774 -0.0135  1.6227
 3836TIP3   OH232922   1.772   6.459  13.731 -0.3209 -0.3196  0.1047
 3836TIP3    H132923   1.851   6.405  13.722 -1.7568 -2.6192  0.3605
 3836TIP3    H232924   1.716   6.431  13.659 -0.8390  1.4289 -0.2007
 3837TIP3   OH232925   6.645   6.707  14.213 -0.7356 -0.5814  0.0487
 3837TIP3    H132926   6.592   6.712  14.133  0.9996 -0.0752 -1.1543
 3837TIP3    H232927   6.697   6.627  14.202 -0.1736 -0.2786  0.4555
 3838TIP3   OH232928   0.844   0.216  11.466 -0.1270  0.3056  0.7308
 3838TIP3    H132929   0.921   0.189  11.416 -0.5404 -0.1289  0.3203
 3838TIP3    H232930   0.771   0.198  11.407 -0.4471  2.0031  0.5624
 3839TIP3   OH232931   1.869   1.737   2.970  0.1926 -0.0691  0.1470
 3839TIP3    H132932   1.792   1.767   2.922 -0.1770 -0.4549  0.4803
 3839TIP3    H232933   1.940   1.793   2.940 -0.6974  2.0038  1.6552
 3840TIP3   OH232934   4.671   6.649   2.432 -0.0108  0.6351 -0.0705
 3840TIP3    H132935   4.737   6.597   2.478 -0.8841  0.2780  0.8045
 3840TIP3    H232936   4.689   6.633   2.339  1.1949  0.6325  0.1548
 3841TIP3   OH232937   1.162   5.312   0.945  0.2176  0.2504 -0.1354
 3841TIP3    H132938   1.231   5.352   0.892  0.6977 -0.0926  0.2187
 3841TIP3    H232939   1.132   5.239   0.891  0.6477 -0.0472  0.0182
 3842TIP3   OH232940   1.996   6.780   1.239  0.0901 -0.0801  0.4285
 3842TIP3    H132941   2.046   6.818   1.167 -1.2248  2.2029  0.6374
 3842TIP3    H232942   1.905   6.804   1.222 -0.8019 -2.6977  0.9370
 3843TIP3   OH232943   2.967   0.444   3.389  0.6150  0.4061  0.5820
 3843TIP3    H132944   3.025   0.473   3.319  0.7897  0.2868  0.6783
 3843TIP3    H232945   2.881   0.477   3.364  0.5579 -0.1843 -0.0153
 3844TIP3   OH232946   0.733   4.953  13.529  0.6517 -0.4323  0.0560
 3844TIP3    H132947   0.823   4.927  13.512  0.7128 -0.7842  0.8548
 3844TIP3    H232948   0.705   4.998  13.449  1.0646 -1.5727 -0.7461
 3845TIP3   OH232949   4.192   2.025   2.517 -0.4005 -0.2038 -0.0566
 3845TIP3    H132950   4.149   1.995   2.437 -0.8922 -1.3498  0.6232
 3845TIP3    H232951   4.157   2.113   2.531 -0.5080 -0.0961 -0.9498
 3846TIP3   OH232952   2.121   2.412  10.708 -0.5756 -0.1234 -0.3396
 3846TIP3    H132953   2.101   2.457  10.790 -1.8379 -0.4798 -0.4217
 3846TIP3    H232954   2.150   2.325  10.735  1.1564  0.4654 -0.2097
 3847TIP3   OH232955   1.663   2.087  11.153 -0.8576  0.1894  0.4057
 3847TIP3    H132956   1.716   2.071  11.075  0.2301 -0.2063  1.2010
 3847TIP3    H232957   1.649   2.182  11.153  1.5569  0.6144  1.2022
 3848TIP3   OH232958   3.313   5.303   1.004 -0.0377 -0.3059 -0.4670
 3848TIP3    H132959   3.257   5.227   1.020  2.3612 -2.1463 -0.2314
 3848TIP3    H232960   3.338   5.296   0.912  1.4304 -0.7471 -0.0627
 3849TIP3   OH232961   6.057   6.464  15.065 -0.2421  0.0852 -0.3109
 3849TIP3    H132962   5.975   6.493  15.024 -1.7976 -1.5060  1.4470
 3849TIP3    H232963   6.107   6.424  14.994 -1.0855  0.9193 -1.3948
 3850TIP3   OH232964   6.439   1.003  12.187 -0.1422 -0.3258 -0.2253
 3850TIP3    H132965   6.441   0.990  12.093 -0.8777 -0.3314 -0.2498
 3850TIP3    H232966   6.470   0.920  12.224  0.5716 -0.1719 -0.4596
 3851TIP3   OH232967   5.929   5.889  14.797 -0.1874  0.0983 -0.1581
 3851TIP3    H132968   5.960   5.944  14.870  0.9445  0.4925 -0.9106
 3851TIP3    H232969   5.916   5.950  14.725 -1.9856 -0.1868 -0.1250
 3852TIP3   OH232970   1.337   0.460   3.016  0.4039 -0.0960 -0.3414
 3852TIP3    H132971   1.326   0.366   2.999 -1.3810 -0.9028  3.9030
 3852TIP3    H232972   1.421   0.466   3.061 -0.3509 -0.0597  1.1255
 3853TIP3   OH232973   0.839   1.479   2.631 -0.5568  0.3639  0.1638
 3853TIP3    H132974   0.826   1.451   2.540 -0.6593 -2.6689  1.0201
 3853TIP3    H232975   0.827   1.574   2.628  0.2404  0.4848 -3.1052
 3854TIP3   OH232976   2.411   4.284   5.324 -0.1121  0.2653  0.5079
 3854TIP3    H132977   2.319   4.307   5.330 -0.2747 -0.1588 -0.2197
 3854TIP3    H232978   2.443   4.287   5.415 -0.6093  1.2972  0.6600
 3855TIP3   OH232979   4.868   2.651  11.692  0.2100  0.4886  0.3134
 3855TIP3    H132980   4.856   2.557  11.698  1.2200  0.3516  0.3042
 3855TIP3    H232981   4.803   2.688  11.752  0.9845 -0.2851  1.6793
 3856TIP3   OH232982   5.150   3.907  13.022 -0.1545  0.0352 -0.0607
 3856TIP3    H132983   5.120   3.973  12.959  0.5734  0.3694 -0.0717
 3856TIP3    H232984   5.215   3.953  13.076  0.4479 -0.6947 -0.1463
 3857TIP3   OH232985   4.247   1.774  13.671 -0.2371  0.0589  0.0009
 3857TIP3    H132986   4.260   1.833  13.745  1.4163 -3.6851  3.0855
 3857TIP3    H232987   4.165   1.728  13.691  0.0232 -0.7251 -0.6651
 3858TIP3   OH232988   1.219   1.241   2.961 -0.0937  0.3983 -0.1784
 3858TIP3    H132989   1.177   1.156   2.975 -0.5238  0.9201  2.0383
 3858TIP3    H232990   1.161   1.304   3.002  0.3024  1.7951 -1.6312
 3859TIP3   OH232991   5.974   1.596  10.810  0.4590 -0.3361 -0.9848
 3859TIP3    H132992   6.060   1.557  10.794  0.0001 -1.6168 -0.3605
 3859TIP3    H232993   5.982   1.640  10.895  0.0075 -1.9439 -0.0828
 3860TIP3   OH232994   1.752   1.479   4.372 -0.4526  0.1362  0.5524
 3860TIP3    H132995   1.744   1.506   4.464  0.3954  1.6257  0.2119
 3860TIP3    H232996   1.846   1.473   4.357 -0.5942 -1.5019  0.1394
 3861TIP3   OH232997   6.784   5.367  15.896 -0.4253  0.4542  0.0452
 3861TIP3    H132998   6.775   5.272  15.887 -2.8905  0.8446 -3.5133
 3861TIP3    H232999   6.711   5.393  15.953  0.3213  0.2708  1.1186
 3862TIP3   OH233000   6.024   4.219   0.536  0.3752 -0.2035 -0.3803
 3862TIP3    H133001   6.079   4.295   0.556  0.1147 -0.4482  1.4832
 3862TIP3    H233002   6.085   4.146   0.526  0.4781 -0.2137  0.3047
 3863TIP3   OH233003   5.110   5.092  14.655 -0.2148 -0.2772  0.2276
 3863TIP3    H133004   5.044   5.089  14.585 -0.5004 -0.5249  0.5020
 3863TIP3    H233005   5.121   5.185  14.673  0.7833 -0.1316 -1.0073
 3864TIP3   OH233006   5.703   2.153  12.148  0.3646 -0.0701  0.0398
 3864TIP3    H133007   5.654   2.109  12.079  0.3930 -0.2767  0.1498
 3864TIP3    H233008   5.791   2.163  12.113  0.5234 -0.6655  0.2506
 3865TIP3   OH233009   0.474   0.558   6.337  0.0560  0.0915  0.1190
 3865TIP3    H133010   0.530   0.561   6.415  3.0086  1.0549 -1.8462
 3865TIP3    H233011   0.462   0.649   6.313 -0.3643 -0.2091 -0.8485
 3866TIP3   OH233012   6.735   3.902   0.073  0.2224 -0.3635 -0.1082
 3866TIP3    H133013   6.682   3.823   0.060 -0.4822 -0.0290  0.6266
 3866TIP3    H233014   6.799   3.900   0.002  0.2941 -1.6585 -0.0449
 3867TIP3   OH233015   4.233   1.390  15.816  0.6996 -0.4348  0.4577
 3867TIP3    H133016   4.277   1.446  15.880 -0.4626  1.1657 -0.0781
 3867TIP3    H233017   4.152   1.364  15.859 -0.2016  0.8429 -0.3714
 3868TIP3   OH233018   1.029   4.340  12.337 -0.5952 -0.1647 -0.1639
 3868TIP3    H133019   0.970   4.414  12.347 -0.6150 -0.4533  2.4829
 3868TIP3    H233020   1.111   4.369  12.379  0.3079 -0.7118 -1.4714
 3869TIP3   OH233021   0.626   4.097   5.353  0.0400 -0.8012  0.2362
 3869TIP3    H133022   0.676   4.163   5.401  1.2166 -0.6316 -1.1768
 3869TIP3    H233023   0.653   4.108   5.262 -1.9864 -1.2413 -0.4676
 3870TIP3   OH233024   1.402   2.023  12.526 -0.2189  0.1594 -0.1917
 3870TIP3    H133025   1.402   1.947  12.468  2.4458 -0.1556  0.0632
 3870TIP3    H233026   1.428   1.988  12.611  1.7858  1.3783 -0.2308
 3871TIP3   OH233027   0.763   6.163   1.918 -0.9094  0.0426 -0.1038
 3871TIP3    H133028   0.674   6.130   1.913 -0.7979 -0.8595  2.5985
 3871TIP3    H233029   0.818   6.085   1.918 -0.0422  0.5941 -1.9867
 3872TIP3   OH233030   4.059   4.991   5.909  0.4697  0.1516  0.0102
 3872TIP3    H133031   4.120   5.064   5.910  0.9095 -0.1635  2.0396
 3872TIP3    H233032   4.032   4.981   6.001 -1.5255 -0.6429 -0.5976
 3873TIP3   OH233033   5.529   3.332  11.097  0.0353 -0.2149 -0.6073
 3873TIP3    H133034   5.616   3.370  11.095 -1.2767  3.1060 -1.3780
 3873TIP3    H233035   5.505   3.322  11.005 -0.6848 -0.3100 -0.4158
 3874TIP3   OH233036   4.712   5.154  16.911 -0.4313  0.1208  0.8851
 3874TIP3    H133037   4.665   5.093  16.968 -1.2519  0.9230  1.0951
 3874TIP3    H233038   4.753   5.217  16.970 -0.1295  0.1426  0.6520
 3875TIP3   OH233039   2.830   2.150   0.684  0.1915 -0.4326  1.4337
 3875TIP3    H133040   2.866   2.200   0.610  1.8198 -0.8097  1.9410
 3875TIP3    H233041   2.793   2.217   0.742 -0.6046 -0.0911  0.5726
 3876TIP3   OH233042   0.296   3.713  16.953 -0.2731 -0.1059 -0.1451
 3876TIP3    H133043   0.296   3.715  16.857 -0.2857 -1.0074 -0.1769
 3876TIP3    H233044   0.249   3.632  16.974  1.2942 -0.8527  0.5926
 3877TIP3   OH233045   4.986   3.817  12.225 -0.0961 -0.3930 -0.6416
 3877TIP3    H133046   5.035   3.897  12.242  0.7456 -1.1129  0.4112
 3877TIP3    H233047   4.941   3.799  12.307  0.6919 -1.6519 -0.4643
 3878TIP3   OH233048   2.241   6.685  14.072  0.0215 -0.3127  0.2412
 3878TIP3    H133049   2.174   6.735  14.119  0.7636  0.9561 -0.0223
 3878TIP3    H233050   2.308   6.749  14.050  1.1816 -1.4982  0.2045
 3879TIP3   OH233051   3.966   6.208  11.818  0.3759  0.1065 -0.4650
 3879TIP3    H133052   3.923   6.232  11.737  1.0119  1.6949 -0.3550
 3879TIP3    H233053   4.058   6.198  11.795  0.3021 -1.2182 -0.2789
 3880TIP3   OH233054   3.492   4.056  14.622  0.2503  0.2758 -0.3301
 3880TIP3    H133055   3.503   4.003  14.702 -1.5501 -1.8857 -1.3850
 3880TIP3    H233056   3.459   3.994  14.557  0.5654  2.2090 -2.4614
 3881TIP3   OH233057   2.198   5.293  15.403 -0.2967 -0.6781  0.3072
 3881TIP3    H133058   2.292   5.312  15.404 -0.6043  1.1489 -1.1535
 3881TIP3    H233059   2.156   5.379  15.404 -1.9785 -1.4663  0.8665
 3882TIP3   OH233060   3.062   4.191  16.153  0.0091  0.0760 -0.0680
 3882TIP3    H133061   2.979   4.208  16.108  0.1024  0.0203 -0.2629
 3882TIP3    H233062   3.038   4.143  16.232 -0.0744 -0.6696 -0.5316
 3883TIP3   OH233063   0.011   5.478   4.950 -0.3160  0.1612  0.5793
 3883TIP3    H133064  -0.039   5.506   5.026 -0.5774  1.5863 -0.0702
 3883TIP3    H233065  -0.049   5.490   4.876  1.2125  3.0292 -0.3707
 3884TIP3   OH233066   0.393   1.644  14.528 -0.0635  0.0382 -0.4807
 3884TIP3    H133067   0.441   1.726  14.542 -0.2270 -0.1363  1.3602
 3884TIP3    H233068   0.301   1.668  14.539 -0.1249 -0.3385 -0.1626
 3885TIP3   OH233069   5.890   2.239  11.068 -0.1243  0.1491  0.5805
 3885TIP3    H133070   5.922   2.165  11.016  0.1836  0.7108 -0.0314
 3885TIP3    H233071   5.809   2.267  11.024 -0.6539 -0.2927  1.2472
 3886TIP3   OH233072   5.204   6.524  12.136 -0.0205 -0.0868 -0.3495
 3886TIP3    H133073   5.138   6.499  12.072  1.2486 -0.5917 -1.5010
 3886TIP3    H233074   5.248   6.600  12.098 -1.0724  1.3773  1.2202
 3887TIP3   OH233075   5.600   5.037   3.944 -0.1504 -0.1079 -0.8481
 3887TIP3    H133076   5.615   4.949   3.977 -0.8920 -0.0857 -0.4290
 3887TIP3    H233077   5.687   5.070   3.922  0.4823  0.0952  1.6603
 3888TIP3   OH233078   4.305   3.552   5.581  0.3319  0.2655  0.2227
 3888TIP3    H133079   4.285   3.620   5.646 -0.5002 -0.2285  0.5012
 3888TIP3    H233080   4.234   3.558   5.517 -0.8533 -1.5802  1.2729
 3889TIP3   OH233081   0.868   6.206  12.782  0.2823  0.1559  0.2311
 3889TIP3    H133082   0.783   6.184  12.820 -0.4679 -0.5277 -1.6659
 3889TIP3    H233083   0.895   6.285  12.828 -1.2094  0.1891  1.1442
 3890TIP3   OH233084   5.592   4.477   1.626 -0.2046 -0.4353  0.1270
 3890TIP3    H133085   5.550   4.535   1.563 -0.3819  1.7027  2.0636
 3890TIP3    H233086   5.666   4.439   1.579 -1.1910 -0.1262 -1.7649
 3891TIP3   OH233087   2.972   2.569  12.775 -0.5200  0.7728  0.5694
 3891TIP3    H133088   3.065   2.559  12.755 -0.9970 -1.8463 -0.8902
 3891TIP3    H233089   2.964   2.656  12.812  2.5686  0.9222  1.1169
 3892TIP3   OH233090   4.813   2.602  14.172  0.2105 -0.0592  0.3711
 3892TIP3    H133091   4.879   2.612  14.104 -0.9541  1.8012 -0.5739
 3892TIP3    H233092   4.860   2.615  14.254  0.8587  2.4275 -0.3336
 3893TIP3   OH233093   2.505   2.549   4.969  0.3815 -0.9505  0.1042
 3893TIP3    H133094   2.423   2.504   4.949  1.4174 -2.1651 -1.6384
 3893TIP3    H233095   2.498   2.632   4.921 -1.1595  0.5088  2.6293
 3894TIP3   OH233096   1.794   1.277  14.160 -0.3275 -0.0435  0.5031
 3894TIP3    H133097   1.743   1.214  14.109  1.0255 -1.2406  0.5960
 3894TIP3    H233098   1.861   1.308  14.099 -1.0404  1.4378  0.4208
 3895TIP3   OH233099   2.881   2.864   0.072  0.2124  0.6231  0.3102
 3895TIP3    H133100   2.954   2.828   0.122  1.4194  0.0430 -1.7354
 3895TIP3    H233101   2.918   2.939   0.025 -0.1715 -0.2713 -1.5256
 3896TIP3   OH233102   2.074   0.805   0.986 -0.1794 -0.5278  0.1991
 3896TIP3    H133103   2.120   0.880   1.024  1.9818 -2.2647  1.2216
 3896TIP3    H233104   2.139   0.761   0.931 -2.0658 -0.4266 -2.3416
 3897TIP3   OH233105   5.454   2.810   3.537 -0.2636  0.1120 -0.1872
 3897TIP3    H133106   5.511   2.840   3.608 -0.7337  0.0799  0.2158
 3897TIP3    H233107   5.451   2.884   3.476 -1.9144  1.1899  1.1153
 3898TIP3   OH233108   6.686   0.500   5.474  0.4483 -0.0751 -0.0844
 3898TIP3    H133109   6.690   0.580   5.422  0.8489 -0.4698 -0.6757
 3898TIP3    H233110   6.735   0.435   5.422  1.2259 -0.3673  0.9821
 3899TIP3   OH233111   5.439   5.999  13.161 -0.5202  0.9737  0.3054
 3899TIP3    H133112   5.521   5.984  13.209 -1.2610  0.4206  1.4584
 3899TIP3    H233113   5.460   6.068  13.098  0.5486  1.6397  1.3465
 3900TIP3   OH233114   5.828   5.734  16.017  0.3093 -0.3601  0.0800
 3900TIP3    H133115   5.813   5.756  16.109  1.2803  0.6250  0.0391
 3900TIP3    H233116   5.913   5.774  15.997  0.5359 -1.3297 -1.0024
 3901TIP3   OH233117   4.348   3.062  16.899 -0.2753 -0.0146  0.1528
 3901TIP3    H133118   4.334   2.968  16.899  1.2902 -0.2938  1.2944
 3901TIP3    H233119   4.282   3.097  16.958 -2.5734 -0.0273 -2.2479
 3902TIP3   OH233120   4.515   3.514   2.200 -0.4769 -0.1419  0.2993
 3902TIP3    H133121   4.448   3.449   2.177  0.1782 -0.8012  0.2248
 3902TIP3    H233122   4.479   3.559   2.276 -1.5933  0.4158 -0.5328
 3903TIP3   OH233123   4.365   2.390  11.755  0.2239  0.5345 -0.0061
 3903TIP3    H133124   4.403   2.314  11.800  2.4810  2.3277  1.3842
 3903TIP3    H233125   4.351   2.455  11.825 -1.2643  1.5440 -1.1899
 3904TIP3   OH233126   3.780   1.913   4.627  0.2869 -0.3764  0.1345
 3904TIP3    H133127   3.833   1.942   4.553  1.6323  0.1477  1.2529
 3904TIP3    H233128   3.773   1.990   4.683 -2.0606 -0.3042 -0.1463
 3905TIP3   OH233129   5.503   0.890  15.335 -0.1621  0.7044 -0.0507
 3905TIP3    H133130   5.424   0.884  15.389 -0.1663  2.3592  0.2024
 3905TIP3    H233131   5.533   0.981  15.348  0.3237  0.8853 -2.1606
 3906TIP3   OH233132   5.261   2.672  15.681  0.3175 -0.4729  0.0591
 3906TIP3    H133133   5.266   2.762  15.649 -0.5914 -0.2185  0.5800
 3906TIP3    H233134   5.330   2.666  15.747 -0.6206  0.3448  1.1574
 3907TIP3   OH233135   2.107   2.537   2.647  0.9562 -0.1633 -0.0207
 3907TIP3    H133136   2.156   2.480   2.587 -0.0377  0.4531 -1.4715
 3907TIP3    H233137   2.159   2.617   2.652  1.5729 -0.5967  0.8071
 3908TIP3   OH233138   1.017   3.711  14.600 -0.1763 -0.2339  0.4293
 3908TIP3    H133139   1.103   3.674  14.580  0.3358  2.1958 -2.5827
 3908TIP3    H233140   0.955   3.640  14.583  1.0118 -0.9426 -1.1958
 3909TIP3   OH233141   1.855   5.483   6.018  0.1356 -0.7841  0.7157
 3909TIP3    H133142   1.870   5.564   5.968 -1.5283 -0.9673 -0.1634
 3909TIP3    H233143   1.942   5.447   6.031  0.6865 -1.1636 -2.8898
 3910TIP3   OH233144   1.775   4.964   3.559  0.9403 -0.3848  0.3240
 3910TIP3    H133145   1.764   5.029   3.629  0.7077  0.5175 -0.5235
 3910TIP3    H233146   1.783   5.016   3.479 -0.2986 -1.4217 -0.5254
 3911TIP3   OH233147   6.670   3.449  16.912  0.2091 -0.3685  0.2592
 3911TIP3    H133148   6.627   3.434  16.828  0.9087 -2.2785  0.1896
 3911TIP3    H233149   6.621   3.397  16.974  1.2859 -1.1292  0.5098
 3912TIP3   OH233150   3.515   4.020  16.041  0.0554  0.1746 -0.3938
 3912TIP3    H133151   3.485   3.930  16.044  0.5342  0.0165  1.4446
 3912TIP3    H233152   3.509   4.045  15.949  0.2091 -1.8198 -0.9959
 3913TIP3   OH233153   4.116   2.741  15.674  0.1268  0.2323  0.0743
 3913TIP3    H133154   4.057   2.686  15.725 -0.6995 -0.3190 -1.4289
 3913TIP3    H233155   4.066   2.821  15.658  0.9068  0.9959  1.2836
 3914TIP3   OH233156   1.265   2.925   5.681  0.0222 -0.9104  0.0363
 3914TIP3    H133157   1.305   3.011   5.673 -0.6606 -0.4655  1.2259
 3914TIP3    H233158   1.280   2.883   5.596 -0.1681  0.5916 -0.7560
 3915TIP3   OH233159   3.192   1.907   3.840 -0.6492  0.4828 -0.0299
 3915TIP3    H133160   3.159   1.863   3.918 -0.9128 -2.3809 -1.6058
 3915TIP3    H233161   3.286   1.887   3.839 -0.3400  1.8074  0.2902
 3916TIP3   OH233162   4.342   1.675   4.399  0.4946 -0.5343  0.3371
 3916TIP3    H133163   4.402   1.749   4.386 -0.6185  0.0050 -2.4352
 3916TIP3    H233164   4.273   1.689   4.335  0.9141 -4.6486 -1.3059
 3917TIP3   OH233165   3.112   0.918  11.813 -0.5655 -0.0186  0.1143
 3917TIP3    H133166   3.085   1.001  11.851 -1.6852 -1.3321  2.4245
 3917TIP3    H233167   3.031   0.867  11.806  0.0295 -0.7967 -1.6144
 3918TIP3   OH233168   4.164   2.234  16.453  0.1177 -0.0343  0.5079
 3918TIP3    H133169   4.118   2.316  16.437  0.2519 -0.0324  0.1183
 3918TIP3    H233170   4.178   2.197  16.366  1.8667  0.5215  0.5186
 3919TIP3   OH233171   3.986   6.246  13.980 -0.0265  0.3948  0.0321
 3919TIP3    H133172   3.963   6.339  13.978  1.9005  0.9065  0.1663
 3919TIP3    H233173   3.970   6.216  13.891 -1.4874  0.6208  0.1971
 3920TIP3   OH233174   2.588   5.155  17.220  0.1368  0.4593 -0.2790
 3920TIP3    H133175   2.557   5.099  17.149 -1.2804  0.3624  0.3920
 3920TIP3    H233176   2.572   5.105  17.300 -1.1837  1.7882  0.3370
 3921TIP3   OH233177   6.476   5.874   1.306 -0.3651 -0.0630  0.5539
 3921TIP3    H133178   6.400   5.826   1.339 -0.3478  0.2991  1.1442
 3921TIP3    H233179   6.439   5.938   1.246 -0.3341 -1.1839 -0.7040
 3922TIP3   OH233180   6.152   1.341  13.058 -0.5334 -0.0742 -0.1765
 3922TIP3    H133181   6.147   1.290  12.977 -5.3678  1.3186 -1.1094
 3922TIP3    H233182   6.137   1.277  13.128  2.2391 -1.0693 -0.3984
 3923TIP3   OH233183   5.698   6.553   1.756  0.1676  0.0061 -0.2446
 3923TIP3    H133184   5.615   6.507   1.741 -0.2339  0.4344  0.6069
 3923TIP3    H233185   5.740   6.554   1.670  0.3124 -2.1497 -0.2609
 3924TIP3   OH233186   6.285   0.369  15.731 -0.4220  0.6438  0.3510
 3924TIP3    H133187   6.378   0.360  15.709 -0.5539  0.0444  0.0243
 3924TIP3    H233188   6.275   0.462  15.753  0.6800  0.3296  2.4565
 3925TIP3   OH233189   4.417   2.232  16.616  0.3627 -0.1115 -0.4612
 3925TIP3    H133190   4.364   2.196  16.687  0.1467  0.0150 -0.5603
 3925TIP3    H233191   4.357   2.241  16.542  0.1753  1.3767 -0.1512
 3926TIP3   OH233192   0.174   3.997   0.273 -0.1753 -0.0591 -0.4049
 3926TIP3    H133193   0.218   4.040   0.199 -0.4519  2.1302  0.6427
 3926TIP3    H233194   0.093   3.962   0.235  0.7262 -0.9928 -1.5832
 3927TIP3   OH233195   2.253   6.315   4.723 -0.4048 -0.1872 -0.1838
 3927TIP3    H133196   2.303   6.236   4.703 -1.4892 -0.6478 -1.2063
 3927TIP3    H233197   2.271   6.332   4.815  2.3749  0.2486 -0.6988
 3928TIP3   OH233198   5.013   4.358  16.189  0.0803 -0.6573  0.0975
 3928TIP3    H133199   5.082   4.371  16.123  0.1994 -1.6589  0.0060
 3928TIP3    H233200   4.960   4.437  16.184  0.9244 -0.0990 -0.2018
 3929TIP3   OH233201   2.434   0.111   2.280 -0.0129 -0.4293  0.0235
 3929TIP3    H133202   2.429   0.047   2.351  0.4118 -1.1793 -0.6084
 3929TIP3    H233203   2.471   0.189   2.321 -0.6464 -0.5396  0.8328
 3930TIP3   OH233204   4.605   5.466  13.590  0.0478 -0.5421  0.0347
 3930TIP3    H133205   4.532   5.465  13.651 -0.1395 -0.5018 -0.1860
 3930TIP3    H233206   4.617   5.558  13.568 -0.0054 -0.5735 -0.1298
 3931TIP3   OH233207   6.525   2.489  10.979  0.0671  0.0658 -0.0485
 3931TIP3    H133208   6.453   2.491  11.042 -0.8919 -1.2254 -1.0440
 3931TIP3    H233209   6.540   2.581  10.956 -2.1425  0.3160 -0.7530
 3932TIP3   OH233210   3.534   4.950  10.928  0.5597  0.3695  0.2175
 3932TIP3    H133211   3.466   4.886  10.947  1.2699  0.0039  1.6888
 3932TIP3    H233212   3.547   4.944  10.833 -1.3362  0.3613 -0.0758
 3933TIP3   OH233213   4.439   5.863  13.229  0.1290  0.2747 -0.1564
 3933TIP3    H133214   4.495   5.807  13.176  0.1135  0.3473 -0.2492
 3933TIP3    H233215   4.463   5.952  13.204 -0.1561  0.3034 -0.3290
 3934TIP3   OH233216   5.870   3.482  16.448 -0.5012  0.3987 -0.1708
 3934TIP3    H133217   5.833   3.483  16.537  0.0616  1.0719  0.0602
 3934TIP3    H233218   5.857   3.392  16.418 -0.7399  0.1760  0.5783
 3935TIP3   OH233219   6.712   3.512   0.275  0.6839  0.7930  0.4808
 3935TIP3    H133220   6.648   3.483   0.211  1.9095  0.4925 -0.6690
 3935TIP3    H233221   6.685   3.600   0.299 -0.7080  0.2973  0.7927
 3936TIP3   OH233222   3.878   5.182  10.912 -0.1118  0.0281  0.1928
 3936TIP3    H133223   3.812   5.135  10.861  1.3661 -0.3035 -1.5050
 3936TIP3    H233224   3.881   5.269  10.874  1.0789 -0.2545 -0.4148
 3937TIP3   OH233225   1.500   0.959   0.961 -0.1626 -0.6537  0.4738
 3937TIP3    H133226   1.415   0.984   0.996  0.1824  0.8548  0.2811
 3937TIP3    H233227   1.563   0.990   1.025  0.2711 -1.5327  0.4858
 3938TIP3   OH233228   5.373   4.662   3.683 -0.1732 -0.5487  0.0618
 3938TIP3    H133229   5.377   4.742   3.631 -1.8092 -0.2659  0.3331
 3938TIP3    H233230   5.463   4.650   3.715 -0.1434  1.9528  1.1736
 3939TIP3   OH233231   1.081   0.589   3.230  0.2142 -0.2666 -0.3583
 3939TIP3    H133232   1.153   0.562   3.287 -1.2833 -0.7804  1.3993
 3939TIP3    H233233   1.070   0.682   3.249 -1.0307 -0.6718  1.1898
 3940TIP3   OH233234   3.553   0.826  15.456 -0.2136  0.3659  0.0697
 3940TIP3    H133235   3.498   0.752  15.480 -0.8642  0.8280  0.0243
 3940TIP3    H233236   3.537   0.840  15.363 -1.1587  1.4187  0.3625
 3941TIP3   OH233237   0.457   1.949  14.231 -0.4997  0.4963 -0.2732
 3941TIP3    H133238   0.405   1.961  14.151 -0.2937 -0.1440 -0.5100
 3941TIP3    H233239   0.456   2.035  14.272 -0.4249  0.8983 -1.0795
 3942TIP3   OH233240   1.083   6.365   0.049  0.0290 -0.0349  0.0924
 3942TIP3    H133241   1.070   6.290  -0.008 -1.1769  0.0129  0.2775
 3942TIP3    H233242   1.011   6.360   0.112  0.3094  0.9089  0.5105
 3943TIP3   OH233243   3.203   3.652  11.538 -0.0599  0.1646  0.3252
 3943TIP3    H133244   3.159   3.737  11.530 -1.4941 -0.7188 -2.2053
 3943TIP3    H233245   3.251   3.642  11.456 -1.9374 -2.4615 -0.5891
 3944TIP3   OH233246   0.344   6.174  13.792  0.1501 -0.4995 -0.7480
 3944TIP3    H133247   0.361   6.181  13.886  1.7910 -2.7946 -0.7753
 3944TIP3    H233248   0.356   6.263  13.759  1.2966  0.0444  0.9687
 3945TIP3   OH233249   1.297   1.456   1.221 -0.1569  0.4904 -0.3303
 3945TIP3    H133250   1.352   1.530   1.247 -1.8100  1.7379 -0.2420
 3945TIP3    H233251   1.263   1.420   1.303  1.0085 -0.7229 -0.3370
 3946TIP3   OH233252   2.762   5.293  15.814 -0.4215 -0.5201  0.3436
 3946TIP3    H133253   2.772   5.263  15.905  0.4869 -0.7033  0.1901
 3946TIP3    H233254   2.847   5.277  15.774 -0.3408  0.9528 -0.1301
 3947TIP3   OH233255   6.022   5.425   0.686  0.2056  0.1471 -0.7724
 3947TIP3    H133256   6.085   5.368   0.730  0.5242  0.5618 -0.6803
 3947TIP3    H233257   5.938   5.381   0.696 -0.3622  1.6606  3.0857
 3948TIP3   OH233258   1.160   6.613  12.583 -0.5657  0.0734 -0.9521
 3948TIP3    H133259   1.133   6.617  12.491  1.4958 -1.0714 -1.6598
 3948TIP3    H233260   1.217   6.536  12.589 -1.1452 -0.2636  1.4470
 3949TIP3   OH233261   2.482   5.752  13.642  0.6443 -0.7123 -0.5995
 3949TIP3    H133262   2.513   5.806  13.715  0.6787 -2.0781  0.4441
 3949TIP3    H233263   2.534   5.671  13.648 -1.7408 -2.3194  0.0722
 3950TIP3   OH233264   2.602   3.129  16.777  0.5294 -0.3210  0.7651
 3950TIP3    H133265   2.645   3.097  16.698 -0.0040 -0.2416  0.4414
 3950TIP3    H233266   2.638   3.075  16.847  0.8641 -0.5206  0.4433
 3951TIP3   OH233267   2.915   0.201   2.996 -0.3865  0.0323 -0.0579
 3951TIP3    H133268   2.938   0.118   3.036 -2.4048 -0.5601  0.0007
 3951TIP3    H233269   2.942   0.193   2.905  1.7248  0.3368  0.4874
 3952TIP3   OH233270   1.429   6.640  12.344 -0.2329  0.5288 -0.0071
 3952TIP3    H133271   1.512   6.611  12.306 -0.9766  0.0457 -1.3070
 3952TIP3    H233272   1.415   6.728  12.309 -0.5533  0.3820 -0.2501
 3953TIP3   OH233273   5.036   1.187   2.513 -0.1346 -0.4459 -0.1780
 3953TIP3    H133274   5.099   1.239   2.463 -1.6680  0.4702 -1.2275
 3953TIP3    H233275   5.026   1.233   2.596 -1.4298  0.9869 -1.0702
 3954TIP3   OH233276   6.720   6.365  12.483 -0.1559 -0.3130 -0.3435
 3954TIP3    H133277   6.702   6.328  12.570  0.4156  0.0244 -0.0777
 3954TIP3    H233278   6.715   6.289  12.425 -0.0181 -0.6403  0.0585
 3955TIP3   OH233279   3.333   6.587   4.029  0.3003 -0.2167 -0.0153
 3955TIP3    H133280   3.261   6.573   4.090 -1.0141  2.2881 -0.8763
 3955TIP3    H233281   3.321   6.676   3.997  1.9029 -0.8441 -2.6789
 3956TIP3   OH233282   4.129   2.346  15.769 -0.2766 -0.3826 -0.4052
 3956TIP3    H133283   4.170   2.288  15.704 -1.0347 -1.2794 -0.1080
 3956TIP3    H233284   4.045   2.370  15.730 -0.4326 -0.3542 -0.0562
 3957TIP3   OH233285   1.086   3.126   3.762  0.3115 -0.3066  0.7549
 3957TIP3    H133286   1.142   3.159   3.692 -0.4403 -0.0691  0.2475
 3957TIP3    H233287   1.016   3.192   3.769  0.3794 -0.3242  1.7344
 3958TIP3   OH233288   1.363   5.154   0.638  0.1187 -0.4276  0.3594
 3958TIP3    H133289   1.369   5.180   0.730 -1.0222  1.4876 -0.0578
 3958TIP3    H233290   1.452   5.168   0.604  0.3398 -0.3316  0.9599
 3959TIP3   OH233291   1.342   4.986  15.563  0.1199 -0.0935 -0.7420
 3959TIP3    H133292   1.384   4.908  15.527 -0.5902 -0.5809 -0.5308
 3959TIP3    H233293   1.294   4.955  15.640  0.3766  0.6705 -0.2625
 3960TIP3   OH233294   3.955   1.926  15.213  0.1649  0.2176 -0.2736
 3960TIP3    H133295   3.923   1.887  15.132 -2.1089 -0.5122  0.9070
 3960TIP3    H233296   4.048   1.940  15.197 -0.1326 -0.2227 -2.8692
 3961TIP3   OH233297   1.834   4.338  16.420  0.4013  0.3013 -0.4903
 3961TIP3    H133298   1.753   4.367  16.462  0.0106  0.0906 -1.0850
 3961TIP3    H233299   1.888   4.416  16.414  1.1779  0.0339  1.9425
 3962TIP3   OH233300   5.739   5.141  13.537 -0.0159  0.6822  0.0347
 3962TIP3    H133301   5.757   5.062  13.587  0.2416  0.1878 -0.8178
 3962TIP3    H233302   5.820   5.193  13.545 -0.6912  1.5562  1.7982
 3963TIP3   OH233303   1.372   0.339  14.921  0.5641  0.0735 -0.5898
 3963TIP3    H133304   1.290   0.331  14.969  1.5275  0.6744  1.2883
 3963TIP3    H233305   1.415   0.255  14.933 -0.6971 -1.1205 -3.5676
 3964TIP3   OH233306   2.898   1.328   2.102 -0.7268  0.2302 -0.4488
 3964TIP3    H133307   2.858   1.323   2.015  0.5142 -0.8915 -0.9813
 3964TIP3    H233308   2.851   1.263   2.153  0.4936 -1.2484 -1.1382
 3965TIP3   OH233309   6.021   4.285  13.400  0.0632  0.5431 -0.2029
 3965TIP3    H133310   6.033   4.361  13.457  0.5860 -0.1867  0.6826
 3965TIP3    H233311   5.939   4.246  13.430 -0.1064  0.6431 -0.5309
 3966TIP3   OH233312   0.767   1.279  14.062 -0.1235 -0.0385  0.6202
 3966TIP3    H133313   0.682   1.316  14.041 -0.7605 -1.3586  0.7697
 3966TIP3    H233314   0.813   1.274  13.978  0.1748  1.4781  0.6581
 3967TIP3   OH233315   6.390   1.458  14.909  0.2997 -0.1912  0.3324
 3967TIP3    H133316   6.461   1.491  14.853 -1.3640 -1.2820 -2.6422
 3967TIP3    H233317   6.342   1.536  14.935  2.3177  0.5444  2.1861
 3968TIP3   OH233318   6.604   5.527   4.754 -0.3205  0.4223  0.4708
 3968TIP3    H133319   6.616   5.605   4.700  0.8282 -0.6563 -0.9294
 3968TIP3    H233320   6.559   5.465   4.696  2.2067 -1.2709  0.1224
 3969TIP3   OH233321   5.790   0.212   1.391  0.2906  0.1223 -0.3742
 3969TIP3    H133322   5.715   0.251   1.345 -0.7084 -1.4498 -0.1504
 3969TIP3    H233323   5.751   0.162   1.463  1.6425  0.1341  0.4097
 3970TIP3   OH233324   3.432   0.254   0.795  0.3927  0.1087 -0.2125
 3970TIP3    H133325   3.489   0.179   0.809 -2.2094 -2.2380 -1.1487
 3970TIP3    H233326   3.343   0.217   0.794 -1.1045  3.3395  0.0767
 3971TIP3   OH233327   2.931   4.046   5.517 -0.4222 -0.3736  0.1330
 3971TIP3    H133328   2.870   4.079   5.583  0.5853  0.3279  0.7391
 3971TIP3    H233329   2.995   4.117   5.506  0.9839 -1.5612  0.4240
 3972TIP3   OH233330   2.009   1.506   4.073  0.5767  0.2240 -0.1957
 3972TIP3    H133331   2.064   1.461   4.009  0.7926 -1.3309  0.9968
 3972TIP3    H233332   2.064   1.510   4.152 -0.6189 -0.3608  0.6890
 3973TIP3   OH233333   0.350   3.959  14.242  0.1030  0.1885 -0.2899
 3973TIP3    H133334   0.260   3.941  14.270  0.2225 -0.5553 -0.3708
 3973TIP3    H233335   0.352   4.054  14.227 -0.1882  0.4883  1.4154
 3974TIP3   OH233336   6.216   6.157   5.102  0.4355  0.5740  0.8306
 3974TIP3    H133337   6.201   6.092   5.033 -0.2166  0.4065  1.1233
 3974TIP3    H233338   6.249   6.106   5.176  0.2584  0.6228  0.9447
 3975TIP3   OH233339   0.819   6.129   5.706 -0.0602 -0.0679  0.3426
 3975TIP3    H133340   0.864   6.125   5.791  1.1695  0.3775 -0.2583
 3975TIP3    H233341   0.819   6.039   5.675  0.6981 -0.0375  0.2254
 3976TIP3   OH233342   1.252   2.390   2.443 -0.1440  0.7354 -0.3338
 3976TIP3    H133343   1.177   2.427   2.398  0.4656  0.7484 -1.3634
 3976TIP3    H233344   1.324   2.451   2.425  0.4448 -0.0034 -0.5463
 3977TIP3   OH233345   5.176   3.837  14.790 -0.8390 -0.1035 -0.3098
 3977TIP3    H133346   5.103   3.795  14.744  0.4440 -2.6604 -0.2210
 3977TIP3    H233347   5.249   3.776  14.779  1.7721  2.9288 -1.6032
 3978TIP3   OH233348   0.253   0.588  11.352  0.0969 -0.2854 -0.0531
 3978TIP3    H133349   0.313   0.641  11.405 -0.5589  0.6231 -0.1804
 3978TIP3    H233350   0.262   0.623  11.263 -2.8993  2.1396  0.4253
 3979TIP3   OH233351   4.788   2.716  11.299 -0.4679  0.0792 -0.3931
 3979TIP3    H133352   4.745   2.725  11.214 -2.1741 -1.9626  0.1947
 3979TIP3    H233353   4.731   2.762  11.360  0.2250  0.6642 -0.1665
 3980TIP3   OH233354   4.488   0.078  12.694  0.1626  0.3295 -0.4092
 3980TIP3    H133355   4.535   0.046  12.770  0.0295 -0.4381 -0.6448
 3980TIP3    H233356   4.458  -0.001  12.649 -0.1981  0.7834 -0.9798
 3981TIP3   OH233357   5.657   3.141   2.466 -0.7767  0.2160 -0.0083
 3981TIP3    H133358   5.717   3.177   2.401 -0.7124 -0.6528 -0.4560
 3981TIP3    H233359   5.609   3.216   2.500  0.4508  0.9048  0.2477
 3982TIP3   OH233360   6.000   4.947   5.466 -0.0587  0.8404  0.5420
 3982TIP3    H133361   5.923   4.944   5.522  1.1534 -0.9420  2.2647
 3982TIP3    H233362   5.967   4.931   5.377 -1.4640 -2.3744  1.5195
 3983TIP3   OH233363   5.269   1.090   3.370 -0.0976  0.8094 -0.1890
 3983TIP3    H133364   5.278   1.070   3.277 -1.9384  0.0601 -0.2508
 3983TIP3    H233365   5.262   1.004   3.412 -3.0254  1.1078  0.1471
 3984TIP3   OH233366   2.594   5.551   4.682 -0.1390  0.5666 -0.2617
 3984TIP3    H133367   2.594   5.560   4.587 -1.5455  0.6850 -0.2592
 3984TIP3    H233368   2.553   5.466   4.698  2.0228 -0.4627  0.1890
 3985TIP3   OH233369   0.394   3.333   2.498  0.0712 -0.0659 -0.2261
 3985TIP3    H133370   0.351   3.391   2.561  0.0997  1.1855 -1.3296
 3985TIP3    H233371   0.484   3.325   2.531 -0.1354 -0.0881  0.3378
 3986TIP3   OH233372   5.742   0.661   4.278  0.2162 -0.0045 -0.6364
 3986TIP3    H133373   5.702   0.687   4.195  1.0500 -1.3470 -1.4851
 3986TIP3    H233374   5.832   0.638   4.256 -0.0244 -2.0966  0.2976
 3987TIP3   OH233375   4.161   1.815   0.052  0.3219  0.2837  0.0402
 3987TIP3    H133376   4.237   1.804   0.109  0.5124  1.8758  0.1419
 3987TIP3    H233377   4.132   1.905   0.068 -0.0393  0.5485 -1.8709
 3988TIP3   OH233378   1.480   1.566  16.015 -0.8878 -0.2640 -0.7047
 3988TIP3    H133379   1.417   1.614  16.067 -0.1916 -0.4919  0.3764
 3988TIP3    H233380   1.489   1.481  16.059  1.8927  0.5954  0.5804
 3989TIP3   OH233381   3.374   3.933  11.115 -0.2758 -0.0957  0.1654
 3989TIP3    H133382   3.338   3.856  11.071 -1.6583  1.3694 -1.3855
 3989TIP3    H233383   3.412   3.985  11.044  3.0554 -0.4980  1.4647
 3990TIP3   OH233384   2.485   5.973  14.198  0.1189  0.1316 -0.8126
 3990TIP3    H133385   2.515   6.062  14.180 -0.5494  0.3557 -0.8325
 3990TIP3    H233386   2.405   5.964  14.147  0.1828 -0.4819 -0.8032
 3991TIP3   OH233387   5.140   3.396   0.109  0.6903 -0.6027  0.3906
 3991TIP3    H133388   5.222   3.440   0.087  0.9030 -0.9404  0.4951
 3991TIP3    H233389   5.078   3.468   0.125  1.2139 -0.3230  1.2406
 3992TIP3   OH233390   4.487   1.430   0.052  0.4041  0.0743 -0.4070
 3992TIP3    H133391   4.562   1.384   0.016 -1.1977 -1.9536 -1.3875
 3992TIP3    H233392   4.444   1.468  -0.025 -0.0208  0.4760  0.0275
 3993TIP3   OH233393   1.937   4.079  15.234  0.2104 -0.0664  0.1233
 3993TIP3    H133394   1.967   4.072  15.325 -1.6118  1.0722  0.8764
 3993TIP3    H233395   1.993   4.146  15.195 -0.1359  0.7439  0.9711
 3994TIP3   OH233396   0.261   4.855   1.959 -0.5285 -0.1567  0.4787
 3994TIP3    H133397   0.218   4.911   2.024 -0.0579 -0.3013  0.9212
 3994TIP3    H233398   0.340   4.823   2.003 -0.5970 -0.8718  0.1021
 3995TIP3   OH233399   2.652   3.206  16.066  0.1940  0.1379 -0.4363
 3995TIP3    H133400   2.566   3.224  16.030 -0.2902  0.8712  0.9850
 3995TIP3    H233401   2.645   3.119  16.105 -0.2339  0.6118  0.5699
 3996TIP3   OH233402   1.831   1.717  13.233 -0.4359 -0.2286 -0.1030
 3996TIP3    H133403   1.813   1.628  13.265  0.3313 -0.0980  0.7174
 3996TIP3    H233404   1.786   1.774  13.295 -1.5318 -0.0492 -1.0398
 3997TIP3   OH233405   4.480   6.302   4.304 -0.7180  0.4511 -0.1282
 3997TIP3    H133406   4.489   6.257   4.220 -1.9951  1.9480 -1.1228
 3997TIP3    H233407   4.454   6.233   4.365  1.5200 -0.9230 -0.5990
 3998TIP3   OH233408   2.251   1.591  12.392 -0.5137 -0.1231 -0.5937
 3998TIP3    H133409   2.261   1.502  12.358  1.8118  0.1548 -0.7940
 3998TIP3    H233410   2.205   1.579  12.475 -1.0497 -1.4108 -1.0467
 3999TIP3   OH233411   6.079   0.416  14.163  0.4445  0.0143 -0.3687
 3999TIP3    H133412   6.056   0.330  14.126 -1.5548 -0.2950  1.3945
 3999TIP3    H233413   6.174   0.416  14.166  0.5502 -1.4723 -1.9091
 4000TIP3   OH233414   0.181   3.368  11.908 -0.2146 -0.2884 -0.1376
 4000TIP3    H133415   0.122   3.310  11.860  1.1711 -1.8679 -0.0245
 4000TIP3    H233416   0.189   3.327  11.994 -1.5387  1.7301  1.0431
 4001TIP3   OH233417   5.072   1.007  12.801  0.2647  0.0014  0.2297
 4001TIP3    H133418   5.106   1.000  12.890  2.2880 -2.3181 -0.6312
 4001TIP3    H233419   4.985   1.045  12.812  0.7552  0.5146  3.0987
 4002TIP3   OH233420   2.466   0.207  14.949  0.3916  0.2568  0.1017
 4002TIP3    H133421   2.386   0.207  14.896 -0.3715 -0.4941  1.1947
 4002TIP3    H233422   2.436   0.180  15.036  1.6841  0.9724  0.7877
 4003TIP3   OH233423   5.124   6.284  16.737  0.2610  0.8985 -0.2274
 4003TIP3    H133424   5.194   6.335  16.777  0.7021  0.8799 -0.9572
 4003TIP3    H233425   5.159   6.257  16.652 -0.3808  0.3237 -0.3230
 4004TIP3   OH233426   3.183   1.350  13.655  0.2812  0.2766  0.3481
 4004TIP3    H133427   3.101   1.308  13.680  0.2852  0.8380  1.3432
 4004TIP3    H233428   3.246   1.278  13.647 -0.5126 -0.2784 -1.4119
 4005TIP3   OH233429   6.059   5.319   1.823 -0.3661 -0.0153  0.1160
 4005TIP3    H133430   6.010   5.255   1.875 -1.3217  0.7200  0.1521
 4005TIP3    H233431   6.145   5.323   1.865 -0.3697 -1.0897  0.2567
 4006TIP3   OH233432   4.784   0.606   0.182  0.1800 -0.1239 -0.3347
 4006TIP3    H133433   4.745   0.601   0.095 -2.5693 -1.0024  0.8546
 4006TIP3    H233434   4.808   0.516   0.204  1.6793  0.2056 -0.4598
 4007TIP3   OH233435   4.184   0.959  13.173 -0.7430  0.0191 -0.6422
 4007TIP3    H133436   4.184   0.869  13.140 -0.6518  0.1402 -0.9805
 4007TIP3    H233437   4.275   0.987  13.166 -0.9265  0.4649 -1.4661
 4008TIP3   OH233438   2.841   3.164  13.530  0.1927  0.3258 -0.2080
 4008TIP3    H133439   2.906   3.095  13.530 -0.0369  0.1021 -1.2360
 4008TIP3    H233440   2.856   3.211  13.613 -0.9732 -2.1802  1.5655
 4009TIP3   OH233441   4.034   1.713   3.469 -0.5742  0.2472 -0.1323
 4009TIP3    H133442   4.087   1.667   3.404 -1.9120 -0.1121 -1.0237
 4009TIP3    H233443   4.067   1.683   3.553  1.9749  1.5882 -0.5594
 4010TIP3   OH233444   2.246   2.616   2.142 -0.1991 -0.2080  0.9102
 4010TIP3    H133445   2.156   2.629   2.111  0.2499 -0.4536 -0.6176
 4010TIP3    H233446   2.249   2.524   2.168 -0.7262  0.1322  2.2545
 4011TIP3   OH233447   5.434   1.494   4.152  0.6732 -0.1353 -0.2102
 4011TIP3    H133448   5.451   1.508   4.245  0.2734  0.0828 -0.1653
 4011TIP3    H233449   5.363   1.429   4.150  0.7931 -0.2628 -0.3667
 4012TIP3   OH233450   3.387   1.736  13.084 -0.2243 -0.1875  0.6823
 4012TIP3    H133451   3.342   1.657  13.116 -0.7407 -0.9453 -1.7274
 4012TIP3    H233452   3.326   1.775  13.022  0.6851  1.2496  0.6497
 4013TIP3   OH233453   6.663   4.910   4.863  0.2042  0.1302  0.0093
 4013TIP3    H133454   6.658   4.815   4.876  0.0722 -0.1660 -1.9031
 4013TIP3    H233455   6.750   4.934   4.896  0.1003 -0.5737  0.8468
 4014TIP3   OH233456   1.989   6.723  17.185 -0.1885 -0.0858  0.2836
 4014TIP3    H133457   1.925   6.794  17.182  0.0105  0.2227  2.0092
 4014TIP3    H233458   2.074   6.766  17.185 -0.0373 -0.3788  0.2567
 4015TIP3   OH233459   5.221   0.443  15.857 -0.9348 -0.4155 -0.9011
 4015TIP3    H133460   5.202   0.476  15.944  0.5476 -0.6335 -0.4699
 4015TIP3    H233461   5.190   0.511  15.798  0.8157  1.1801 -0.0832
 4016TIP3   OH233462   3.092   2.062   0.347  0.0275 -0.0206  0.1789
 4016TIP3    H133463   3.041   1.985   0.371 -1.5178  0.7808 -0.4346
 4016TIP3    H233464   3.127   2.042   0.260 -0.7761  0.1478 -0.1902
 4017TIP3   OH233465   0.111   4.536   1.996  0.0705 -0.1132  0.3604
 4017TIP3    H133466   0.145   4.449   2.016  0.1844 -0.1752 -0.0973
 4017TIP3    H233467   0.173   4.572   1.933  0.5871  0.6877  1.2823
 4018TIP3   OH233468   5.425   1.500   0.179  0.4443  0.2791  0.4754
 4018TIP3    H133469   5.425   1.405   0.195 -0.0627  0.0493 -0.8060
 4018TIP3    H233470   5.515   1.527   0.195  0.5708 -0.3876  0.9677
 4019TIP3   OH233471   5.017   1.663  15.215  0.1676  0.6947 -0.2473
 4019TIP3    H133472   5.111   1.676  15.208 -0.0819  1.8451 -2.5800
 4019TIP3    H233473   5.004   1.570  15.193  0.7225  0.6716 -0.4885
 4020TIP3   OH233474   1.024   5.238   4.525 -0.1404  0.3735  0.0762
 4020TIP3    H133475   1.003   5.169   4.462  0.2932  0.8175 -0.5642
 4020TIP3    H233476   0.977   5.315   4.494  1.1662  0.9722 -0.5173
 4021TIP3   OH233477   2.956   6.022   3.379 -0.0144  0.1065 -0.0677
 4021TIP3    H133478   2.928   6.015   3.288  3.0856 -2.2817 -0.9723
 4021TIP3    H233479   2.896   5.965   3.427  0.4162 -1.3258 -1.1909
 4022TIP3   OH233480   6.625   0.441   4.093 -0.2218  0.1703  0.6372
 4022TIP3    H133481   6.577   0.407   4.168 -2.5416  0.6165 -0.5364
 4022TIP3    H233482   6.644   0.532   4.115 -0.7745  0.2610  0.7502
 4023TIP3   OH233483   4.473   4.203   3.712 -0.3766 -0.8086  0.5633
 4023TIP3    H133484   4.554   4.217   3.763 -1.1496 -1.8379  2.1664
 4023TIP3    H233485   4.439   4.291   3.697  0.8075 -0.3821  0.2397
 4024TIP3   OH233486   6.681   6.673   6.363  0.4441  0.6272 -0.0556
 4024TIP3    H133487   6.592   6.703   6.383 -0.1720 -1.1008 -0.0052
 4024TIP3    H233488   6.674   6.577   6.360  2.3404  0.4381  0.0968
 4025TIP3   OH233489   6.039   4.440  15.389  0.6175 -0.1689  0.0485
 4025TIP3    H133490   6.112   4.379  15.374  0.4858 -0.5245  0.8038
 4025TIP3    H233491   5.968   4.404  15.336  0.6398 -0.4897  0.2304
 4026TIP3   OH233492   3.685   4.746  11.623  0.0768  0.0044  0.3114
 4026TIP3    H133493   3.604   4.751  11.674  0.1864 -0.5779  0.5520
 4026TIP3    H233494   3.690   4.655  11.594  0.6322  0.0377  0.2802
 4027TIP3   OH233495   6.615   0.969  14.989  0.0658  0.2828 -0.6499
 4027TIP3    H133496   6.565   0.892  14.961 -1.5442 -0.2782  3.2195
 4027TIP3    H233497   6.693   0.934  15.031  0.4694  0.9070 -0.8600
 4028TIP3   OH233498   0.907   4.246  10.663  0.1848  0.6711  0.2155
 4028TIP3    H133499   0.979   4.195  10.702  2.4165  2.9516 -0.6806
 4028TIP3    H233500   0.928   4.337  10.684 -1.1991  1.5967 -2.0660
 4029TIP3   OH233501   3.833   2.342  15.738  0.3626  0.2070  0.2744
 4029TIP3    H133502   3.815   2.253  15.708  1.5111 -0.4006  1.2916
 4029TIP3    H233503   3.747   2.383  15.745 -0.1073 -0.3741 -1.4728
 4030TIP3   OH233504   1.693   0.891   3.455 -0.6301  0.2426  0.3053
 4030TIP3    H133505   1.721   0.901   3.364 -2.7175  0.8615 -0.3326
 4030TIP3    H233506   1.686   0.796   3.468  1.8745  0.0380  0.6051
 4031TIP3   OH233507   1.785   4.141  12.360  0.2809  0.0236  0.1684
 4031TIP3    H133508   1.747   4.057  12.335  1.1404 -0.3637  0.1420
 4031TIP3    H233509   1.879   4.127  12.358  0.4735  1.2471 -0.7125
 4032TIP3   OH233510   3.587   4.814  12.815  0.1021 -0.2933 -0.2326
 4032TIP3    H133511   3.639   4.888  12.783 -0.8867 -0.6295 -2.7827
 4032TIP3    H233512   3.580   4.754  12.741 -3.8847 -0.2817 -0.0946
 4033TIP3   OH233513   0.071   5.418   0.640  0.3284  0.5514  0.4332
 4033TIP3    H133514   0.003   5.376   0.693 -0.5905  0.9359 -0.4023
 4033TIP3    H233515   0.134   5.451   0.704  0.5115 -1.0859  1.1680
 4034TIP3   OH233516   2.148   3.486  13.680 -0.4285 -0.2911  0.4034
 4034TIP3    H133517   2.064   3.528  13.695 -0.2466  0.0831  0.3795
 4034TIP3    H233518   2.139   3.399  13.719 -1.4528 -0.9417 -1.1659
 4035TIP3   OH233519   2.013   1.380  13.963 -0.4486 -0.0139  0.4632
 4035TIP3    H133520   2.107   1.374  13.946 -0.5919 -0.3264 -0.2356
 4035TIP3    H233521   1.973   1.328  13.894 -1.0867 -0.6806  1.3084
 4036TIP3   OH233522   5.171   4.574   2.735 -0.6185  0.4579 -0.6882
 4036TIP3    H133523   5.128   4.594   2.651  1.0761  1.3786 -1.3877
 4036TIP3    H233524   5.184   4.659   2.776  1.7725  0.3955 -1.1714
 4037TIP3   OH233525   4.473   2.713  16.519  0.2174 -0.0836 -0.5691
 4037TIP3    H133526   4.556   2.761  16.519  0.8871 -1.1847 -0.6412
 4037TIP3    H233527   4.498   2.624  16.545 -0.5688 -1.0294 -2.8164
 4038TIP3   OH233528   0.174   4.656  12.866 -0.0355  0.2528 -0.7339
 4038TIP3    H133529   0.239   4.600  12.909  1.2069  1.2986 -1.1789
 4038TIP3    H233530   0.188   4.641  12.772 -1.9016 -1.0921 -0.8523
 4039TIP3   OH233531   5.672   0.488   3.529  0.5925 -0.6554  0.3076
 4039TIP3    H133532   5.700   0.435   3.455  0.1931 -0.4492  0.0078
 4039TIP3    H233533   5.721   0.570   3.520 -1.9244  0.7861 -1.7093
 4040TIP3   OH233534   0.795   1.982  12.520 -0.1815  0.3170  0.4690
 4040TIP3    H133535   0.728   1.949  12.460  1.2851 -0.0640 -1.0408
 4040TIP3    H233536   0.792   1.923  12.595 -0.1888 -0.9496 -0.4878
 4041TIP3   OH233537   6.265   4.893  14.054 -0.7707  0.2457  0.5676
 4041TIP3    H133538   6.184   4.938  14.080  0.0432  1.1482  1.6132
 4041TIP3    H233539   6.235   4.825  13.993 -2.2288  1.0352  0.3436
 4042TIP3   OH233540   5.890   1.779  12.792  0.1081 -0.1960  0.7818
 4042TIP3    H133541   5.853   1.694  12.769 -0.4198  0.1152  0.4518
 4042TIP3    H233542   5.883   1.783  12.888  2.5493 -1.6055  1.0907
 4043TIP3   OH233543   0.814   2.360   6.047 -0.0902  0.2418  0.4951
 4043TIP3    H133544   0.833   2.412   6.126 -1.2700  0.4518  0.6621
 4043TIP3    H233545   0.749   2.296   6.076 -1.6794  1.2761 -0.6193
 4044TIP3   OH233546   5.906   3.459  15.084 -0.2141 -0.3276 -0.7489
 4044TIP3    H133547   5.821   3.420  15.106 -0.5002  2.0664  3.1612
 4044TIP3    H233548   5.970   3.404  15.130  0.1206 -0.5257 -1.4395
 4045TIP3   OH233549   1.345   6.125   5.016  0.0313  0.3875 -0.2778
 4045TIP3    H133550   1.271   6.180   5.041  0.0750  0.9410 -1.3130
 4045TIP3    H233551   1.415   6.187   4.995  0.3835 -0.0905 -0.5241
 4046TIP3   OH233552   6.432   1.168   0.860 -0.5145  0.4865  0.4030
 4046TIP3    H133553   6.383   1.249   0.849 -3.7741 -1.4927 -1.2664
 4046TIP3    H233554   6.408   1.114   0.784  3.3107 -1.2893  0.1652
 4047TIP3   OH233555   4.183   2.532   1.023  0.6612  0.5475  0.3736
 4047TIP3    H133556   4.112   2.553   0.963  0.5759  0.1634  0.3379
 4047TIP3    H233557   4.237   2.611   1.025  1.7525 -0.0840 -1.6997
 4048TIP3   OH233558   0.871   0.328   4.926  0.0267  0.2586 -0.1742
 4048TIP3    H133559   0.965   0.309   4.929 -0.0292  0.0591  0.7171
 4048TIP3    H233560   0.841   0.310   5.015 -0.9593 -0.2011 -0.5882
 4049TIP3   OH233561   3.522   1.105  16.410 -0.1543  0.4565  0.0321
 4049TIP3    H133562   3.514   1.053  16.490  2.3010 -1.7777 -1.0130
 4049TIP3    H233563   3.463   1.179  16.423  0.5932  0.5522  4.1616
 4050TIP3   OH233564   0.827   1.813  12.736  0.2055 -0.1583 -0.0298
 4050TIP3    H133565   0.756   1.760  12.771  0.7802 -0.2596  1.0147
 4050TIP3    H233566   0.871   1.849  12.813  1.0554  0.2062 -0.6676
 4051TIP3   OH233567   4.899   6.270  16.321 -0.2977 -0.5927 -0.0828
 4051TIP3    H133568   4.866   6.274  16.410  0.3002 -0.9622  0.1573
 4051TIP3    H233569   4.963   6.200  16.322  1.8116  1.2400 -0.1054
 4052TIP3   OH233570   4.751   3.041   3.792  0.3148 -0.1048 -0.4238
 4052TIP3    H133571   4.748   2.954   3.833  2.2712  0.6475  1.4949
 4052TIP3    H233572   4.844   3.060   3.782 -0.0583  1.9218 -0.4541
 4053TIP3   OH233573   5.939   2.164   3.516 -0.1687  0.5115 -0.4749
 4053TIP3    H133574   5.979   2.247   3.490  1.2618  0.5350  1.5725
 4053TIP3    H233575   5.860   2.189   3.565  1.5416  0.8981  2.3100
 4054TIP3   OH233576   5.875   2.245   5.734  0.1170  0.9395  0.2636
 4054TIP3    H133577   5.916   2.185   5.671 -1.2853  0.7547 -0.5077
 4054TIP3    H233578   5.918   2.329   5.717 -0.4116  0.9552 -1.1623
 4055TIP3   OH233579   0.687   1.721  14.856 -0.6170  0.0093 -0.2394
 4055TIP3    H133580   0.625   1.748  14.924  0.7685  0.3799  0.9203
 4055TIP3    H233581   0.685   1.626  14.858  0.8721 -0.0531  1.7959
 4056TIP3   OH233582   5.209   1.871   0.630 -0.0518  0.0536  0.2308
 4056TIP3    H133583   5.239   1.867   0.720  1.3348 -2.1889 -0.2599
 4056TIP3    H233584   5.200   1.779   0.603 -1.3174  0.6633 -1.6327
 4057TIP3   OH233585   3.643   4.670   6.223  0.4811  0.2114  0.3534
 4057TIP3    H133586   3.562   4.632   6.188  1.2883 -2.8990  1.5178
 4057TIP3    H233587   3.622   4.693   6.313  0.0256  2.7304 -0.3147
 4058TIP3   OH233588   0.925   1.225  11.225 -0.1265 -0.4333  0.4050
 4058TIP3    H133589   0.868   1.279  11.280 -0.0395 -0.7907  0.8554
 4058TIP3    H233590   0.933   1.274  11.143 -2.3613 -1.1161 -0.2915
 4059TIP3   OH233591   6.059   0.714   0.929  0.3517 -0.4602  0.2985
 4059TIP3    H133592   6.115   0.677   0.860 -0.5430  0.1199 -0.7612
 4059TIP3    H233593   6.120   0.736   0.999  1.7481  1.6845 -1.4501
 4060TIP3   OH233594   6.599   1.106   4.908 -0.1075 -0.4915 -0.2306
 4060TIP3    H133595   6.519   1.074   4.950  1.2679 -2.6397  0.9817
 4060TIP3    H233596   6.590   1.201   4.908 -1.4007 -0.4971  2.6357
 4061TIP3   OH233597   3.113   3.165   2.717 -0.0369 -0.7304  0.5006
 4061TIP3    H133598   3.196   3.158   2.763  0.0637 -1.0512  0.2708
 4061TIP3    H233599   3.074   3.246   2.750  0.1695 -0.8030  0.9251
 4062TIP3   OH233600   4.544   1.457   5.874  0.0840  0.0496  0.0387
 4062TIP3    H133601   4.583   1.521   5.814  1.3532  0.7786  1.5879
 4062TIP3    H233602   4.466   1.501   5.908  0.2521  0.2718  0.1393
 4063TIP3   OH233603   6.429   6.759  12.406 -0.4079  0.2591  0.3142
 4063TIP3    H133604   6.521   6.736  12.414 -0.3087  1.0710  1.8101
 4063TIP3    H233605   6.382   6.678  12.427 -0.2210 -2.0073 -5.9761
 4064TIP3   OH233606   2.579   3.113  13.427  0.3229 -0.0584 -0.3799
 4064TIP3    H133607   2.670   3.114  13.457  0.1228  0.4458  0.2096
 4064TIP3    H233608   2.535   3.049  13.483 -0.1197  1.1085  0.6213
 4065TIP3   OH233609   0.036   1.070  16.814 -0.5738  0.2318  0.2375
 4065TIP3    H133610  -0.058   1.066  16.834 -0.6974  1.5325 -0.0323
 4065TIP3    H233611   0.071   0.990  16.853 -1.7565 -0.1711  0.5322
 4066TIP3   OH233612   1.538   1.671   2.764 -0.2271  0.3383  0.6338
 4066TIP3    H133613   1.612   1.611   2.767  1.1726  1.9138 -0.4881
 4066TIP3    H233614   1.557   1.736   2.832  0.9057  2.2906 -1.4289
 4067TIP3   OH233615   5.186   4.670  16.394 -0.4541  0.2139 -0.2365
 4067TIP3    H133616   5.214   4.738  16.334  0.5391 -0.1783 -0.2358
 4067TIP3    H233617   5.136   4.716  16.461 -1.4771  0.6759 -1.2667
 4068TIP3   OH233618   0.865   1.776   1.930 -0.0609  0.1765  0.0282
 4068TIP3    H133619   0.855   1.764   1.835  0.7741  0.1880 -0.0616
 4068TIP3    H233620   0.956   1.754   1.948 -0.5252 -1.0768  1.0224
 4069TIP3   OH233621   4.258   3.796   2.204  0.4211  0.6059  0.2680
 4069TIP3    H133622   4.344   3.776   2.241  1.8198  1.8369 -2.0859
 4069TIP3    H233623   4.263   3.889   2.180  0.2044 -0.2751 -4.0303
 4070TIP3   OH233624   1.596   5.562  11.143  0.1395  0.0691  0.2312
 4070TIP3    H133625   1.542   5.531  11.216  0.2370  1.1572  0.7823
 4070TIP3    H233626   1.599   5.488  11.083 -0.8783 -0.4673  0.8044
 4071TIP3   OH233627   2.243   0.645  11.590  0.0717  0.5795  0.5197
 4071TIP3    H133628   2.254   0.663  11.683 -0.0754 -0.2208  0.6942
 4071TIP3    H233629   2.156   0.681  11.569 -0.3902 -0.2625  0.9528
 4072TIP3   OH233630   5.720   5.628   1.485  0.0780 -0.3167 -0.0914
 4072TIP3    H133631   5.685   5.607   1.399  0.8133  1.3201 -0.8293
 4072TIP3    H233632   5.736   5.543   1.526 -1.4669 -1.1050 -1.0578
 4073TIP3   OH233633   0.108   1.445   5.914 -0.4301  0.5955 -0.2556
 4073TIP3    H133634   0.199   1.456   5.888  0.8137 -2.7875  1.9635
 4073TIP3    H233635   0.109   1.450   6.010 -2.4227 -0.1114 -0.1477
 4074TIP3   OH233636   5.286   2.119  13.033  0.0657 -0.4783  0.7431
 4074TIP3    H133637   5.374   2.117  12.996  0.4400 -0.3655  1.6014
 4074TIP3    H233638   5.298   2.155  13.121 -1.0415  1.0678  0.3112
 4075TIP3   OH233639   3.181   5.373   4.796  0.3306 -0.1441 -0.3575
 4075TIP3    H133640   3.242   5.397   4.726  0.4849 -0.4318 -0.3235
 4075TIP3    H233641   3.125   5.450   4.806 -0.9483 -0.7538 -2.1191
 4076TIP3   OH233642   4.016   6.450  15.734 -0.3794  0.0392  0.3847
 4076TIP3    H133643   4.048   6.480  15.819  0.2813  1.8280 -0.4349
 4076TIP3    H233644   3.984   6.529  15.691  1.7719 -0.2750 -2.0573
 4077TIP3   OH233645   4.840   1.716   2.757  0.1062 -0.0121 -0.1424
 4077TIP3    H133646   4.928   1.733   2.721  0.6179 -2.0326 -0.0084
 4077TIP3    H233647   4.841   1.757   2.843  1.2487 -0.7028  0.1994
 4078TIP3   OH233648   0.965   5.596  14.892 -0.1834 -0.3548 -0.0841
 4078TIP3    H133649   0.949   5.690  14.881  0.7649 -0.2997 -1.1996
 4078TIP3    H233650   1.057   5.590  14.919  0.0745 -0.9990 -1.0454
 4079TIP3   OH233651   5.678   1.374   3.463  0.0430 -0.2692  0.4593
 4079TIP3    H133652   5.602   1.403   3.413  1.0389 -1.9043 -2.1956
 4079TIP3    H233653   5.661   1.282   3.482  0.2855 -0.0159  2.0926
 4080TIP3   OH233654   3.186   0.082  11.089  0.4102 -0.1111 -0.8310
 4080TIP3    H133655   3.271   0.124  11.079  1.1027 -1.0821  0.7133
 4080TIP3    H233656   3.170   0.040  11.005  4.3530 -5.1034  0.4796
 4081TIP3   OH233657   1.233   4.409   4.850  0.5087 -0.7535  0.5495
 4081TIP3    H133658   1.298   4.480   4.851  0.8011 -1.0201  0.9142
 4081TIP3    H233659   1.248   4.362   4.932 -0.8975 -0.1609  1.1890
 4082TIP3   OH233660   4.562   2.812  12.266  0.5948  0.4850  0.1793
 4082TIP3    H133661   4.529   2.867  12.337  0.1364 -0.8821  1.0584
 4082TIP3    H233662   4.514   2.730  12.275 -0.4033  0.6760 -2.4960
 4083TIP3   OH233663   2.221   2.482   1.833  1.0244  0.1893  0.3919
 4083TIP3    H133664   2.180   2.569   1.826  0.8917  0.4410  3.1967
 4083TIP3    H233665   2.296   2.486   1.774  0.0805  1.6027 -0.7955
 4084TIP3   OH233666   1.191   5.950   2.043 -0.5872 -0.1645 -0.2002
 4084TIP3    H133667   1.279   5.952   2.005  0.0787 -0.9519  1.2259
 4084TIP3    H233668   1.147   6.026   2.003  0.9493  0.6789 -0.4133
 4085TIP3   OH233669   3.392   6.637   3.615  0.4081 -0.4389 -0.3557
 4085TIP3    H133670   3.482   6.620   3.642  0.0813 -0.2395  0.9184
 4085TIP3    H233671   3.340   6.575   3.666 -0.4470  1.5765  1.3870
 4086TIP3   OH233672   6.594   3.551  16.398 -0.2764  0.4178 -0.0552
 4086TIP3    H133673   6.617   3.467  16.358 -0.6987  0.4177 -0.3023
 4086TIP3    H233674   6.596   3.535  16.492  1.1137  0.5169 -0.0422
 4087TIP3   OH233675   5.759   6.007  12.980 -0.3454  0.1745  0.1668
 4087TIP3    H133676   5.764   5.995  13.075 -0.9888  0.6823  0.2738
 4087TIP3    H233677   5.775   6.100  12.966 -0.9651  0.2407 -0.1558
 4088TIP3   OH233678   3.827   3.352  16.776  0.1847 -0.3332 -0.0449
 4088TIP3    H133679   3.872   3.424  16.821  1.2473  0.4475 -2.2289
 4088TIP3    H233680   3.767   3.317  16.842  1.3477  0.9922  1.8285
 4089TIP3   OH233681   2.438   3.135   2.822 -0.9112  0.0026  0.1923
 4089TIP3    H133682   2.400   3.218   2.794 -0.3669  0.1734 -0.0477
 4089TIP3    H233683   2.460   3.089   2.741  0.6012  0.4708  0.2967
 4090TIP3   OH233684   2.837   4.353   5.821  0.2190  0.0057  0.9054
 4090TIP3    H133685   2.782   4.324   5.894  0.2092 -0.9410  0.5365
 4090TIP3    H233686   2.778   4.358   5.746  0.7649 -1.8722  0.3050
 4091TIP3   OH233687   6.068   4.921  14.560 -0.1199  1.0150  0.1370
 4091TIP3    H133688   5.977   4.893  14.571 -0.3068  0.9214 -1.3811
 4091TIP3    H233689   6.108   4.907  14.646 -1.8348  2.2349  1.2117
 4092TIP3   OH233690   2.513   6.332   1.277  0.1400 -0.3185  0.1327
 4092TIP3    H133691   2.509   6.281   1.359 -0.8011 -0.8424 -0.2226
 4092TIP3    H233692   2.425   6.326   1.241  0.1409  1.2036 -0.1605
 4093TIP3   OH233693   3.441   6.729  16.929  0.4245 -0.3590 -0.0276
 4093TIP3    H133694   3.452   6.654  16.986 -2.5545 -0.3822  0.6637
 4093TIP3    H233695   3.461   6.805  16.985  0.3216 -0.5005  0.2017
 4094TIP3   OH233696   1.214   6.192   1.375  0.2430  0.6641 -0.2114
 4094TIP3    H133697   1.214   6.140   1.295  0.3310 -0.1456  0.3024
 4094TIP3    H233698   1.223   6.283   1.345  0.6166  0.3452 -1.0945
 4095TIP3   OH233699   3.135   3.318   5.018 -0.3987 -0.1973 -0.3311
 4095TIP3    H133700   3.152   3.234   4.976 -0.3157 -0.9046  1.0682
 4095TIP3    H233701   3.221   3.351   5.043 -0.3566  0.7161 -1.5959
 4096TIP3   OH233702   3.184   6.715  13.438  0.0246  0.3401  0.1193
 4096TIP3    H133703   3.182   6.673  13.524 -0.8183 -0.7197 -0.3870
 4096TIP3    H233704   3.243   6.660  13.386 -2.0269 -0.9965 -0.9012
 4097TIP3   OH233705   2.304   6.676   0.651  0.4185  0.4552 -0.2405
 4097TIP3    H133706   2.389   6.640   0.676 -0.2501 -1.8537 -1.0328
 4097TIP3    H233707   2.271   6.717   0.731  2.1799  1.3201  0.1017
 4098TIP3   OH233708   4.863   0.222   1.626 -0.4438 -0.3669  0.3975
 4098TIP3    H133709   4.842   0.167   1.702 -1.0607  0.1812  0.6279
 4098TIP3    H233710   4.784   0.272   1.610 -0.5199 -0.8863 -0.9717
 4099TIP3   OH233711   3.341   0.426  12.213 -0.2235  0.1712  0.1579
 4099TIP3    H133712   3.386   0.399  12.133  1.1343 -0.3291  1.0574
 4099TIP3    H233713   3.372   0.515  12.230 -1.4632  0.7638 -0.5110
 4100TIP3   OH233714   6.537   2.443   4.261  0.1763  0.0094  0.5776
 4100TIP3    H133715   6.470   2.508   4.282 -1.2834 -1.4690  0.6929
 4100TIP3    H233716   6.520   2.370   4.321 -1.3895 -2.5257 -2.6079
 4101TIP3   OH233717   3.378   3.072   2.805  0.1526 -0.2081 -0.3578
 4101TIP3    H133718   3.339   3.006   2.863  2.2562 -0.9432  0.2925
 4101TIP3    H233719   3.411   3.140   2.864  1.0298 -0.2526 -0.7751
 4102TIP3   OH233720   3.802   3.915  17.021 -0.3817  0.5662  0.2167
 4102TIP3    H133721   3.775   3.823  17.029 -2.1818  1.1692  1.9911
 4102TIP3    H233722   3.744   3.951  16.954 -0.7768  0.7331  0.6351
 4103TIP3   OH233723   3.084   2.633   3.301  0.6398 -0.3270 -0.7370
 4103TIP3    H133724   3.054   2.638   3.211 -1.6684  2.4986  0.0182
 4103TIP3    H233725   3.011   2.596   3.349  1.8769 -1.9012  0.0228
 4104TIP3   OH233726   4.507   5.806  15.637 -0.5716  0.3909  0.6405
 4104TIP3    H133727   4.472   5.788  15.724 -1.1524 -1.2335  0.1115
 4104TIP3    H233728   4.602   5.811  15.650 -0.5071 -1.4154  1.1548
 4105TIP3   OH233729   0.555   0.165   4.302 -0.3982 -0.1520 -0.0601
 4105TIP3    H133730   0.590   0.115   4.229 -0.3084  2.4493 -1.9551
 4105TIP3    H233731   0.632   0.200   4.346 -0.4948  0.1506 -0.1309
 4106TIP3   OH233732   1.033   1.021  11.439  0.2119  0.1206  0.3276
 4106TIP3    H133733   0.959   0.960  11.441 -0.3579  0.8214  1.2597
 4106TIP3    H233734   1.025   1.065  11.354  0.8902 -1.3807 -0.5652
 4107TIP3   OH233735   5.762   4.590   1.291 -0.2437  0.4919 -0.8130
 4107TIP3    H133736   5.760   4.505   1.335 -2.1492 -0.7871 -3.1383
 4107TIP3    H233737   5.746   4.653   1.361 -1.2338 -1.2600  0.6456
 4108TIP3   OH233738   6.703   2.757   3.060  0.0863  0.0672 -0.5405
 4108TIP3    H133739   6.694   2.807   2.979  0.7940  0.2608 -0.5055
 4108TIP3    H233740   6.619   2.766   3.104 -0.6887 -0.9082 -1.7408
 4109TIP3   OH233741   5.384   1.117   3.777  0.5260 -0.2980 -1.0304
 4109TIP3    H133742   5.329   1.041   3.759 -0.2395  0.5346 -2.3874
 4109TIP3    H233743   5.321   1.189   3.788  1.1322 -0.0964  1.7962
 4110TIP3   OH233744   1.246   1.407   0.002 -0.0506  0.2392  0.2507
 4110TIP3    H133745   1.268   1.354  -0.074  1.3991 -0.1272  0.8821
 4110TIP3    H233746   1.225   1.343   0.070  1.1682  0.4469  0.8593
 4111TIP3   OH233747   2.637   0.150   0.482  0.2718 -0.4364  0.2980
 4111TIP3    H133748   2.663   0.069   0.439  0.8379 -0.7875  1.2713
 4111TIP3    H233749   2.703   0.164   0.550 -0.7468 -0.0604  1.2441
 4112TIP3   OH233750   6.086   1.964  14.987  0.7463 -0.2568 -0.0147
 4112TIP3    H133751   6.048   2.006  15.063 -1.7114 -0.1479 -1.2182
 4112TIP3    H233752   6.147   2.029  14.952 -2.2675  2.1004 -1.2982
 4113TIP3   OH233753   1.116   3.170  11.655  0.0983  0.0257 -0.5930
 4113TIP3    H133754   1.085   3.251  11.614 -0.5762 -0.5026 -1.1565
 4113TIP3    H233755   1.048   3.106  11.635  1.5743 -1.2058 -1.9591
 4114TIP3   OH233756   1.775   1.943   4.903 -0.5759  0.6701 -0.2632
 4114TIP3    H133757   1.706   1.985   4.852 -1.0576  0.4138  0.1735
 4114TIP3    H233758   1.741   1.940   4.992 -0.8731 -1.2811 -0.3928
 4115TIP3   OH233759   5.764   4.835   5.840  0.0943 -0.5183  0.0050
 4115TIP3    H133760   5.836   4.883   5.879 -0.5197  0.1170  0.3722
 4115TIP3    H233761   5.685   4.884   5.864 -0.6411 -2.1740  1.1554
 4116TIP3   OH233762   3.847   6.254   4.797 -0.0524 -0.0179 -0.0889
 4116TIP3    H133763   3.913   6.255   4.727  1.5193 -1.0382  1.3224
 4116TIP3    H233764   3.883   6.197   4.864  0.1526  3.4657  3.1281
 4117TIP3   OH233765   2.910   1.878  14.963 -0.0744 -0.0952  0.7170
 4117TIP3    H133766   2.940   1.969  14.966  0.7863 -0.3843  1.0537
 4117TIP3    H233767   2.882   1.859  15.052 -0.0784 -0.2224  0.6883
 4118TIP3   OH233768   0.168   3.034  11.313  0.6176  0.4005  0.4962
 4118TIP3    H133769   0.178   2.940  11.301  1.2414  0.6322 -1.0711
 4118TIP3    H233770   0.189   3.072  11.227 -0.1436  1.9311  0.9382
 4119TIP3   OH233771   2.628   2.304   3.636 -0.1061  0.5630  0.3328
 4119TIP3    H133772   2.597   2.218   3.663  0.5542 -0.1238 -1.0414
 4119TIP3    H233773   2.551   2.361   3.646 -0.5284 -0.1456  1.2966
 4120TIP3   OH233774   0.646   0.371  12.320 -0.4847  0.0299  0.2816
 4120TIP3    H133775   0.604   0.333  12.243 -0.8578 -0.1681  0.5782
 4120TIP3    H233776   0.732   0.398  12.289 -0.3237 -0.7934 -0.0130
 4121TIP3   OH233777   4.207   6.761   1.272 -0.5631 -0.2431  0.2153
 4121TIP3    H133778   4.267   6.710   1.217 -1.1116 -0.6303 -0.0380
 4121TIP3    H233779   4.212   6.850   1.238 -0.0752 -0.2569  0.2459
 4122TIP3   OH233780   3.130   4.432   4.927  0.2109 -0.2486  0.8538
 4122TIP3    H133781   3.089   4.405   5.009 -0.2041  0.5928  0.9344
 4122TIP3    H233782   3.123   4.527   4.927  3.0802  0.0492  1.3338
 4123TIP3   OH233783   0.068   5.306  15.373 -0.3339 -0.3695 -0.5615
 4123TIP3    H133784   0.006   5.358  15.323  0.1692 -0.2368 -1.0524
 4123TIP3    H233785   0.138   5.367  15.396 -0.3382 -0.5382 -0.0795
 4124TIP3   OH233786   6.214   1.525  15.654 -0.2778  0.1794  0.1972
 4124TIP3    H133787   6.272   1.587  15.611 -1.3791 -0.6537 -2.7641
 4124TIP3    H233788   6.273   1.458  15.690  0.7210  0.3517 -1.0428
 4125TIP3   OH233789   5.904   5.356   5.389  0.0946  0.4335 -0.2547
 4125TIP3    H133790   5.836   5.421   5.370  1.7779  1.7383 -2.2846
 4125TIP3    H233791   5.978   5.408   5.421  0.7715 -0.7317  0.0954
 4126TIP3   OH233792   2.546   2.098   0.397  0.6287  0.0808 -0.1720
 4126TIP3    H133793   2.536   2.192   0.380  0.9662  0.4272  1.3243
 4126TIP3    H233794   2.639   2.087   0.417  0.5315 -0.5103 -0.0155
 4127TIP3   OH233795   2.863   1.651  14.323  0.3735 -0.5900  0.0175
 4127TIP3    H133796   2.913   1.571  14.307  0.9070 -0.5789  1.4949
 4127TIP3    H233797   2.863   1.661  14.418  0.3581  1.1872 -0.1336
 4128TIP3   OH233798   2.969   2.855   2.386 -0.0173  0.0375  0.2156
 4128TIP3    H133799   2.945   2.924   2.324 -0.2757  0.2086  0.5059
 4128TIP3    H233800   2.890   2.802   2.395  0.5072 -0.9945 -0.8940
 4129TIP3   OH233801   2.706   5.146   4.746 -0.4258  0.1343 -0.0840
 4129TIP3    H133802   2.716   5.070   4.803 -1.3232 -0.6893 -1.0193
 4129TIP3    H233803   2.789   5.194   4.756 -0.4711 -0.0860  1.7429
 4130TIP3   OH233804   5.472   0.506  12.381 -0.4010 -0.0006  0.2821
 4130TIP3    H133805   5.491   0.438  12.317 -1.5215 -1.1260  1.0910
 4130TIP3    H233806   5.552   0.513  12.433  0.0228 -0.0801 -0.3521
 4131TIP3   OH233807   3.999   5.423   1.912 -0.0346 -0.7038 -0.2022
 4131TIP3    H133808   3.938   5.475   1.859  1.6556  0.5556 -0.9921
 4131TIP3    H233809   4.012   5.343   1.862 -1.4897 -1.2946  0.2923
 4132TIP3   OH233810   6.628   5.296  10.953  0.4796 -0.2281 -0.3242
 4132TIP3    H133811   6.609   5.367  11.013 -0.5607  0.0475 -0.9439
 4132TIP3    H233812   6.716   5.267  10.976  0.0840 -0.1849  1.3625
 4133TIP3   OH233813   2.564   3.318   0.348  0.5452  0.3216  0.3706
 4133TIP3    H133814   2.598   3.341   0.435 -1.0172 -0.6796  1.2954
 4133TIP3    H233815   2.547   3.402   0.306  2.9264  0.8491  0.3247
 4134TIP3   OH233816   4.444   4.930  10.694 -0.1320  0.0698  0.2904
 4134TIP3    H133817   4.509   4.887  10.637 -0.2729 -0.7295  0.7193
 4134TIP3    H233818   4.489   4.941  10.778 -0.3563  0.0517  0.4137
 4135TIP3   OH233819   4.849   6.709  11.378  0.6440  0.2630 -0.3825
 4135TIP3    H133820   4.936   6.678  11.352  0.6952 -0.7673  0.9271
 4135TIP3    H233821   4.838   6.791  11.329  1.0377 -1.1028 -2.9387
 4136TIP3   OH233822   4.669   3.347  15.039  0.6197 -0.1042 -0.1142
 4136TIP3    H133823   4.658   3.304  14.954  1.7981 -0.6968  0.0084
 4136TIP3    H233824   4.666   3.275  15.102  1.4122  0.1303  0.1999
 4137TIP3   OH233825   4.477   5.770  12.547  0.0462 -0.5423  0.3460
 4137TIP3    H133826   4.531   5.691  12.547 -0.5508 -0.9863 -0.8130
 4137TIP3    H233827   4.390   5.740  12.574 -0.6839 -0.7117 -1.9746
 4138TIP3   OH233828   1.530   1.494  10.721  0.7604 -0.4534  0.3459
 4138TIP3    H133829   1.608   1.465  10.674 -0.3267 -0.6852 -1.4381
 4138TIP3    H233830   1.497   1.568  10.669 -0.5556 -0.7715  0.6947
 4139TIP3   OH233831   3.945   2.199   2.099 -0.0257  0.2040 -0.2697
 4139TIP3    H133832   4.018   2.261   2.106  1.6169 -1.6723 -0.1453
 4139TIP3    H233833   3.964   2.148   2.020 -0.1017 -1.6191  0.8404
 4140TIP3   OH233834   4.812   0.796   5.248  0.5484  0.0080 -0.3732
 4140TIP3    H133835   4.803   0.891   5.248 -0.4870 -0.0719 -0.6367
 4140TIP3    H233836   4.731   0.765   5.289  0.9113 -0.7617 -0.2177
 4141TIP3   OH233837   5.082   2.335  13.091 -0.1094 -0.5658 -0.3597
 4141TIP3    H133838   5.073   2.299  13.179  3.0915 -0.3087  0.1869
 4141TIP3    H233839   5.066   2.429  13.102  2.2342 -0.1843  0.4648
 4142TIP3   OH233840   5.426   4.730  11.487  0.4563  0.3052  0.0414
 4142TIP3    H133841   5.496   4.795  11.489 -1.1240  2.1848 -1.4799
 4142TIP3    H233842   5.350   4.777  11.453 -1.6055 -1.6098  1.6425
 4143TIP3   OH233843   0.864   6.202   0.656  0.1856  0.0156 -0.4651
 4143TIP3    H133844   0.836   6.119   0.619 -0.6370 -0.4194  1.0916
 4143TIP3    H233845   0.958   6.192   0.670  0.0034 -0.8564  0.1946
 4144TIP3   OH233846   5.188   5.390  16.338 -0.5769 -0.5714 -0.0264
 4144TIP3    H133847   5.186   5.354  16.249 -1.7174  2.5385 -1.3995
 4144TIP3    H233848   5.114   5.451  16.340  0.6300  0.9488  2.3789
 4145TIP3   OH233849   0.026   5.152   4.431  0.1904  0.2916  0.3467
 4145TIP3    H133850   0.093   5.090   4.459  0.2997  0.6702  0.9228
 4145TIP3    H233851  -0.050   5.098   4.410  0.8761 -0.2169 -0.9976
 4146TIP3   OH233852   0.943   6.606  15.164  0.2973 -0.3612 -0.2030
 4146TIP3    H133853   0.911   6.579  15.250 -2.9322 -2.0378 -1.7470
 4146TIP3    H233854   0.962   6.524  15.119 -1.8814  0.1848 -2.3143
 4147TIP3   OH233855   5.978   2.583  15.794 -0.1163  0.0057 -0.1910
 4147TIP3    H133856   5.903   2.643  15.784 -0.5033 -0.2041  1.2879
 4147TIP3    H233857   5.951   2.504  15.747  0.2828  0.8425 -1.9168
 4148TIP3   OH233858   2.887   5.957  14.908 -0.1811 -0.4590 -1.0732
 4148TIP3    H133859   2.833   5.977  14.984  0.2264 -0.8762 -0.6635
 4148TIP3    H233860   2.913   6.042  14.872  1.0463 -0.2218  0.2802
 4149TIP3   OH233861   1.152   5.501  16.754  0.4663 -0.3772 -0.7588
 4149TIP3    H133862   1.152   5.537  16.665 -2.6323  0.4752 -0.5270
 4149TIP3    H233863   1.147   5.577  16.811  0.2882 -0.9784  0.0487
 4150TIP3   OH233864   5.421   0.440   4.971 -0.4959  0.6248  0.1047
 4150TIP3    H133865   5.455   0.527   4.994 -0.7476  0.2258  2.2037
 4150TIP3    H233866   5.498   0.391   4.942  0.3216  0.5678  2.1811
 4151TIP3   OH233867   4.933   0.337  14.043  0.3975 -0.3322 -0.0581
 4151TIP3    H133868   4.971   0.253  14.021  0.5944 -0.3787  0.4600
 4151TIP3    H233869   5.002   0.401  14.024  0.6892 -0.4020  0.7216
 4152TIP3   OH233870   1.744   6.737   0.529  0.0559  0.1876 -0.2365
 4152TIP3    H133871   1.759   6.748   0.623 -1.2229  0.1526 -0.0131
 4152TIP3    H233872   1.826   6.699   0.496  0.9176  1.2195  0.6550
 4153TIP3   OH233873   2.043   3.798  11.688 -0.3746  0.1297  0.0226
 4153TIP3    H133874   2.124   3.766  11.726 -1.2056 -0.0891  1.7273
 4153TIP3    H233875   2.037   3.755  11.603  1.5598  0.6192 -0.4119
 4154TIP3   OH233876   1.485   4.821  15.401 -0.5475 -0.0383 -0.3876
 4154TIP3    H133877   1.565   4.811  15.451 -1.1053  2.2641  1.0834
 4154TIP3    H233878   1.513   4.852  15.315  0.1476  0.2435 -0.0567
 4155TIP3   OH233879   1.401   6.429  12.530  0.2027 -0.3468 -0.4171
 4155TIP3    H133880   1.434   6.368  12.465  0.5334 -2.1765  1.3774
 4155TIP3    H233881   1.423   6.516  12.495  0.8507 -1.2696 -2.4340
 4156TIP3   OH233882   6.319   2.403  13.112 -0.1093  0.0586  0.0675
 4156TIP3    H133883   6.279   2.475  13.160  0.0869  0.3219 -0.1604
 4156TIP3    H233884   6.402   2.439  13.079 -0.1087 -0.2057 -0.2248
 4157TIP3   OH233885   0.293   2.141   1.111  0.1614  0.0536  0.7110
 4157TIP3    H133886   0.353   2.155   1.038  0.1388 -0.4569  0.5859
 4157TIP3    H233887   0.299   2.221   1.163 -1.3272  1.3126 -0.9100
 4158TIP3   OH233888   1.961   5.191   3.106 -0.3252 -0.3193 -1.1195
 4158TIP3    H133889   1.905   5.257   3.064 -1.0662 -0.4904 -0.4224
 4158TIP3    H233890   1.944   5.110   3.057 -1.1913 -0.5199 -0.5030
 4159TIP3   OH233891   1.505   3.973   5.192  0.2869 -0.1789 -0.1717
 4159TIP3    H133892   1.514   3.911   5.120  2.3431  0.0100 -0.1186
 4159TIP3    H233893   1.415   4.006   5.184  0.3151 -0.5181 -2.3369
 4160TIP3   OH233894   3.197   5.868   4.845  0.4763  0.0525  0.4392
 4160TIP3    H133895   3.233   5.903   4.763  1.4136 -1.0121  0.3680
 4160TIP3    H233896   3.238   5.921   4.913 -0.2595  0.9027  0.2413
 4161TIP3   OH233897   3.657   4.530  11.931 -0.5619  0.4028 -0.0555
 4161TIP3    H133898   3.563   4.529  11.910 -0.9379 -4.0464  0.6843
 4161TIP3    H233899   3.659   4.545  12.026 -0.6361 -0.3883  0.0779
 4162TIP3   OH233900   0.886   0.953  15.894 -0.1738 -0.3983  0.5092
 4162TIP3    H133901   0.790   0.960  15.894 -0.2363  0.7925 -3.1323
 4162TIP3    H233902   0.912   0.985  15.981 -3.0128  0.5579  1.1303
 4163TIP3   OH233903   5.142   6.029  14.593  0.2982  0.2772  0.5627
 4163TIP3    H133904   5.071   6.079  14.554 -0.4143  0.4028  1.9375
 4163TIP3    H233905   5.189   5.991  14.519 -1.0405  0.4044 -0.3829
 4164TIP3   OH233906   0.066   4.865   3.222 -0.1645  0.3233 -0.2578
 4164TIP3    H133907  -0.001   4.810   3.264 -0.2587 -0.6557 -1.6233
 4164TIP3    H233908   0.019   4.945   3.198 -0.5390  0.1606 -0.0798
 4165TIP3   OH233909   2.923   4.409  14.958 -0.2834 -0.0505 -0.7562
 4165TIP3    H133910   2.898   4.341  15.021  0.1210 -0.3158 -0.8809
 4165TIP3    H233911   3.018   4.404  14.953 -0.0659  1.7418  0.6006
 4166TIP3   OH233912   1.335   2.621  16.300  0.1791  0.1616 -0.1627
 4166TIP3    H133913   1.264   2.556  16.303 -1.1993  1.6238  0.6258
 4166TIP3    H233914   1.335   2.651  16.209  0.0182 -0.0859 -0.2479
 4167TIP3   OH233915   5.296   6.679   1.973 -0.1427  0.0673 -0.2012
 4167TIP3    H133916   5.224   6.639   2.023 -0.5315 -2.0236 -2.2664
 4167TIP3    H233917   5.261   6.687   1.884  1.3994  1.2261 -0.7346
 4168TIP3   OH233918   3.835   5.284  16.515 -0.0657 -0.7635  0.8982
 4168TIP3    H133919   3.761   5.309  16.572 -1.8272 -1.4011 -0.9770
 4168TIP3    H233920   3.833   5.348  16.444  2.6080  0.5200  1.8638
 4169TIP3   OH233921   1.858   4.300   5.404 -0.3453  0.1766  0.3692
 4169TIP3    H133922   1.852   4.209   5.433 -2.2112  0.2604  0.4146
 4169TIP3    H233923   1.808   4.302   5.323 -0.9941  1.2926  0.7719
 4170TIP3   OH233924   5.050   2.965  10.897  0.5034  0.3409  0.3720
 4170TIP3    H133925   5.048   3.061  10.887  1.2444  0.2160 -1.1365
 4170TIP3    H233926   5.118   2.949  10.962  0.1813  0.8507  0.8423
 4171TIP3   OH233927   3.535   2.355   5.166 -0.4021  0.0253  0.5125
 4171TIP3    H133928   3.580   2.387   5.244 -0.1552  0.5008  0.1779
 4171TIP3    H233929   3.519   2.262   5.184  1.1960 -0.2950  0.4340
 4172TIP3   OH233930   2.647   1.219   3.497  0.2783 -0.6807  0.0421
 4172TIP3    H133931   2.683   1.250   3.414 -0.5395  0.3689  0.0502
 4172TIP3    H233932   2.648   1.297   3.554 -0.6168 -0.9803  0.4988
 4173TIP3   OH233933   2.685   2.419  15.584 -0.0432  0.4594  0.0389
 4173TIP3    H133934   2.688   2.483  15.655 -1.1769  0.1916  0.3449
 4173TIP3    H233935   2.643   2.467  15.511 -0.3030  0.2712  0.0625
 4174TIP3   OH233936   1.452   3.324   5.843  0.0887 -0.3405 -0.2748
 4174TIP3    H133937   1.473   3.310   5.936  0.2009 -2.1077 -0.5268
 4174TIP3    H233938   1.522   3.380   5.810  0.6282 -0.5605  0.4758
 4175TIP3   OH233939   4.833   0.368  12.409  0.4907  0.4808 -0.4506
 4175TIP3    H133940   4.802   0.457  12.393 -0.7691  0.1224 -0.1387
 4175TIP3    H233941   4.775   0.334  12.478  0.7833 -0.6670 -0.7432
 4176TIP3   OH233942   6.460   1.207  13.651 -0.5160  0.3099  0.4211
 4176TIP3    H133943   6.534   1.260  13.681  0.2567 -0.4861 -0.0445
 4176TIP3    H233944   6.468   1.124  13.698 -0.1330 -0.4027 -0.8388
 4177TIP3   OH233945   4.887   5.425   1.517  0.3666 -0.0472  0.1977
 4177TIP3    H133946   4.981   5.446   1.519 -0.1360  3.1071 -1.9494
 4177TIP3    H233947   4.849   5.477   1.587  0.1961 -1.9618  1.6277
 4178TIP3   OH233948   6.505   2.704  13.370 -0.5959 -0.9520 -0.2936
 4178TIP3    H133949   6.586   2.754  13.363 -1.3707  0.3611 -0.1777
 4178TIP3    H233950   6.498   2.684  13.464  1.4200 -4.2935 -0.7062
 4179TIP3   OH233951   1.643   5.276   0.284 -0.9584 -0.7323  0.1954
 4179TIP3    H133952   1.628   5.359   0.238  1.2351  0.1694  0.9920
 4179TIP3    H233953   1.602   5.210   0.227  0.2414  0.4976 -2.2667
 4180TIP3   OH233954   6.221   1.744  15.228  0.3593  0.2931  0.1477
 4180TIP3    H133955   6.152   1.764  15.165  0.6329 -1.5664 -0.8084
 4180TIP3    H233956   6.176   1.708  15.304  0.2735 -1.6429 -0.7781
 4181TIP3   OH233957   4.126   6.171   1.680 -0.3909 -0.3539  0.4515
 4181TIP3    H133958   4.207   6.129   1.649 -0.1459  0.0673  0.5113
 4181TIP3    H233959   4.150   6.263   1.691 -1.8090  0.5944 -3.0141
 4182TIP3   OH233960   1.919   5.546  16.008  0.2600 -0.0223  0.2757
 4182TIP3    H133961   1.925   5.573  15.916  0.7604  0.6741  0.5066
 4182TIP3    H233962   1.840   5.590  16.041  0.5458  0.3943  0.4011
 4183TIP3   OH233963   1.366   6.373   5.913 -0.2970  0.0480  0.2688
 4183TIP3    H133964   1.291   6.402   5.862 -0.8830 -0.5351  0.7816
 4183TIP3    H233965   1.404   6.302   5.861  0.6283  1.1386 -0.5719
 4184TIP3   OH233966   0.091   4.232   3.690 -0.7029 -0.2179  0.0507
 4184TIP3    H133967   0.034   4.308   3.699  0.6768  0.7323  1.2071
 4184TIP3    H233968   0.085   4.187   3.774  0.1827 -0.1336  0.1724
 4185TIP3   OH233969   4.064   6.433  14.295  0.3903 -0.0238 -0.2656
 4185TIP3    H133970   4.113   6.447  14.214  0.8551 -3.8941 -0.8461
 4185TIP3    H233971   4.129   6.444  14.364  0.7502  0.2369 -0.6375
 4186TIP3   OH233972   5.131   6.744  12.839 -0.5949 -0.4453 -0.1890
 4186TIP3    H133973   5.104   6.808  12.773 -1.4571 -0.7679 -0.1628
 4186TIP3    H233974   5.130   6.791  12.922  2.8011  0.6448 -0.6063
 4187TIP3   OH233975   3.982   4.673   4.481 -0.1385  0.1059  0.0084
 4187TIP3    H133976   3.929   4.632   4.413  0.8101  0.5347 -1.0152
 4187TIP3    H233977   4.072   4.667   4.449  0.2567  0.9315  0.9027
 4188TIP3   OH233978   1.575   1.211   1.868 -0.8025  0.1934 -0.3911
 4188TIP3    H133979   1.618   1.190   1.784 -3.2954 -1.2061 -1.4213
 4188TIP3    H233980   1.554   1.304   1.862 -0.3130  0.2710 -1.0127
 4189TIP3   OH233981   5.210   6.181   0.223 -0.4884  0.0553 -0.1159
 4189TIP3    H133982   5.137   6.222   0.177 -0.5114  0.0847 -0.0530
 4189TIP3    H233983   5.272   6.158   0.153 -0.4348  0.2809 -0.1431
 4190TIP3   OH233984   5.213   4.516  14.746  0.3465  1.0147  0.2931
 4190TIP3    H133985   5.130   4.507  14.793  0.9681 -1.5986  1.0757
 4190TIP3    H233986   5.189   4.507  14.654 -0.3116  1.0249  0.4540
 4191TIP3   OH233987   5.077   1.393   4.345 -0.3906 -0.1004  0.0563
 4191TIP3    H133988   5.001   1.357   4.391  0.3847 -1.1825  0.5170
 4191TIP3    H233989   5.082   1.484   4.375 -1.2245 -0.1476  0.3754
 4192TIP3   OH233990   1.529   4.248   1.076 -0.3600 -0.0445 -0.1499
 4192TIP3    H133991   1.544   4.316   1.141  0.9427 -0.1677 -0.2936
 4192TIP3    H233992   1.512   4.296   0.995 -2.7049  0.1206  0.3783
 4193TIP3   OH233993   0.383   4.604  13.355 -0.1119  0.2634  0.4929
 4193TIP3    H133994   0.405   4.641  13.270 -1.3831  0.4866  0.2365
 4193TIP3    H233995   0.431   4.658  13.418  1.0775 -0.0914 -0.0773
 4194TIP3   OH233996   3.456   4.663  13.252 -0.4224  0.5753 -0.1257
 4194TIP3    H133997   3.459   4.702  13.165 -0.5045  0.3490 -0.2272
 4194TIP3    H233998   3.546   4.672  13.285 -0.0746 -0.5324 -0.7478
 4195TIP3   OH233999   4.153   5.661   4.214  0.5336  0.2253 -0.5940
 4195TIP3    H134000   4.247   5.667   4.198  0.5731  0.0979 -0.4039
 4195TIP3    H234001   4.143   5.588   4.276  0.4919  1.5566  1.0173
 4196TIP3   OH234002   1.621   2.829  13.548 -0.1087 -0.5087  0.5900
 4196TIP3    H134003   1.665   2.799  13.628  0.6408  3.2566  1.8059
 4196TIP3    H234004   1.675   2.795  13.477  0.4286 -2.1721  1.7190
 4197TIP3   OH234005   1.187   0.050  11.672  0.0756 -0.1601  0.0075
 4197TIP3    H134006   1.122  -0.006  11.713 -0.3608 -0.8161 -1.4990
 4197TIP3    H234007   1.170   0.137  11.707  0.6409 -0.8952  2.2440
 4198TIP3   OH234008   5.194   6.055  13.875  0.1477  0.2109 -0.1547
 4198TIP3    H134009   5.262   5.989  13.860  1.1799  1.3084 -0.4328
 4198TIP3    H234010   5.235   6.117  13.935 -0.0698  1.6897 -1.5023
 4199TIP3   OH234011   2.707   5.474   0.802 -0.0209  0.2568 -0.0018
 4199TIP3    H134012   2.759   5.400   0.773 -1.8025 -1.1762  0.2468
 4199TIP3    H234013   2.740   5.493   0.890 -0.5139 -1.2597  0.5433
 4200TIP3   OH234014   3.674   2.383   4.916  0.1642 -0.0518  0.0760
 4200TIP3    H134015   3.632   2.375   5.001  0.4881 -2.2654  0.0701
 4200TIP3    H234016   3.654   2.473   4.888 -2.0410 -0.0869  1.3543
 4201TIP3   OH234017   0.656   0.494   4.181 -0.4891  0.4357  0.1415
 4201TIP3    H134018   0.581   0.549   4.156 -0.2986 -0.0056 -1.5346
 4201TIP3    H234019   0.651   0.419   4.121  1.4409  0.5294 -0.1919
 4202TIP3   OH234020   6.654   2.547  15.668 -0.6805 -0.2094 -0.5731
 4202TIP3    H134021   6.575   2.498  15.644 -0.5454 -0.4707 -0.4906
 4202TIP3    H234022   6.630   2.639  15.656 -1.1261 -0.2688 -0.1633
 4203TIP3   OH234023   3.740   3.115   2.803 -0.5219 -0.5162  0.6079
 4203TIP3    H134024   3.696   3.032   2.786  1.1595 -0.9514 -2.3560
 4203TIP3    H234025   3.828   3.089   2.832  0.3557  0.1213 -1.3139
 4204TIP3   OH234026   6.515   3.076   4.750  0.2318  0.1699 -0.0775
 4204TIP3    H134027   6.502   3.031   4.833  0.7285  1.1321  0.5469
 4204TIP3    H234028   6.601   3.117   4.758  0.0749  0.6890 -0.8686
 4205TIP3   OH234029   3.943   2.431   6.612 -0.1564 -0.3973  0.0950
 4205TIP3    H134030   4.013   2.492   6.633  1.2448 -1.5668 -0.9717
 4205TIP3    H234031   3.864   2.485   6.605  0.8839  1.1372  0.0168
 4206TIP3   OH234032   3.968   1.357  13.900  0.3474 -0.3177 -0.5393
 4206TIP3    H134033   3.908   1.312  13.840 -1.5288  0.9479  0.2696
 4206TIP3    H234034   3.937   1.333  13.987  0.4190  1.0817 -0.1011
 4207TIP3   OH234035   3.476   3.358  11.243  0.5020 -0.1319 -0.3267
 4207TIP3    H134036   3.402   3.383  11.298  1.3531 -0.1841  0.8781
 4207TIP3    H234037   3.449   3.275  11.202  0.5313 -1.0366  1.4085
 4208TIP3   OH234038   3.315   6.520   1.533  0.3762 -0.0222 -0.0566
 4208TIP3    H134039   3.282   6.544   1.447 -0.3730  1.5642  0.6442
 4208TIP3    H234040   3.364   6.597   1.563  1.1255 -0.7647  0.7088
 4209TIP3   OH234041   4.634   0.768  15.343  0.6304 -0.1657  0.0550
 4209TIP3    H134042   4.637   0.749  15.437  1.9782  0.2174  0.1128
 4209TIP3    H234043   4.662   0.687  15.301 -1.2454 -0.7724 -0.1155
 4210TIP3   OH234044   2.439   6.686   1.837 -0.2479 -0.0615  0.0857
 4210TIP3    H134045   2.526   6.707   1.869 -0.7732 -0.0625  1.5751
 4210TIP3    H234046   2.379   6.728   1.899 -1.3190  0.0053 -0.9429
 4211TIP3   OH234047   0.977   5.142   1.225  0.0381  0.0007  0.3316
 4211TIP3    H134048   0.940   5.115   1.141 -0.2723  1.0676  0.1163
 4211TIP3    H234049   0.915   5.206   1.259  0.7462  0.4339  0.8336
 4212TIP3   OH234050   3.228   4.416   3.296  0.0947 -0.3279  0.0683
 4212TIP3    H134051   3.201   4.500   3.334 -0.5168 -0.5446  0.1215
 4212TIP3    H234052   3.316   4.433   3.261  0.0495  0.2836  0.2352
 4213TIP3   OH234053   6.163   5.169  12.366  0.2304 -0.0564  0.0511
 4213TIP3    H134054   6.106   5.161  12.442  1.4565 -0.5099  0.9517
 4213TIP3    H234055   6.117   5.123  12.296 -0.2569 -0.9058  0.9093
 4214TIP3   OH234056   1.913   5.466   0.177  0.2456  0.0550  0.4375
 4214TIP3    H134057   1.931   5.471   0.084  0.1427 -0.6006  0.3796
 4214TIP3    H234058   1.840   5.526   0.191  0.0607 -0.0794  0.0437
 4215TIP3   OH234059   6.666   5.927  11.403  0.0208  0.3349  0.1459
 4215TIP3    H134060   6.716   5.846  11.388  0.9732  1.2126 -1.9416
 4215TIP3    H234061   6.707   5.966  11.480 -0.2631 -1.0042  1.0101
 4216TIP3   OH234062   6.086   0.356  15.170  0.3286 -0.3248 -0.3592
 4216TIP3    H134063   6.160   0.326  15.222 -1.1125 -1.2277  1.2564
 4216TIP3    H234064   6.055   0.277  15.125  0.6875  0.1673 -1.5050
 4217TIP3   OH234065   6.767   1.070   4.283  0.2486 -0.1649 -0.2986
 4217TIP3    H134066   6.710   1.107   4.352  1.4383  3.0781 -0.8745
 4217TIP3    H234067   6.852   1.060   4.325  0.3550 -0.6907 -0.6293
 4218TIP3   OH234068   2.300   2.111   1.718  0.0007 -0.0589  0.1419
 4218TIP3    H134069   2.264   2.155   1.796 -0.7019  1.4850 -0.9976
 4218TIP3    H234070   2.382   2.072   1.749 -0.1411  0.7107  1.6110
 4219TIP3   OH234071   1.717   5.631   2.645  0.7804 -0.2986  0.2593
 4219TIP3    H134072   1.630   5.667   2.628  0.9032  0.2515  0.7719
 4219TIP3    H234073   1.719   5.549   2.596  0.0686 -0.1851  0.0332
 4220TIP3   OH234074   5.700   6.174   0.217  0.4278  0.3723  0.3195
 4220TIP3    H134075   5.716   6.133   0.132 -1.1657 -0.9034  0.6046
 4220TIP3    H234076   5.638   6.245   0.199 -0.5344 -0.4035  0.5073
 4221TIP3   OH234077   6.580   5.249   3.816  0.1205 -0.1799  0.1055
 4221TIP3    H134078   6.576   5.339   3.783 -1.6932 -0.5351 -0.7637
 4221TIP3    H234079   6.490   5.218   3.810  0.3610 -1.4405  2.1971
 4222TIP3   OH234080   5.748   3.099   2.170  0.0266 -0.0733  0.1509
 4222TIP3    H134081   5.732   3.044   2.094  0.8060  1.2684 -1.0399
 4222TIP3    H234082   5.716   3.186   2.144  0.4836  0.4539  1.2741
 4223TIP3   OH234083   3.062   2.164  16.590  0.3072 -0.2824  0.1310
 4223TIP3    H134084   3.137   2.104  16.582 -0.4796 -1.4588  1.1634
 4223TIP3    H234085   2.991   2.122  16.542  0.0446  0.3961 -0.0959
 4224TIP3   OH234086   0.173   0.038  12.906  0.1457 -0.1472  0.0605
 4224TIP3    H134087   0.175   0.038  13.002 -2.0757  0.0825  0.1617
 4224TIP3    H234088   0.223   0.116  12.881  1.6318 -0.7755  0.9519
 4225TIP3   OH234089   1.420   6.113  16.981 -0.0928  0.1901  0.0303
 4225TIP3    H134090   1.489   6.142  16.921  1.2746 -0.9558  0.9573
 4225TIP3    H234091   1.351   6.178  16.972  1.3693  1.7559 -0.4880
 4226TIP3   OH234092   0.121   4.764  16.958 -0.1853 -0.2767 -0.4300
 4226TIP3    H134093   0.191   4.699  16.968 -1.3645 -1.4870  0.1445
 4226TIP3    H234094   0.117   4.809  17.042  1.7401  1.7935 -1.3106
 4227TIP3   OH234095   4.425   1.054  11.562 -0.1419  0.4544  0.9281
 4227TIP3    H134096   4.442   1.001  11.484 -1.4707  1.6359 -0.2333
 4227TIP3    H234097   4.453   0.999  11.635  1.0722 -0.7275 -0.3582
 4228TIP3   OH234098   1.754   5.555   0.890  0.3144 -0.2906  0.5513
 4228TIP3    H134099   1.722   5.601   0.813  2.6531 -0.1087 -0.4038
 4228TIP3    H234100   1.836   5.515   0.861  0.4395 -1.5830  2.5177
 4229TIP3   OH234101   2.950   6.571  13.169 -0.1768  0.4114 -0.5008
 4229TIP3    H134102   3.004   6.560  13.091 -0.8210  0.9074 -1.0244
 4229TIP3    H234103   2.865   6.534  13.146 -0.2954  0.3186  0.0578
 4230TIP3   OH234104   5.356   5.056   4.507 -0.3386 -0.7706  0.6740
 4230TIP3    H134105   5.438   5.082   4.466 -1.1751 -0.4360 -0.8583
 4230TIP3    H234106   5.362   5.089   4.596  0.9308 -0.2191  0.4016
 4231TIP3   OH234107   1.650   4.091  13.746 -0.4550 -0.5783  0.0145
 4231TIP3    H134108   1.614   4.058  13.828 -0.9616 -1.5980 -0.5936
 4231TIP3    H234109   1.667   4.012  13.694 -0.4242  0.0554 -0.9606
 4232TIP3   OH234110   0.028   1.791   6.194  0.2641  0.3977 -0.0823
 4232TIP3    H134111  -0.027   1.717   6.219  1.4367 -0.4586  0.0352
 4232TIP3    H234112   0.115   1.769   6.228  0.8454  1.3921 -0.8662
 4233TIP3   OH234113   0.769   4.280   4.748 -0.3440 -0.3144 -0.0116
 4233TIP3    H134114   0.807   4.364   4.772 -0.2197 -0.2146 -0.5446
 4233TIP3    H234115   0.836   4.216   4.773  0.2779 -0.1284 -1.0876
 4234TIP3   OH234116   1.843   2.529  12.974 -0.1530 -0.3211 -0.4165
 4234TIP3    H134117   1.933   2.512  13.002 -0.0454 -0.0856 -0.6168
 4234TIP3    H234118   1.790   2.513  13.053  0.0438 -0.6379 -0.3489
 4235TIP3   OH234119   5.250   2.360  17.077  0.2000  0.4907  0.1327
 4235TIP3    H134120   5.233   2.434  17.136 -2.8559  0.3510 -0.4131
 4235TIP3    H234121   5.296   2.398  17.003 -0.4553  1.6942  0.3183
 4236TIP3   OH234122   6.464   3.600  16.094 -0.1381 -0.7381  0.0641
 4236TIP3    H134123   6.559   3.601  16.092 -0.1434 -1.1606 -0.6166
 4236TIP3    H234124   6.442   3.556  16.176  0.2609 -1.0189  0.0230
 4237TIP3   OH234125   4.646   5.849   2.777  0.3325 -0.4160  0.4028
 4237TIP3    H134126   4.610   5.924   2.825 -2.0937 -0.2215 -1.5612
 4237TIP3    H234127   4.692   5.888   2.702  1.8237 -0.8369  1.0481
 4238TIP3   OH234128   1.751   5.461  10.558  0.3200 -0.3406  0.3073
 4238TIP3    H134129   1.711   5.548  10.554  1.8857  0.6191  2.6664
 4238TIP3    H234130   1.708   5.418  10.632  1.9683 -0.1465  1.4366
 4239TIP3   OH234131   0.104   3.135   2.085  0.2778  0.0093  0.0496
 4239TIP3    H134132   0.033   3.197   2.099 -0.4812 -0.6722 -0.6763
 4239TIP3    H234133   0.137   3.115   2.173 -2.3637 -1.8931  0.7269
 4240TIP3   OH234134   3.241   5.640   1.480 -0.0259  0.2908 -0.0327
 4240TIP3    H134135   3.287   5.720   1.506 -0.8773  1.0469 -0.7704
 4240TIP3    H234136   3.257   5.633   1.386 -0.6817  0.0807 -0.1328
 4241TIP3   OH234137   0.228   0.418  16.142  0.3337 -0.1540 -0.3739
 4241TIP3    H134138   0.215   0.407  16.048 -0.2724  0.2426 -0.3385
 4241TIP3    H234139   0.143   0.444  16.175  0.4398 -0.7017  0.3518
 4242TIP3   OH234140   4.797   1.001  13.512  0.2481  0.4918 -0.1819
 4242TIP3    H134141   4.755   0.973  13.594  0.9316  0.7906  0.2825
 4242TIP3    H234142   4.816   0.920  13.466  0.6416  0.2692  0.3570
 4243TIP3   OH234143   3.289   2.339   5.798 -0.3220  0.3242  0.0843
 4243TIP3    H134144   3.385   2.340   5.794 -0.2967 -0.5696  0.1954
 4243TIP3    H234145   3.268   2.356   5.889 -0.2717  0.6370  0.0376
 4244TIP3   OH234146   2.012   6.721  12.551  0.6105  0.2149 -0.1941
 4244TIP3    H134147   2.107   6.711  12.557  0.4644 -0.7811  0.8209
 4244TIP3    H234148   1.985   6.747  12.639 -0.2370 -1.3164  0.0248
 4245TIP3   OH234149   1.517   0.658   1.694  0.3326 -0.2008  0.0694
 4245TIP3    H134150   1.556   0.605   1.764 -0.6554  0.3534  1.0750
 4245TIP3    H234151   1.590   0.678   1.636  1.3633 -0.0041  1.3672
 4246TIP3   OH234152   1.955   2.643   4.469 -0.1955 -0.8181 -0.0244
 4246TIP3    H134153   1.936   2.590   4.392 -1.3614 -0.0412 -0.2820
 4246TIP3    H234154   1.906   2.600   4.540  0.6455 -1.3646  0.2395
 4247TIP3   OH234155   5.134   1.249  12.543  0.1009 -0.2729 -0.3137
 4247TIP3    H134156   5.221   1.212  12.524 -0.6489 -2.6961  0.5646
 4247TIP3    H234157   5.093   1.259  12.457  0.8421 -0.1379 -0.6640
 4248TIP3   OH234158   3.223   1.919   2.114  0.4558  0.2429 -0.0142
 4248TIP3    H134159   3.130   1.897   2.110  0.2986  0.2203  2.2238
 4248TIP3    H234160   3.267   1.834   2.123  0.6878  0.2574 -1.0034
 4249TIP3   OH234161   2.926   4.001   3.792 -0.3899 -0.0860  0.2524
 4249TIP3    H134162   2.906   3.924   3.844  0.4270  0.1495  0.9359
 4249TIP3    H234163   3.022   4.009   3.795 -0.4591  0.9611  0.2200
 4250TIP3   OH234164   1.976   3.540   0.715  0.1202 -0.4072  0.4795
 4250TIP3    H134165   1.925   3.583   0.784  2.8956 -0.9485  3.0776
 4250TIP3    H234166   1.984   3.606   0.646 -2.4101  0.3042  0.7544
 4251TIP3   OH234167   0.871   3.024  15.734  0.2036  0.1817 -0.0015
 4251TIP3    H134168   0.912   3.073  15.805 -0.7423 -2.0507  2.2151
 4251TIP3    H234169   0.788   2.993  15.770  0.6313 -2.8131 -1.3180
 4252TIP3   OH234170   4.323   3.433  12.887  0.1734 -0.1194 -0.2607
 4252TIP3    H134171   4.271   3.513  12.876 -1.0810 -1.0659 -1.5680
 4252TIP3    H234172   4.395   3.442  12.825  2.0662  1.4639  1.9622
 4253TIP3   OH234173   4.779   3.000  16.923  0.0781  0.6654  0.6403
 4253TIP3    H134174   4.760   2.927  16.865 -1.2925  1.9283 -0.5882
 4253TIP3    H234175   4.821   2.960  16.999  2.1060 -1.0348 -1.2554
 4254TIP3   OH234176   1.425   3.109   0.916 -0.2336 -0.0360 -0.2171
 4254TIP3    H134177   1.429   3.193   0.869  0.0609  0.2553  0.3240
 4254TIP3    H234178   1.447   3.043   0.849  0.4929  0.4011 -0.4262
 4255TIP3   OH234179   5.405   4.698  10.331  0.2193  0.9134 -0.1627
 4255TIP3    H134180   5.365   4.785  10.336  1.0234  1.2116  2.2394
 4255TIP3    H234181   5.489   4.707  10.375  1.5284 -0.4923 -2.2093
 4256TIP3   OH234182   2.011   2.027  14.844  0.4840  0.0744 -0.1386
 4256TIP3    H134183   2.062   2.104  14.871  2.0568 -0.9509 -0.0685
 4256TIP3    H234184   2.069   1.978  14.786 -1.1502 -0.1823 -1.6342
 4257TIP3   OH234185   2.505   0.177  16.821 -0.2297  0.2449 -0.1888
 4257TIP3    H134186   2.484   0.086  16.846 -0.7084 -0.7149 -3.5285
 4257TIP3    H234187   2.421   0.223  16.828 -0.8514 -0.5345 -1.8063
 4258TIP3   OH234188   0.346   4.997   5.180 -0.5779 -0.0033 -0.2068
 4258TIP3    H134189   0.417   4.965   5.123 -0.8242  0.5896 -0.8572
 4258TIP3    H234190   0.342   4.933   5.251  1.7389  0.8267  0.7757
 4259TIP3   OH234191   6.538   6.758  14.692  1.1838 -0.4974 -0.3162
 4259TIP3    H134192   6.601   6.807  14.639  0.1777  0.5911 -0.5298
 4259TIP3    H234193   6.492   6.702  14.630 -1.5799  2.3802 -1.1584
 4260TIP3   OH234194   3.375   2.268   2.408 -0.0876  0.0865  0.5132
 4260TIP3    H134195   3.382   2.323   2.486 -1.6573  1.0474  0.0350
 4260TIP3    H234196   3.420   2.317   2.340 -0.4884  0.2317  0.3510
 4261TIP3   OH234197   1.815   2.625  11.063  0.1048  0.2141  0.1204
 4261TIP3    H134198   1.752   2.666  11.004  0.0770  0.9350  0.6426
 4261TIP3    H234199   1.776   2.541  11.085 -0.7963  0.7571  0.6418
 4262TIP3   OH234200   2.315   1.612  14.626 -0.0245 -0.2765 -0.4143
 4262TIP3    H134201   2.381   1.681  14.631  0.0462 -0.3849  0.1724
 4262TIP3    H234202   2.316   1.585  14.534  1.6650 -1.1667 -0.1633
 4263TIP3   OH234203   4.354   3.188  15.182 -0.7798 -0.4680  0.3734
 4263TIP3    H134204   4.424   3.123  15.192  0.0166  0.5731  2.2108
 4263TIP3    H234205   4.294   3.169  15.254  0.3134  1.7387  2.0004
 4264TIP3   OH234206   1.995   3.310   0.581 -0.0650 -0.1481  0.3273
 4264TIP3    H134207   2.069   3.257   0.611  1.6133  1.3999 -0.8173
 4264TIP3    H234208   2.007   3.394   0.626 -1.3392  0.0275  0.3661
 4265TIP3   OH234209   3.992   5.881   4.079  0.4044 -0.1098  0.1458
 4265TIP3    H134210   4.031   5.944   4.139  0.3686 -1.5209  1.7163
 4265TIP3    H234211   4.033   5.797   4.101 -0.1719 -0.8128 -1.2915
 4266TIP3   OH234212   3.271   0.211   2.896 -0.2040 -0.4133  0.0722
 4266TIP3    H134213   3.344   0.246   2.947 -1.1006  0.1610  1.0038
 4266TIP3    H234214   3.243   0.133   2.943  0.0389 -0.8566 -0.4987
 4267TIP3   OH234215   0.055   5.029  14.902  0.3667  0.2753 -0.4879
 4267TIP3    H134216   0.047   4.966  14.974 -2.7177 -0.2299 -1.1169
 4267TIP3    H234217   0.060   5.114  14.944 -1.0325 -0.0414  0.3886
 4268TIP3   OH234218   2.320   3.831  11.405  0.6598 -0.0166 -0.1629
 4268TIP3    H134219   2.364   3.913  11.382  0.8638  0.3108  1.3099
 4268TIP3    H234220   2.341   3.818  11.497 -2.2168  0.0493  0.5700
 4269TIP3   OH234221   2.492   4.845  13.123 -0.0905  0.2392 -0.2485
 4269TIP3    H134222   2.472   4.935  13.100 -0.7650 -0.5449 -3.1011
 4269TIP3    H234223   2.553   4.816  13.055  0.8718 -1.1955  1.1503
 4270TIP3   OH234224   3.394   0.017   5.505 -0.8505  0.0009  0.0603
 4270TIP3    H134225   3.462   0.043   5.566  1.5335 -1.4455 -1.7845
 4270TIP3    H234226   3.318   0.069   5.529  0.4035  0.5673  3.2244
 4271TIP3   OH234227   4.171   4.107   0.698  0.3001 -0.7160  0.0594
 4271TIP3    H134228   4.098   4.155   0.739  2.4423  1.6724  1.3570
 4271TIP3    H234229   4.203   4.049   0.766  2.8314  2.0912  1.5066
 4272TIP3   OH234230   1.816   5.436  14.659 -0.1108  0.8543 -0.1377
 4272TIP3    H134231   1.807   5.363  14.598  0.9194 -0.4455  1.1793
 4272TIP3    H234232   1.727   5.460  14.683 -0.4874  0.7666 -1.4082
 4273TIP3   OH234233   6.659   6.158   5.059 -0.6511  0.3414  0.2158
 4273TIP3    H134234   6.636   6.124   5.145 -1.5192  0.8515  0.1986
 4273TIP3    H234235   6.729   6.101   5.028 -1.8720 -1.2741  0.2923
 4274TIP3   OH234236   1.591   2.638  12.474  0.0604 -0.2165 -0.3344
 4274TIP3    H134237   1.596   2.595  12.389 -0.0841  0.1463 -0.5309
 4274TIP3    H234238   1.500   2.667  12.481 -0.4996 -2.0573  0.8624
 4275TIP3   OH234239   1.484   2.943   3.546  0.5217 -0.2666 -0.3290
 4275TIP3    H134240   1.453   2.984   3.627  0.1597  0.9418 -1.0445
 4275TIP3    H234241   1.575   2.920   3.563  0.3992 -0.1671  0.4676
 4276TIP3   OH234242   5.836   0.111   5.652 -0.2028  0.1441 -0.3098
 4276TIP3    H134243   5.829   0.198   5.613 -2.2120 -0.2014 -0.8234
 4276TIP3    H234244   5.826   0.126   5.746 -0.9837  0.4491 -0.4317
 4277TIP3   OH234245   3.431   0.477   2.589 -0.2754  0.1755  0.6988
 4277TIP3    H134246   3.363   0.537   2.558 -1.6265 -1.0886  1.0937
 4277TIP3    H234247   3.452   0.423   2.512 -0.6548 -0.2664  0.8991
 4278TIP3   OH234248   5.991   6.004   5.961  0.2503  0.2449 -0.3306
 4278TIP3    H134249   6.037   5.992   6.044  0.3855  0.6636 -0.3443
 4278TIP3    H234250   6.061   6.005   5.895  0.0513 -1.6909 -0.6419
 4279TIP3   OH234251   2.754   2.016  12.125 -0.4245  1.0382 -0.7163
 4279TIP3    H134252   2.827   2.071  12.097 -1.0171  2.3515  0.1939
 4279TIP3    H234253   2.689   2.078  12.159 -1.1115 -0.2259  0.3932
 4280TIP3   OH234254   2.174   1.310   5.507 -0.1239 -0.2897  0.4050
 4280TIP3    H134255   2.144   1.242   5.567  2.7404 -0.7737  1.4172
 4280TIP3    H234256   2.213   1.377   5.563  0.6177  0.3132 -0.7852
 4281TIP3   OH234257   0.737   0.211  13.495 -0.2302 -0.3380  0.5247
 4281TIP3    H134258   0.721   0.165  13.413  0.1967 -0.3977  0.4751
 4281TIP3    H234259   0.665   0.274  13.502  1.4545  1.9716 -1.5259
 4282TIP3   OH234260   1.232   2.220   1.648  0.2473 -0.1075  0.2716
 4282TIP3    H134261   1.148   2.200   1.607  0.8161 -0.7002 -0.6568
 4282TIP3    H234262   1.215   2.217   1.742 -0.9274  0.5299  0.0982
 4283TIP3   OH234263   3.336   5.764   2.420 -0.3752  0.2572  0.3506
 4283TIP3    H134264   3.380   5.831   2.472 -1.2323  1.2648 -0.1718
 4283TIP3    H234265   3.244   5.769   2.448 -0.2621 -1.5665  1.1794
 4284TIP3   OH234266   1.925   5.771  15.641 -0.2670  0.4818 -0.6122
 4284TIP3    H134267   1.881   5.847  15.680  1.4574 -0.0108  2.6218
 4284TIP3    H234268   1.871   5.696  15.669  0.4862  0.1976  0.1295
 4285TIP3   OH234269   3.657   6.018  12.268  0.4748  0.2514  0.2072
 4285TIP3    H134270   3.579   5.963  12.264  1.7407 -1.6143  0.3790
 4285TIP3    H234271   3.654   6.068  12.186 -0.2681 -0.6921 -0.3696
 4286TIP3   OH234272   0.463   4.723  15.149 -0.1925 -0.4076 -0.0621
 4286TIP3    H134273   0.521   4.717  15.073  0.4473  1.5236  0.2339
 4286TIP3    H234274   0.504   4.787  15.207 -1.1205 -1.1782  1.5344
 4287TIP3   OH234275   1.637   1.629  11.355 -0.1911 -0.1308 -0.4874
 4287TIP3    H134276   1.678   1.618  11.269  1.3561 -0.6856  0.2828
 4287TIP3    H234277   1.705   1.668  11.409 -0.2698 -2.1578  1.1628
 4288TIP3   OH234278   0.271   1.954  14.051 -0.7680  0.0980  0.4829
 4288TIP3    H134279   0.180   1.972  14.072 -0.2003  0.8835  2.5541
 4288TIP3    H234280   0.285   1.996  13.966 -2.0682  0.8227  0.6004
 4289TIP3   OH234281   1.545   5.894   2.909 -0.8568  0.3633  0.6880
 4289TIP3    H134282   1.514   5.810   2.875 -0.7260  0.5430  0.1148
 4289TIP3    H234283   1.566   5.876   3.001 -0.6132 -0.2831  0.5120
 4290TIP3   OH234284   4.630   4.916  15.842  0.0068 -0.4651  0.4361
 4290TIP3    H134285   4.630   4.824  15.867  0.2030 -0.1111  1.8017
 4290TIP3    H234286   4.560   4.923  15.777 -0.4186 -1.4658  0.7721
 4291TIP3   OH234287   1.259   2.994   4.106 -0.1540  0.6752 -0.2678
 4291TIP3    H134288   1.167   3.011   4.088  0.3034  1.8555 -1.7565
 4291TIP3    H234289   1.283   2.924   4.045 -0.2822 -0.3074  0.7889
 4292TIP3   OH234290   6.027   2.149   4.341 -0.4049  1.0394 -0.6658
 4292TIP3    H134291   6.022   2.193   4.425  0.5945 -0.2843  0.1218
 4292TIP3    H234292   5.936   2.124   4.322 -0.7558  2.0836 -0.4048
 4293TIP3   OH234293   2.202   0.654  14.548  0.8206 -0.3382 -0.1026
 4293TIP3    H134294   2.228   0.564  14.565 -0.8398 -1.0324 -1.0226
 4293TIP3    H234295   2.226   0.701  14.628 -1.4048 -2.2796  1.8397
 4294TIP3   OH234296   0.147   1.020   4.003 -0.0496  0.4261 -0.4150
 4294TIP3    H134297   0.183   0.957   4.066  2.2054 -0.8507 -2.7946
 4294TIP3    H234298   0.164   1.105   4.042 -2.6577 -0.2344  2.6381
 4295TIP3   OH234299   3.131   2.054   5.865 -0.0363 -0.0626  0.0719
 4295TIP3    H134300   3.202   1.989   5.869 -0.4250 -0.4590  0.7151
 4295TIP3    H234301   3.137   2.101   5.948 -0.9715 -0.5908  0.4600
 4296TIP3   OH234302   3.897   3.550  14.934 -0.4174 -0.0944 -0.0844
 4296TIP3    H134303   3.924   3.602  14.858  1.2180  0.2022  0.6672
 4296TIP3    H234304   3.874   3.615  15.000 -2.7050 -0.3361 -0.5493
 4297TIP3   OH234305   1.436   3.653   5.818  0.0731 -0.7316  0.4728
 4297TIP3    H134306   1.524   3.672   5.786  0.1809 -1.3672  0.3876
 4297TIP3    H234307   1.448   3.622   5.907 -0.3221  2.2628  1.6799
 4298TIP3   OH234308   1.867   2.573  12.557  0.5909 -0.0275  0.0433
 4298TIP3    H134309   1.772   2.574  12.551  0.6564 -1.3571 -2.7106
 4298TIP3    H234310   1.887   2.623  12.636 -2.4469 -1.4858  1.9184
 4299TIP3   OH234311   1.003   2.708   3.785 -0.4042  0.1906 -0.2362
 4299TIP3    H134312   1.018   2.650   3.711 -3.1010 -0.8904 -0.0351
 4299TIP3    H234313   1.018   2.653   3.862  0.0861  0.6592  0.0107
 4300TIP3   OH234314   0.533   6.663   4.385 -0.3650 -0.0974  0.1624
 4300TIP3    H134315   0.536   6.734   4.319 -0.6862 -0.5457 -0.3440
 4300TIP3    H234316   0.625   6.648   4.407 -0.2219 -0.2101 -0.4810
 4301TIP3   OH234317   4.997   4.087   0.881  0.0593  0.2446 -0.3258
 4301TIP3    H134318   5.087   4.072   0.853 -0.0700  0.6492 -0.9580
 4301TIP3    H234319   4.968   4.164   0.833 -0.6524  0.0765 -0.1869
 4302TIP3   OH234320   2.680   0.076  11.361  0.2156  0.2103 -0.3482
 4302TIP3    H134321   2.759   0.084  11.308  0.5595  0.2925  0.1789
 4302TIP3    H234322   2.628   0.009  11.316  0.3934  0.4552 -0.9281
 4303TIP3   OH234323   1.643   4.661   1.010 -0.4284  0.6826  0.6660
 4303TIP3    H134324   1.716   4.703   1.055 -0.0015  0.2699  0.3618
 4303TIP3    H234325   1.583   4.636   1.080 -0.1512  0.7790  0.9408
 4304TIP3   OH234326   2.104   3.610  12.054 -0.0395  0.2238  0.3517
 4304TIP3    H134327   2.101   3.649  12.141  1.7773  0.3262  0.4010
 4304TIP3    H234328   2.083   3.517  12.069  1.9445 -0.1502  1.2138
 4305TIP3   OH234329   0.481   6.548  12.379  0.0134  0.0185  0.5162
 4305TIP3    H134330   0.396   6.559  12.423  0.3338  3.0520  0.5615
 4305TIP3    H234331   0.542   6.598  12.433  1.4347 -0.3720 -0.6715
 4306TIP3   OH234332   6.580   2.179  15.764 -0.1610  0.0153 -0.2180
 4306TIP3    H134333   6.616   2.267  15.776 -0.9161  0.1384  1.4064
 4306TIP3    H234334   6.546   2.180  15.674 -1.2708  1.8249  0.1673
 4307TIP3   OH234335   3.031   3.101   5.175 -0.2676 -0.4301  0.4641
 4307TIP3    H134336   2.993   3.013   5.172  0.8834 -0.9075 -1.6867
 4307TIP3    H234337   3.126   3.087   5.173 -0.0474  0.8607  0.6784
 4308TIP3   OH234338   1.982   3.491   2.467 -0.1040 -0.4593 -0.3101
 4308TIP3    H134339   1.972   3.431   2.541  2.2392  0.4685  0.8518
 4308TIP3    H234340   2.035   3.443   2.404 -0.1836 -0.4345 -0.3964
 4309TIP3   OH234341   1.908   2.828  13.173  0.0139 -0.3659  0.3944
 4309TIP3    H134342   1.840   2.798  13.232  0.9224  0.5069  1.9560
 4309TIP3    H234343   1.911   2.763  13.103 -2.7422 -0.1455 -0.0049
 4310TIP3   OH234344   3.657   4.257   0.729 -0.1147  0.2345 -0.0780
 4310TIP3    H134345   3.597   4.253   0.804 -0.6694 -0.8873 -0.5633
 4310TIP3    H234346   3.682   4.166   0.714  1.8887  0.6671  0.2266
 4311TIP3   OH234347   1.997   4.940  16.459 -0.1017 -0.1543 -0.1396
 4311TIP3    H134348   2.018   4.991  16.381  2.6691 -0.2227  0.4474
 4311TIP3    H234349   2.082   4.907  16.489 -1.3756 -2.1706  1.5164
 4312TIP3   OH234350   1.898   2.815   4.867 -0.3978  0.2559  0.2162
 4312TIP3    H134351   1.871   2.801   4.776 -2.1576 -1.2824  0.9109
 4312TIP3    H234352   1.888   2.730   4.909  0.2305  0.9656  1.9062
 4313TIP3   OH234353   4.956   3.714   5.808 -0.0348  0.3179  0.2343
 4313TIP3    H134354   4.873   3.755   5.786  0.2785  2.2341  2.1888
 4313TIP3    H234355   4.933   3.625   5.834 -1.0606 -0.1080 -1.9298
 4314TIP3   OH234356   0.329   2.396  14.754  0.4686 -0.3499 -0.2475
 4314TIP3    H134357   0.298   2.425  14.668  0.9728  0.7168 -0.0813
 4314TIP3    H234358   0.258   2.420  14.814  0.5940 -0.0731 -0.2084
 4315TIP3   OH234359   2.873   3.749   1.671 -0.2009 -0.0012  0.1368
 4315TIP3    H134360   2.931   3.676   1.650  0.2270 -0.0518  1.3904
 4315TIP3    H234361   2.850   3.735   1.763 -2.0422  0.1402 -0.2567
 4316TIP3   OH234362   1.716   5.788  16.082  0.1728 -0.0898 -0.1251
 4316TIP3    H134363   1.625   5.816  16.096 -0.3707 -1.3771 -0.8605
 4316TIP3    H234364   1.769   5.862  16.111 -1.0206 -0.1154  2.4117
 4317TIP3   OH234365   5.355   4.081   2.745  0.0828 -0.2941  0.0855
 4317TIP3    H134366   5.331   4.079   2.838 -0.3087  0.1525 -0.0031
 4317TIP3    H234367   5.272   4.068   2.699  0.5607 -2.7403 -0.1962
 4318TIP3   OH234368   6.277   1.546  13.709 -0.2254 -0.0116 -0.0298
 4318TIP3    H134369   6.233   1.503  13.782  0.6628 -1.9325 -0.5697
 4318TIP3    H234370   6.256   1.492  13.633  2.0203 -0.3003 -0.5203
 4319TIP3   OH234371   4.388   0.462  14.984  0.4765  0.3083 -0.0102
 4319TIP3    H134372   4.294   0.480  14.983  0.3523 -0.3431 -0.5042
 4319TIP3    H234373   4.415   0.481  15.074 -0.5338 -1.5229  0.7279
 4320TIP3   OH234374   0.786   4.711  16.947 -0.1756 -0.8577  0.0655
 4320TIP3    H134375   0.874   4.676  16.958 -0.5736 -1.7469  0.5532
 4320TIP3    H234376   0.729   4.634  16.953 -1.2706  0.0336  3.3913
 4321TIP3   OH234377   0.470   2.087  12.258 -0.2459 -0.1210  0.4326
 4321TIP3    H134378   0.549   2.140  12.268  0.4969 -1.3799  1.6805
 4321TIP3    H234379   0.410   2.119  12.326 -0.1579 -0.2322  0.5656
 4322TIP3   OH234380   3.776   6.737  14.407 -0.3847  0.2861 -0.4136
 4322TIP3    H134381   3.755   6.825  14.437  0.8191  1.1504 -1.9759
 4322TIP3    H234382   3.867   6.742  14.379 -0.7519 -1.0323 -2.0154
 4323TIP3   OH234383   0.549   5.356  14.238  0.0360 -0.4328  0.1588
 4323TIP3    H134384   0.464   5.373  14.197 -0.8534 -0.0070  2.0385
 4323TIP3    H234385   0.578   5.273  14.201  0.2813  0.8275 -2.7540
 4324TIP3   OH234386   5.184   1.945  15.628  0.0118 -0.5601 -0.0565
 4324TIP3    H134387   5.123   2.014  15.656 -0.0514 -0.5112 -0.3114
 4324TIP3    H234388   5.269   1.974  15.660  0.6378  1.4257 -3.0979
 4325TIP3   OH234389   0.349   1.603   1.431  0.5669 -0.1542 -0.3044
 4325TIP3    H134390   0.385   1.518   1.405  0.4925 -0.6491  1.1449
 4325TIP3    H234391   0.366   1.660   1.356  3.5948 -0.5655 -0.0226
 4326TIP3   OH234392   2.917   1.045   5.493 -0.2562 -0.7349  0.1387
 4326TIP3    H134393   2.938   0.973   5.553  0.7760 -0.0750  0.5928
 4326TIP3    H234394   2.842   1.089   5.533 -1.0523 -1.6744 -0.2627
 4327TIP3   OH234395   3.250   3.421   2.364  0.1513  0.4023 -0.5358
 4327TIP3    H134396   3.240   3.330   2.391 -1.7876  0.0059 -2.3177
 4327TIP3    H234397   3.305   3.417   2.286 -0.0419  0.7394 -0.6909
 4328TIP3   OH234398   2.303   2.969   2.329 -0.0336 -0.6650  0.1204
 4328TIP3    H134399   2.214   2.935   2.342 -0.9662  1.3111 -0.6475
 4328TIP3    H234400   2.330   2.932   2.245 -0.1176 -1.3271  0.3843
 4329TIP3   OH234401   3.621   2.682   5.570 -0.7910  0.6380 -0.2136
 4329TIP3    H134402   3.534   2.689   5.609  0.2921 -0.3676  2.6551
 4329TIP3    H234403   3.663   2.765   5.591 -0.7134  0.7177 -0.6780
 4330TIP3   OH234404   0.946   4.034   4.763 -0.0926  0.1942  0.1301
 4330TIP3    H134405   0.866   4.003   4.806  0.1341  1.0102  1.1988
 4330TIP3    H234406   1.015   3.980   4.802  0.0938  0.8178  0.6812
 4331TIP3   OH234407   2.175   2.109   1.157 -0.6929  0.3932  0.2350
 4331TIP3    H134408   2.117   2.121   1.233 -0.3609 -2.0089  0.9567
 4331TIP3    H234409   2.263   2.116   1.192 -0.5394 -0.4090  0.0393
 4332TIP3   OH234410   6.340   1.328   4.126  0.1899 -0.1827  0.0786
 4332TIP3    H134411   6.424   1.282   4.121  1.3106  1.7620  0.2147
 4332TIP3    H234412   6.344   1.378   4.207 -0.7080  0.6514 -0.3695
 4333TIP3   OH234413   2.572   3.461  10.538  0.9372  0.3937 -0.5744
 4333TIP3    H134414   2.552   3.373  10.508  2.0311 -0.0472 -0.0576
 4333TIP3    H234415   2.668   3.465  10.540  0.9055  1.4338 -0.1400
 4334TIP3   OH234416   1.699   2.052  14.043  0.2641 -0.0954 -0.0344
 4334TIP3    H134417   1.713   1.995  13.967 -0.4412 -1.6977  0.9693
 4334TIP3    H234418   1.774   2.036  14.099 -0.4851 -0.9848  0.7722
 4335TIP3   OH234419   5.310   1.297  13.724 -0.0140  0.2642 -0.6569
 4335TIP3    H134420   5.231   1.336  13.687 -1.5485 -1.3818  0.6818
 4335TIP3    H234421   5.321   1.215  13.677 -1.5517 -1.4878  1.8374
 4336TIP3   OH234422   2.740   1.070   5.020 -0.0604  0.2533  0.3862
 4336TIP3    H134423   2.814   1.042   5.074  0.1222  0.8917  0.4805
 4336TIP3    H234424   2.755   1.164   5.006 -0.2392  0.1522 -0.5627
 4337TIP3   OH234425   1.609   5.064   4.841  0.9576  0.4148  0.2143
 4337TIP3    H134426   1.691   5.064   4.890  0.9555 -0.3773  0.2310
 4337TIP3    H234427   1.613   5.143   4.787  1.3563  0.8226  0.8291
 4338TIP3   OH234428   0.833   0.443   3.213 -0.1847 -0.5225 -0.3341
 4338TIP3    H134429   0.906   0.489   3.253 -1.8664  1.3091  0.7824
 4338TIP3    H234430   0.874   0.375   3.160  2.3148  0.5630  0.0761
 4339TIP3   OH234431   6.719   6.522   5.646  0.0567 -0.1003 -0.0825
 4339TIP3    H134432   6.726   6.612   5.677  0.1541  0.8511 -2.6667
 4339TIP3    H234433   6.803   6.482   5.669  0.2508  0.6466  0.5449
 4340TIP3   OH234434   3.081   0.982   1.643 -0.0530  0.0963 -0.2089
 4340TIP3    H134435   3.145   1.013   1.707  1.2570 -0.4370 -1.2106
 4340TIP3    H234436   3.096   1.036   1.566 -1.2979  0.4170 -0.2520
 4341TIP3   OH234437   4.559   2.003   2.828 -0.1680 -0.6312  0.3077
 4341TIP3    H134438   4.559   1.913   2.797  0.2946 -0.4476 -0.2578
 4341TIP3    H234439   4.646   2.014   2.868 -0.5147 -0.6664  1.0944
 4342TIP3   OH234440   2.909   5.599   2.938 -0.5140 -0.7236  0.0635
 4342TIP3    H134441   2.991   5.608   2.988 -1.2491 -0.0687  1.1986
 4342TIP3    H234442   2.918   5.662   2.867  0.3683 -1.3476 -0.3939
 4343TIP3   OH234443   3.384   0.431  10.676 -0.3345  0.2584  0.4871
 4343TIP3    H134444   3.320   0.451  10.744  0.2970 -0.9804  1.4952
 4343TIP3    H234445   3.431   0.514  10.662 -0.6161  0.5866  1.4164
 4344TIP3   OH234446   5.731   3.226   5.430 -0.0382 -0.1882  0.0436
 4344TIP3    H134447   5.724   3.272   5.514  0.8767  1.6345 -0.8279
 4344TIP3    H234448   5.764   3.292   5.369  0.9261 -1.9105 -1.3904
 4345TIP3   OH234449   2.324   5.552   4.834  0.6627 -0.0267 -0.0557
 4345TIP3    H134450   2.312   5.552   4.929  1.3955 -1.1825  0.0512
 4345TIP3    H234451   2.388   5.482   4.818  2.6552  1.9215 -1.1399
 4346TIP3   OH234452   4.220   2.840  14.684 -0.4783  0.0212  0.7895
 4346TIP3    H134453   4.144   2.783  14.690 -0.5789 -0.0670 -0.9939
 4346TIP3    H234454   4.222   2.869  14.593  1.1438  0.6927  0.9985
 4347TIP3   OH234455   3.786   5.398   2.464  0.1291  0.0985 -0.4090
 4347TIP3    H134456   3.852   5.468   2.466  1.8528 -1.4514  1.4224
 4347TIP3    H234457   3.801   5.355   2.380 -0.7036  1.6042 -1.3920
 4348TIP3   OH234458   1.316   4.954  12.293  0.0090 -0.1926  0.4238
 4348TIP3    H134459   1.387   4.917  12.240 -1.7005  0.8422 -2.9008
 4348TIP3    H234460   1.246   4.889  12.289 -0.6904  0.5668  0.0703
 4349TIP3   OH234461   4.089   2.698  11.318 -0.0137 -0.0206 -0.0250
 4349TIP3    H134462   4.080   2.751  11.239 -0.1383  3.4556  2.1308
 4349TIP3    H234463   4.179   2.665  11.315 -0.3114 -0.7976 -2.0041
 4350TIP3   OH234464   0.760   6.059  17.082  0.6397  0.1378 -0.0055
 4350TIP3    H134465   0.689   6.052  17.018 -0.7431  1.6595  1.2490
 4350TIP3    H234466   0.718   6.040  17.166  1.6867  1.1471  0.7760
 4351TIP3   OH234467   5.413   4.513  16.644  0.3638  0.0746 -0.0307
 4351TIP3    H134468   5.454   4.599  16.651 -0.5376  0.4630  0.6980
 4351TIP3    H234469   5.340   4.525  16.584 -1.0883  0.3793  1.7142
 4352TIP3   OH234470   4.459   0.587  15.545  0.3178 -0.3090  0.6110
 4352TIP3    H134471   4.433   0.679  15.554  0.3769 -0.1950 -0.3404
 4352TIP3    H234472   4.397   0.540  15.600 -0.4258  0.1943  0.2272
 4353TIP3   OH234473   1.009   4.410  13.425 -0.4149  0.3685 -0.5238
 4353TIP3    H134474   1.100   4.425  13.449  0.1827  0.8396 -2.8152
 4353TIP3    H234475   1.012   4.384  13.333 -2.6744  1.8752 -1.1399
 4354TIP3   OH234476   3.973   2.175   2.938 -0.6191 -0.0728  0.2670
 4354TIP3    H134477   3.925   2.100   2.971  0.1146 -1.2950 -1.3156
 4354TIP3    H234478   3.974   2.237   3.011  0.1911 -2.2673  2.2357
 4355TIP3   OH234479   5.473   4.459  16.061  0.0662  0.1028  0.5194
 4355TIP3    H134480   5.564   4.460  16.033  0.2924 -0.0328  1.2412
 4355TIP3    H234481   5.463   4.539  16.112 -0.2615  0.1906  0.3230
 4356TIP3   OH234482   6.417   3.756  14.785  0.6093  0.0288  0.5679
 4356TIP3    H134483   6.340   3.740  14.839  3.0061 -3.3595  3.5181
 4356TIP3    H234484   6.477   3.803  14.842  0.9548  2.3726 -1.5623
 4357TIP3   OH234485   1.887   1.926  17.196 -0.2510  0.2119  0.0015
 4357TIP3    H134486   1.840   2.009  17.186 -0.4448  0.0370 -0.5753
 4357TIP3    H234487   1.818   1.860  17.200 -0.0878  0.0520  0.1662
 4358TIP3   OH234488   5.484   6.357   4.637  0.3719  0.5056  0.4812
 4358TIP3    H134489   5.433   6.305   4.576 -0.1613  0.3232  1.0719
 4358TIP3    H234490   5.487   6.304   4.717 -0.1552  1.3653  1.0861
 4359TIP3   OH234491   2.811   6.262  13.308  0.0246 -0.8768 -0.4753
 4359TIP3    H134492   2.720   6.235  13.291 -0.7176 -0.8205  2.7548
 4359TIP3    H234493   2.853   6.183  13.341 -0.1873  0.0485  2.2812
 4360TIP3   OH234494   6.288   4.313  13.702 -0.0097  1.0235 -0.2814
 4360TIP3    H134495   6.270   4.383  13.639  2.1744  4.0252  2.1665
 4360TIP3    H234496   6.382   4.319  13.718  0.3121 -2.6342  0.0198
 4361TIP3   OH234497   1.869   0.887   3.255  0.4438  0.3098  0.1679
 4361TIP3    H134498   1.809   0.943   3.206 -1.0320  0.3078  1.8362
 4361TIP3    H234499   1.956   0.908   3.221 -0.4306  0.6647 -2.0246
 4362TIP3   OH234500   3.475   0.855  14.274  0.5371  0.6724 -0.3864
 4362TIP3    H134501   3.438   0.928  14.223 -0.4141 -0.3014 -1.1667
 4362TIP3    H234502   3.443   0.869  14.363 -0.1227  0.9225 -0.6509
 4363TIP3   OH234503   4.660   3.625  11.602  0.4644 -0.4348 -0.0685
 4363TIP3    H134504   4.584   3.676  11.631  0.1316 -1.2079  0.4454
 4363TIP3    H234505   4.696   3.676  11.530 -0.1403  0.2907  0.1239
 4364TIP3   OH234506   5.733   6.658   0.678  0.3257  0.2274  0.1614
 4364TIP3    H134507   5.698   6.746   0.692 -0.9109 -0.4558  1.7524
 4364TIP3    H234508   5.668   6.600   0.718  1.7714 -1.3226  0.3909
 4365TIP3   OH234509   6.122   5.333   3.627  0.4011  0.0486 -0.0964
 4365TIP3    H134510   6.147   5.255   3.578  0.2835 -0.3334  0.4445
 4365TIP3    H234511   6.111   5.401   3.561  2.7704  0.2249 -0.3811
 4366TIP3   OH234512   5.765   3.082  12.292  0.5039 -0.1468  0.5881
 4366TIP3    H134513   5.824   3.155  12.274  2.0351 -1.2572  0.9190
 4366TIP3    H234514   5.789   3.054  12.380 -0.3670 -0.7799  0.6271
 4367TIP3   OH234515   0.254   1.133   0.658 -0.2752 -0.2496 -0.1116
 4367TIP3    H134516   0.259   1.047   0.700 -0.6260 -0.3672 -0.2990
 4367TIP3    H234517   0.319   1.187   0.704 -0.1551 -0.5745  0.1021
 4368TIP3   OH234518   4.205   3.761  14.852 -0.6171  0.1637  0.0324
 4368TIP3    H134519   4.268   3.701  14.813 -1.4864 -0.2995 -0.6784
 4368TIP3    H234520   4.256   3.840  14.871 -0.0622  0.2102 -1.5460
 4369TIP3   OH234521   0.142   3.093  16.229 -0.2117 -1.0236  0.2482
 4369TIP3    H134522   0.196   3.122  16.156 -0.1372 -0.8336  0.3790
 4369TIP3    H234523   0.053   3.092  16.194 -0.4734  1.0068  0.6914
 4370TIP3   OH234524   6.035   4.954  13.796  0.6917  0.0855 -0.6525
 4370TIP3    H134525   6.005   5.040  13.825  0.2001 -0.5305  0.7764
 4370TIP3    H234526   6.129   4.965  13.778  0.3158  1.2625 -2.0018
 4371TIP3   OH234527   3.853   4.459   6.347 -0.5221  0.1079 -0.2723
 4371TIP3    H134528   3.927   4.483   6.402 -1.0352  1.9152 -0.2875
 4371TIP3    H234529   3.795   4.410   6.405  0.5458 -1.1131 -0.1987
 4372TIP3   OH234530   3.312   5.649   4.996  0.7313 -0.0347  0.2406
 4372TIP3    H134531   3.406   5.667   4.985  0.5331  0.3922 -0.8789
 4372TIP3    H234532   3.270   5.700   4.926 -0.2792 -0.7417  0.3202
 4373TIP3   OH234533   1.649   0.003  11.087  0.2104  0.4010 -0.2959
 4373TIP3    H134534   1.743  -0.010  11.100 -0.0652 -0.8395  0.7033
 4373TIP3    H234535   1.638   0.007  10.992  0.9962 -2.0565 -0.5674
 4374TIP3   OH234536   5.155   2.491  11.513  0.1599 -0.3433  0.4084
 4374TIP3    H134537   5.060   2.492  11.522  0.0788 -0.5746 -0.3082
 4374TIP3    H234538   5.185   2.571  11.555 -0.4757  0.4388 -0.5823
 4375TIP3   OH234539   4.753   0.652   0.961 -0.2181 -0.2540  0.3314
 4375TIP3    H134540   4.665   0.671   0.993 -0.3369  0.0378 -0.1542
 4375TIP3    H234541   4.792   0.598   1.029 -0.9188 -0.7321  0.3676
 4376TIP3   OH234542   6.405   0.946   0.401 -0.0846 -0.3519 -0.2144
 4376TIP3    H134543   6.368   0.969   0.316 -1.2782 -1.6199 -0.0729
 4376TIP3    H234544   6.485   0.998   0.407 -0.3282  0.2677 -1.8105
 4377TIP3   OH234545   2.130   3.432   5.209 -0.4806 -0.2850 -0.7692
 4377TIP3    H134546   2.168   3.493   5.146 -0.2013 -1.0691 -1.3816
 4377TIP3    H234547   2.058   3.480   5.250 -0.8034  0.1792 -1.8436
 4378TIP3   OH234548   1.373   2.888  12.798 -0.1673  0.2437  0.3087
 4378TIP3    H134549   1.287   2.925  12.778 -0.0882  0.5477  0.5208
 4378TIP3    H234550   1.427   2.964  12.819  0.6738  0.2463 -1.6696
 4379TIP3   OH234551   5.935   3.727   4.684  0.5857  0.1808 -0.0545
 4379TIP3    H134552   5.863   3.700   4.627  0.2000 -0.6106  0.7876
 4379TIP3    H234553   6.014   3.711   4.633  0.2274 -0.1731 -0.5010
 4380TIP3   OH234554   1.954   4.283  13.355  0.5657 -1.0584  0.0861
 4380TIP3    H134555   2.024   4.232  13.314  0.2784 -0.8546 -0.6674
 4380TIP3    H234556   1.898   4.310  13.282 -0.7601 -1.9004  0.7783
 4381TIP3   OH234557   6.147   3.699  16.076  0.3069 -0.1893 -0.0898
 4381TIP3    H134558   6.084   3.706  16.004  0.5544 -0.0773 -0.2950
 4381TIP3    H234559   6.215   3.763  16.055  1.2181 -1.2918 -0.5975
 4382TIP3   OH234560   1.479   1.099  12.090  0.7721  0.3433  0.4803
 4382TIP3    H134561   1.421   1.160  12.136  0.5820 -0.9811  2.0673
 4382TIP3    H234562   1.450   1.103  11.999 -0.5007  1.1816  0.8915
 4383TIP3   OH234563   2.698   2.807  12.636 -0.4582 -0.4107 -0.5131
 4383TIP3    H134564   2.723   2.727  12.682  2.9659 -0.5167 -2.3030
 4383TIP3    H234565   2.695   2.874  12.704  1.9104 -1.0578  0.3038
 4384TIP3   OH234566   2.195   1.877  14.330  0.1525 -0.2447 -0.0760
 4384TIP3    H134567   2.181   1.934  14.254 -1.2335 -1.2065 -0.5832
 4384TIP3    H234568   2.227   1.795  14.292 -2.7996 -1.5815  0.0235
 4385TIP3   OH234569   6.161   1.320  14.592  0.0511  0.1020  0.0814
 4385TIP3    H134570   6.171   1.410  14.563 -0.6298  0.3988  0.7256
 4385TIP3    H234571   6.121   1.274  14.518  0.8965  0.2012 -0.4398
 4386TIP3   OH234572   4.842   3.627   4.376  0.4947  1.2463  0.1281
 4386TIP3    H134573   4.931   3.634   4.412  0.7327  0.0165 -0.1978
 4386TIP3    H234574   4.801   3.710   4.401  2.0162  2.2547 -0.5175
 4387TIP3   OH234575   5.191   5.746  12.286 -0.2768 -0.0896  0.3495
 4387TIP3    H134576   5.132   5.821  12.288  1.3292  1.2426  0.0697
 4387TIP3    H234577   5.229   5.743  12.373 -0.6673 -0.8849  0.5023
 4388TIP3   OH234578   3.915   4.126   3.543  0.3707 -0.1017  0.0953
 4388TIP3    H134579   3.914   4.047   3.597  0.5143 -1.5448 -1.8915
 4388TIP3    H234580   3.826   4.133   3.509  0.1513  1.0624  0.8471
 4389TIP3   OH234581   1.520   5.587   4.728 -0.1162 -0.6435  0.2366
 4389TIP3    H134582   1.438   5.540   4.743  0.1856 -1.0604  0.5804
 4389TIP3    H234583   1.497   5.679   4.742 -0.8351 -0.6180 -0.9847
 4390TIP3   OH234584   6.378   4.728   2.466  0.5348  0.0468  0.2820
 4390TIP3    H134585   6.343   4.641   2.448  0.4845  0.4340 -1.6285
 4390TIP3    H234586   6.311   4.771   2.518  0.4924 -0.9810  1.1173
 4391TIP3   OH234587   6.188   0.606  15.055  0.0379  0.1621 -0.7523
 4391TIP3    H134588   6.167   0.520  15.018 -2.4128  1.1959 -1.9873
 4391TIP3    H234589   6.144   0.608  15.140 -0.6333  0.4677 -1.0969
 4392TIP3   OH234590   2.972   6.278  12.665  0.0820  0.6242  0.2784
 4392TIP3    H134591   2.911   6.329  12.718  1.4829  1.5165  1.0896
 4392TIP3    H234592   2.937   6.189  12.668 -0.0591  0.7071  2.4607
 4393TIP3   OH234593   4.412   0.293   5.046 -0.2959 -0.5157  0.2299
 4393TIP3    H134594   4.327   0.254   5.026 -1.2952  1.0142  1.2197
 4393TIP3    H234595   4.426   0.357   4.976  0.3061 -1.1357 -0.2227
 4394TIP3   OH234596   4.842   5.720   5.357  0.1785  0.2024  0.4309
 4394TIP3    H134597   4.823   5.813   5.349  0.4262  0.2333  0.1639
 4394TIP3    H234598   4.810   5.696   5.444 -1.0919  0.2311 -0.0212
 4395TIP3   OH234599   2.234   0.081  17.134  0.4328 -0.7759 -0.2217
 4395TIP3    H134600   2.283   0.000  17.149  1.0817 -0.2815  0.3867
 4395TIP3    H234601   2.291   0.150  17.166  0.2309  0.0087 -1.4870
 4396TIP3   OH234602   5.367   5.423   4.659  0.3572  0.4059 -0.3425
 4396TIP3    H134603   5.409   5.460   4.581 -1.1382  0.8497 -0.9856
 4396TIP3    H234604   5.306   5.492   4.688  0.2173 -0.1254  0.6667
 4397TIP3   OH234605   1.350   0.922   2.716  0.4425 -0.4136 -0.0846
 4397TIP3    H134606   1.442   0.905   2.693  0.6679  0.8026 -0.1334
 4397TIP3    H234607   1.303   0.914   2.633  0.4635 -1.2194 -0.0289
 4398TIP3   OH234608   2.123   3.540   3.591  0.0379 -0.6983 -0.4433
 4398TIP3    H134609   2.198   3.482   3.578  0.8652 -0.7286  3.2863
 4398TIP3    H234610   2.087   3.514   3.675 -0.0136  3.6023  1.1047
 4399TIP3   OH234611   0.746   5.804   0.258  1.0855 -0.0209 -0.3776
 4399TIP3    H134612   0.718   5.861   0.186  0.9087 -0.6784 -0.8370
 4399TIP3    H234613   0.773   5.723   0.215  0.2596 -0.7034  0.3512
 4400TIP3   OH234614   3.306   2.627   0.825 -0.2371  0.1690  0.1318
 4400TIP3    H134615   3.284   2.578   0.746 -1.8635 -0.5232  0.9582
 4400TIP3    H234616   3.223   2.668   0.850  0.3055  0.5356  1.3586
 4401TIP3   OH234617   2.411   1.117   6.545 -0.7412 -0.1898 -0.3033
 4401TIP3    H134618   2.479   1.172   6.505 -1.5011 -1.0571 -3.0229
 4401TIP3    H234619   2.329   1.161   6.522 -1.2331 -1.0177 -0.1618
 4402TIP3   OH234620   0.853   1.058  15.448 -0.3375 -0.1440  0.0759
 4402TIP3    H134621   0.946   1.048  15.465 -0.3954  0.2760  0.6757
 4402TIP3    H234622   0.848   1.095  15.359 -0.0012 -1.6308 -0.5976
 4403TIP3   OH234623   6.629   3.234  12.868 -0.2469  0.0764  0.7619
 4403TIP3    H134624   6.709   3.183  12.850 -1.1580 -1.4015  0.7186
 4403TIP3    H234625   6.608   3.275  12.785 -0.2738 -0.6468  0.4003
 4404TIP3   OH234626   5.853   0.809   1.920  0.8013  0.2323  0.3850
 4404TIP3    H134627   5.871   0.860   1.841 -1.6728 -1.4452 -1.4113
 4404TIP3    H234628   5.818   0.873   1.982  3.4767  1.7275  0.5577
 4405TIP3   OH234629   0.273   0.908  12.597 -0.2153 -0.8115  0.1419
 4405TIP3    H134630   0.340   0.903  12.665  0.1182 -3.1058 -0.2846
 4405TIP3    H234631   0.192   0.880  12.641 -0.6625  0.7005  0.3309
 4406TIP3   OH234632   5.679   3.289   5.739  0.2768 -1.0914 -0.6829
 4406TIP3    H134633   5.642   3.202   5.752  1.1028 -1.2544  0.7796
 4406TIP3    H234634   5.724   3.308   5.820  0.2407  0.6582 -1.0325
 4407TIP3   OH234635   2.152   5.969  12.008 -0.0862 -0.3104 -0.2492
 4407TIP3    H134636   2.129   5.877  12.021  0.7852 -0.4079  0.7499
 4407TIP3    H234637   2.241   5.966  11.972  0.7861  0.1537  1.7494
 4408TIP3   OH234638   1.627   1.086  16.811 -0.1028 -0.2571 -0.2071
 4408TIP3    H134639   1.614   1.000  16.851  0.3615  0.0902  0.7245
 4408TIP3    H234640   1.691   1.129  16.867  1.7109 -0.2641 -2.1343
 4409TIP3   OH234641   3.486   5.328   1.218 -0.2016 -0.4895 -0.0169
 4409TIP3    H134642   3.411   5.328   1.158 -0.2079  0.0432 -0.0112
 4409TIP3    H234643   3.495   5.419   1.245  0.4183 -0.5596  0.0200
 4410TIP3   OH234644   5.851   0.954  13.914  0.1683  0.1629 -0.1931
 4410TIP3    H134645   5.823   0.895  13.984  1.8712  0.8762  1.1863
 4410TIP3    H234646   5.772   1.000  13.888 -0.7115 -0.8979  0.5146
 4411TIP3   OH234647   1.061   0.482  13.432  0.1838 -0.2064  0.3567
 4411TIP3    H134648   1.073   0.539  13.356  0.1387 -0.1495  0.3923
 4411TIP3    H234649   0.967   0.469  13.438  0.1460  0.1835  0.6912
 4412TIP3   OH234650   2.616   1.851   3.599  0.2341  0.1024  0.0544
 4412TIP3    H134651   2.527   1.877   3.575  0.7098  1.4602 -0.3749
 4412TIP3    H234652   2.663   1.935   3.610  1.8133 -0.5786 -1.0822
 4413TIP3   OH234653   5.426   5.916  17.204  0.1461 -0.1167  0.2210
 4413TIP3    H134654   5.449   5.825  17.225  0.1067 -0.1829 -0.0096
 4413TIP3    H234655   5.441   5.922  17.109 -1.3735 -0.3332 -0.0616
 4414TIP3   OH234656   6.090   0.733  14.637 -0.3323 -0.1492  0.5108
 4414TIP3    H134657   6.009   0.710  14.591 -0.2931  1.1590 -0.2535
 4414TIP3    H234658   6.141   0.652  14.638 -1.5477 -0.9226  0.7889
 4415TIP3   OH234659   4.019   3.554  13.618  0.6941 -0.1406  0.4239
 4415TIP3    H134660   3.925   3.541  13.616  0.3095  2.2955 -0.4742
 4415TIP3    H234661   4.054   3.484  13.563 -0.5252 -1.3134  1.0922
 4416TIP3   OH234662   2.613   3.794   2.619 -0.1346  1.1289  0.1075
 4416TIP3    H134663   2.634   3.881   2.583  0.7428  0.7482 -0.3455
 4416TIP3    H234664   2.699   3.754   2.633 -0.5175 -0.6585 -2.1607
 4417TIP3   OH234665   0.356   4.248  10.497 -0.0855  0.2094 -0.4301
 4417TIP3    H134666   0.346   4.327  10.549  0.7812 -0.4598  0.8331
 4417TIP3    H234667   0.425   4.269  10.434  1.1255  0.0964  0.7836
 4418TIP3   OH234668   4.368   5.369  15.236 -0.0499 -0.9610  0.2372
 4418TIP3    H134669   4.398   5.417  15.313 -3.2742  0.0664  1.0211
 4418TIP3    H234670   4.342   5.436  15.174  1.2639 -1.7859 -1.2733
 4419TIP3   OH234671   3.206   0.853   5.104 -0.1540 -0.0315 -0.0591
 4419TIP3    H134672   3.226   0.806   5.023 -0.3161 -0.3343  0.0745
 4419TIP3    H234673   3.138   0.801   5.146  0.1174 -0.0157  0.4033
 4420TIP3   OH234674   2.508   0.630  15.061  0.0398  0.5719  0.2793
 4420TIP3    H134675   2.581   0.569  15.063 -2.2492 -2.3364  1.7235
 4420TIP3    H234676   2.504   0.661  14.970  1.0619 -1.7561 -0.6121
 4421TIP3   OH234677   6.313   6.024  13.116 -0.0793  0.2514  0.2258
 4421TIP3    H134678   6.362   5.980  13.047  0.2914 -0.3495  0.8580
 4421TIP3    H234679   6.243   5.963  13.138  0.0004  0.2910  0.6021
 4422TIP3   OH234680   6.544   0.815   4.008  0.1522 -0.3209 -0.0738
 4422TIP3    H134681   6.540   0.769   3.924  1.2742 -1.0169  0.2293
 4422TIP3    H234682   6.480   0.885   3.999  2.1963  1.4259 -2.6037
 4423TIP3   OH234683   0.263   1.210  15.075  0.3519  0.2024 -0.0679
 4423TIP3    H134684   0.243   1.280  15.013 -1.0210 -0.9496 -0.9579
 4423TIP3    H234685   0.301   1.256  15.151  1.8136  1.6655 -1.5894
 4424TIP3   OH234686   4.742   4.638   5.875 -0.3998  0.2668 -0.1532
 4424TIP3    H134687   4.662   4.666   5.829  1.5975  0.1516 -4.1566
 4424TIP3    H234688   4.792   4.719   5.887  0.2544 -0.0507 -0.6826
 4425TIP3   OH234689   5.568   1.811  12.695 -0.2724  0.2938  0.3293
 4425TIP3    H134690   5.605   1.728  12.725 -1.3467 -0.2732  0.1345
 4425TIP3    H234691   5.596   1.819  12.604  0.6902  0.6613  0.6474
 4426TIP3   OH234692   2.535   3.243  14.682  0.2658 -0.0554 -0.4649
 4426TIP3    H134693   2.444   3.230  14.709  0.3006 -1.2096 -0.8225
 4426TIP3    H234694   2.537   3.212  14.591  0.5800  1.8839 -1.1482
 4427TIP3   OH234695   0.393   3.646   2.037 -0.0974  0.0204 -0.4144
 4427TIP3    H134696   0.308   3.666   2.077  0.4313  0.2192  0.6309
 4427TIP3    H234697   0.426   3.572   2.086  0.4165  0.0533 -0.7067
 4428TIP3   OH234698   3.009   1.854  17.199 -0.0954 -0.2948  0.3598
 4428TIP3    H134699   2.927   1.818  17.164  0.4804 -2.7182  1.2575
 4428TIP3    H234700   3.052   1.894  17.123 -1.0972 -1.0243 -0.6191
 4429TIP3   OH234701   0.314   2.787  14.199 -0.1831  0.3576 -0.0153
 4429TIP3    H134702   0.275   2.723  14.259 -0.6015 -0.2039 -0.8716
 4429TIP3    H234703   0.257   2.787  14.122  2.5877 -2.1226 -2.3056
 4430TIP3   OH234704   1.309   5.490  12.300  0.2028  0.0683  0.2593
 4430TIP3    H134705   1.356   5.438  12.235 -0.1590  0.3387 -0.2284
 4430TIP3    H234706   1.372   5.505  12.370  0.3368 -0.9455  0.3583
 4431TIP3   OH234707   5.118   4.110  12.818 -0.3258  0.0957  0.1340
 4431TIP3    H134708   5.044   4.100  12.759  0.5038 -0.9851 -0.7558
 4431TIP3    H234709   5.193   4.076  12.769  0.8241  1.4256  0.9004
 4432TIP3   OH234710   2.979   4.794   0.207 -0.3899 -0.0104  0.4720
 4432TIP3    H134711   3.062   4.762   0.174 -0.3944  0.0677  0.3850
 4432TIP3    H234712   2.955   4.733   0.277  0.4824  0.7934  1.5195
 4433TIP3   OH234713   0.072   2.540  11.629  0.2209 -0.3608 -0.0162
 4433TIP3    H134714   0.033   2.532  11.717  2.2245 -1.6649  0.8240
 4433TIP3    H234715   0.051   2.456  11.587 -0.6603  0.2283 -0.8029
 4434TIP3   OH234716   2.508   1.490  12.243  0.2771 -0.1637 -0.4862
 4434TIP3    H134717   2.468   1.422  12.295 -0.3784  0.2219 -0.4788
 4434TIP3    H234718   2.572   1.531  12.301 -1.1529  0.9283  0.3663
 4435TIP3   OH234719   0.295   4.234  14.252 -0.2285 -0.0873 -0.2685
 4435TIP3    H134720   0.333   4.239  14.339 -1.6019  0.4911  0.3187
 4435TIP3    H234721   0.202   4.215  14.267 -0.2129 -1.5114 -1.6577
 4436TIP3   OH234722   3.401   6.038   4.697  0.2732 -0.4069 -0.7328
 4436TIP3    H134723   3.450   6.111   4.660  0.3549 -0.0051  0.1346
 4436TIP3    H234724   3.435   5.960   4.653 -0.1992  0.1200 -2.0687
 4437TIP3   OH234725   4.433   1.203   0.910 -0.1512  0.1284  0.6287
 4437TIP3    H134726   4.514   1.253   0.901  1.0296 -2.0517 -2.0070
 4437TIP3    H234727   4.364   1.269   0.906  1.4061  1.8297  0.5153
 4438TIP3   OH234728   0.605   5.433   4.310 -0.6978 -0.3907 -0.1478
 4438TIP3    H134729   0.530   5.375   4.294 -0.4796 -0.3519 -1.4554
 4438TIP3    H234730   0.580   5.516   4.270  1.2766 -1.2962 -3.7018
 4439TIP3   OH234731   5.304   0.562   2.430  0.3264  0.1916  0.6716
 4439TIP3    H134732   5.368   0.515   2.376 -0.7105  1.4386 -1.8281
 4439TIP3    H234733   5.284   0.503   2.502  0.5038 -2.4069 -1.2800
 4440TIP3   OH234734   4.895   3.485  13.259 -0.1672 -0.3514 -0.8197
 4440TIP3    H134735   4.940   3.401  13.272 -1.4414 -1.0205 -0.4998
 4440TIP3    H234736   4.928   3.518  13.176  1.2327 -0.5826 -0.3843
 4441TIP3   OH234737   4.584   1.834   5.884  0.7174  0.3015  0.2159
 4441TIP3    H134738   4.549   1.782   5.956 -0.2541 -0.3180 -0.6623
 4441TIP3    H234739   4.677   1.814   5.883  0.9289  1.0368  1.8578
 4442TIP3   OH234740   5.734   4.222   4.925  0.0087 -0.1772 -0.1250
 4442TIP3    H134741   5.743   4.133   4.889  1.3166 -0.3850  0.6551
 4442TIP3    H234742   5.767   4.215   5.015 -3.7961  0.1411  1.4957
 4443TIP3   OH234743   6.145   1.539   3.155  0.1600  0.3468  0.3635
 4443TIP3    H134744   6.171   1.551   3.246  0.1628 -0.4241  0.4735
 4443TIP3    H234745   6.176   1.451   3.133 -0.8687  0.0632 -0.0215
 4444TIP3   OH234746   3.166   0.199  10.677  0.2833 -0.1355  0.3044
 4444TIP3    H134747   3.145   0.288  10.706  0.0283 -0.3792  0.8579
 4444TIP3    H234748   3.084   0.166  10.639  0.3779 -0.1391  0.1001
 4445TIP3   OH234749   3.046   1.810  16.310  0.6380  0.1071  0.0932
 4445TIP3    H134750   2.996   1.869  16.368  0.4480 -0.2713  0.3218
 4445TIP3    H234751   3.050   1.857  16.227  0.0715  0.2390  0.1305
 4446TIP3   OH234752   6.082   0.113   2.011  0.4667 -0.2830  0.1559
 4446TIP3    H134753   6.168   0.087   2.042  0.2129 -1.2069  0.1290
 4446TIP3    H234754   6.063   0.053   1.938 -1.5610 -2.4357  2.2353
 4447TIP3   OH234755   5.831   4.517   1.029 -0.1491  0.1095  0.0661
 4447TIP3    H134756   5.790   4.431   1.040 -0.7633 -0.0027 -2.4131
 4447TIP3    H234757   5.831   4.555   1.116 -0.3507 -2.1825  1.1323
 4448TIP3   OH234758   3.502   2.156  12.871 -0.1251 -0.8260  0.2832
 4448TIP3    H134759   3.579   2.176  12.924 -1.4915 -1.3157  2.5811
 4448TIP3    H234760   3.496   2.229  12.810 -0.5428  1.8356  3.2679
 4449TIP3   OH234761   3.906   2.668   6.224 -0.0399 -0.7679 -0.4409
 4449TIP3    H134762   3.967   2.597   6.242  0.6372 -0.3950 -1.1986
 4449TIP3    H234763   3.821   2.633   6.248  0.5602 -0.9608  1.6046
 4450TIP3   OH234764   2.444   0.002   2.904  0.7728 -0.3226  0.4107
 4450TIP3    H134765   2.471   0.070   2.842  1.8414 -0.6174  0.5400
 4450TIP3    H234766   2.507   0.009   2.976 -0.3693 -0.0636  1.4210
 4451TIP3   OH234767   4.077   0.921  15.122  0.1580  0.3040 -0.1408
 4451TIP3    H134768   4.148   0.904  15.184  1.3272  0.6580 -1.3239
 4451TIP3    H234769   4.011   0.854  15.142  1.2064 -0.5952  0.4405
 4452TIP3   OH234770   4.001   2.436  11.244  0.3133  0.4541 -0.3493
 4452TIP3    H134771   4.038   2.524  11.239 -0.5661  0.8884  0.5041
 4452TIP3    H234772   3.922   2.446  11.296  0.5521 -0.9573  0.3303
 4453TIP3   OH234773   5.915   1.594  11.524  0.4916  0.3963 -0.4085
 4453TIP3    H134774   5.827   1.560  11.509  0.6917 -1.4130  1.9919
 4453TIP3    H234775   5.958   1.589  11.438 -1.5856  0.9960 -1.5483
 4454TIP3   OH234776   0.161   1.421  11.722  0.0226 -0.4690 -0.4127
 4454TIP3    H134777   0.255   1.412  11.713  0.2034 -0.2184  1.0805
 4454TIP3    H234778   0.128   1.419  11.632  1.4762 -0.2043 -0.9690
 4455TIP3   OH234779   4.710   6.093  12.225 -0.1673  0.5654 -0.0804
 4455TIP3    H134780   4.668   6.007  12.236 -0.6788  0.9128  0.8093
 4455TIP3    H234781   4.659   6.135  12.156 -1.7829  1.2350  1.4236
 4456TIP3   OH234782   6.588   1.257   2.078  0.2647 -0.7742  0.4365
 4456TIP3    H134783   6.587   1.323   2.146  3.5631  1.1279 -1.1093
 4456TIP3    H234784   6.526   1.289   2.012  1.5850  0.7040 -0.1459
 4457TIP3   OH234785   1.397   2.796  16.516  0.4369 -0.1118 -0.0303
 4457TIP3    H134786   1.412   2.744  16.437 -0.4839  1.0895 -1.0528
 4457TIP3    H234787   1.332   2.861  16.489 -0.0270  0.2272  1.7831
 4458TIP3   OH234788   5.923   5.975  16.981  0.0443 -0.5665 -0.5321
 4458TIP3    H134789   6.006   5.962  16.935 -0.9551 -0.7646 -2.3710
 4458TIP3    H234790   5.883   5.888  16.983  0.3505 -0.7126  1.4044
 4459TIP3   OH234791   4.086   0.781  13.979 -0.0052  0.2566  0.1922
 4459TIP3    H134792   4.012   0.737  13.938  0.8432 -0.3018 -0.7929
 4459TIP3    H234793   4.052   0.814  14.062 -1.4126  0.2317 -0.3553
 4460TIP3   OH234794   0.559   4.797  16.613 -0.2799 -0.0900 -0.3273
 4460TIP3    H134795   0.524   4.872  16.565  0.1686 -1.3599 -2.8032
 4460TIP3    H234796   0.640   4.829  16.652 -0.5646  0.9592 -0.5654
 4461TIP3   OH234797   5.577   0.505  17.008 -0.1426  0.2265  0.3127
 4461TIP3    H134798   5.614   0.417  17.018  1.8001  1.0981  1.5857
 4461TIP3    H234799   5.483   0.491  17.001 -0.1651 -1.8756  2.9028
 4462TIP3   OH234800   1.135   4.056   2.168 -0.1496 -0.2786 -0.2283
 4462TIP3    H134801   1.105   4.052   2.258  0.5679 -1.2316 -0.0095
 4462TIP3    H234802   1.071   4.003   2.119  1.7964 -3.6002  0.4729
 4463TIP3   OH234803   3.792   6.698  14.788 -0.9945  0.0334 -0.6608
 4463TIP3    H134804   3.808   6.790  14.771 -0.5453  0.1077  0.1460
 4463TIP3    H234805   3.723   6.697  14.855  0.5294 -0.1590  0.9588
 4464TIP3   OH234806   1.982   3.458  16.816  0.0755  0.1644  0.4455
 4464TIP3    H134807   1.951   3.368  16.811  0.2306  0.1393 -0.1766
 4464TIP3    H234808   1.960   3.496  16.731  2.5196 -0.1329 -0.4142
 4465TIP3   OH234809   0.903   4.229   1.198  0.1647 -0.6330  0.6019
 4465TIP3    H134810   0.961   4.303   1.180 -2.5747  1.4733 -0.2860
 4465TIP3    H234811   0.826   4.269   1.238 -0.5638 -3.3305  2.1272
 4466TIP3   OH234812   0.128   6.736  12.222 -0.4506 -0.0866  0.1458
 4466TIP3    H134813   0.108   6.686  12.302 -0.4265 -1.4858 -0.6911
 4466TIP3    H234814   0.158   6.670  12.160 -1.2272  0.8726 -1.2926
 4467TIP3   OH234815   4.326   5.985   4.000 -0.4017 -0.1284  0.2739
 4467TIP3    H134816   4.247   6.018   3.959  1.4938  3.7972 -0.6302
 4467TIP3    H234817   4.325   5.891   3.982 -3.6614  0.1410 -1.6449
 4468TIP3   OH234818   5.837   1.832   4.671  0.2867  0.1743 -0.1310
 4468TIP3    H134819   5.778   1.902   4.644  0.2943  0.8242  1.4406
 4468TIP3    H234820   5.792   1.789   4.744  1.9226  1.0342  1.4726
 4469TIP3   OH234821   0.351   0.307  12.616  0.3870  0.0958  0.3700
 4469TIP3    H134822   0.313   0.296  12.529  2.4795 -1.8143 -0.3946
 4469TIP3    H234823   0.427   0.364  12.602  1.1261 -0.7681  0.8132
 4470TIP3   OH234824   6.017   2.859  16.091 -0.0112 -0.6443 -0.2940
 4470TIP3    H134825   5.983   2.931  16.037  0.0381  0.6749  1.3439
 4470TIP3    H234826   5.939   2.808  16.113 -0.4907  0.4108  0.6107
 4471TIP3   OH234827   0.323   2.873  10.986  0.1374  0.0674  0.9687
 4471TIP3    H134828   0.379   2.839  11.055 -0.8757  0.9470  2.2811
 4471TIP3    H234829   0.241   2.825  10.996  0.1106 -0.0738  0.1229
 4472TIP3   OH234830   2.916   5.989   2.401  0.6176  0.3573 -0.6081
 4472TIP3    H134831   2.962   5.949   2.327 -1.0532  0.2621 -1.6253
 4472TIP3    H234832   2.897   6.078   2.373 -0.1356  0.2856 -0.3442
 4473TIP3   OH234833   3.169   6.646   2.116 -0.1935 -0.0406 -0.0184
 4473TIP3    H134834   3.256   6.614   2.089  0.2966  1.1278  0.1253
 4473TIP3    H234835   3.167   6.736   2.086 -1.4801 -0.1327 -0.2503
 4474TIP3   OH234836   6.574   3.030  13.069  0.4020  1.0392 -0.0332
 4474TIP3    H134837   6.576   3.100  13.004  0.7408  0.7744 -0.3126
 4474TIP3    H234838   6.549   2.952  13.021 -0.2577  1.0188  0.3340
 4475TIP3   OH234839   5.846   4.401  15.732  0.3720 -0.0428 -0.1843
 4475TIP3    H134840   5.836   4.338  15.804  0.3784  0.2589  0.0814
 4475TIP3    H234841   5.916   4.364  15.678 -0.0577 -0.5847 -0.3764
 4476TIP3   OH234842   1.283   1.237   5.021  0.1189  0.5068 -0.3827
 4476TIP3    H134843   1.373   1.260   5.046  0.3395 -0.5364 -0.1747
 4476TIP3    H234844   1.232   1.315   5.043  0.8476  0.8243  0.2471
 4477TIP3   OH234845   5.216   1.636  15.855  0.1419  0.4993  0.1222
 4477TIP3    H134846   5.233   1.643  15.761 -0.5531 -0.8117 -0.1161
 4477TIP3    H234847   5.131   1.594  15.861 -0.3260  1.5550  1.3486
 4478TIP3   OH234848   5.106   5.363  12.718  0.8032 -0.1601 -0.3694
 4478TIP3    H134849   5.113   5.273  12.686 -0.1168 -0.4846  0.3087
 4478TIP3    H234850   5.095   5.354  12.812 -1.7715  0.5077 -0.5402
 4479TIP3   OH234851   0.749   5.010   4.898  0.3238  0.3187  0.2181
 4479TIP3    H134852   0.837   4.980   4.921  0.4774  0.2734 -0.4246
 4479TIP3    H234853   0.697   4.930   4.894  0.3610  0.2995  0.1200
 4480TIP3   OH234854   4.010   4.600  16.775 -0.0122  0.3786  0.0877
 4480TIP3    H134855   3.966   4.635  16.852 -1.0798  0.3587 -0.4884
 4480TIP3    H234856   4.100   4.584  16.803 -0.9980 -2.2563  2.1505
 4481TIP3   OH234857   3.127   0.473  16.369  0.1365  0.6593 -1.3786
 4481TIP3    H134858   3.111   0.395  16.317 -0.5677 -1.8124  2.1832
 4481TIP3    H234859   3.217   0.463  16.400  0.8187  2.4829 -2.5789
 4482TIP3   OH234860   0.956   6.511  16.651  0.4646  0.1765 -0.4686
 4482TIP3    H134861   1.048   6.485  16.645  0.1878 -0.9871  0.0448
 4482TIP3    H234862   0.943   6.531  16.743  0.1107 -0.0343 -0.4741
 4483TIP3   OH234863   1.520   3.358   3.706 -0.3305  0.4824 -0.5237
 4483TIP3    H134864   1.577   3.424   3.666  2.9944 -1.7071  0.2092
 4483TIP3    H234865   1.532   3.370   3.801 -0.7071 -0.3444 -0.3593
 4484TIP3   OH234866   0.600   6.095   3.803 -0.2762 -0.0922  0.4108
 4484TIP3    H134867   0.582   6.055   3.718  2.1513 -1.1208  0.2816
 4484TIP3    H234868   0.531   6.063   3.860 -1.3071 -0.2969 -0.9018
 4485TIP3   OH234869   3.635   2.191   0.383  0.1819 -0.2870 -0.2980
 4485TIP3    H134870   3.651   2.283   0.359  1.0664 -0.5902 -0.9044
 4485TIP3    H234871   3.639   2.191   0.479  1.0044  0.1759 -0.3186
 4486TIP3   OH234872   0.024   2.842   1.462  0.8679 -0.4840  0.4674
 4486TIP3    H134873  -0.033   2.860   1.388 -1.4061 -1.2985  1.9076
 4486TIP3    H234874   0.010   2.749   1.481  2.3350 -0.5938  1.2029
 4487TIP3   OH234875   2.140   0.359   0.498 -0.1223  0.6594  0.1188
 4487TIP3    H134876   2.051   0.341   0.468 -0.0514 -0.0006  0.2919
 4487TIP3    H234877   2.154   0.297   0.570  1.9565 -2.2762 -2.5411
 4488TIP3   OH234878   6.279   4.147  14.097 -0.2615  0.5053  0.9142
 4488TIP3    H134879   6.370   4.149  14.127 -0.3419  0.1743  1.1876
 4488TIP3    H234880   6.275   4.072  14.038 -0.4025  0.4009  1.0556
 4489TIP3   OH234881   2.924   0.137  14.768 -0.1548  0.4289 -0.3838
 4489TIP3    H134882   2.861   0.154  14.838 -0.2634  1.5104 -0.7317
 4489TIP3    H234883   2.918   0.042  14.753  0.0768  0.1313  1.2412
 4490TIP3   OH234884   1.875   4.277  14.604 -0.4796  0.7528 -0.4103
 4490TIP3    H134885   1.848   4.269  14.513 -0.5833  0.5938 -0.3667
 4490TIP3    H234886   1.879   4.187  14.636 -1.9595  0.8523  0.1741
 4491TIP3   OH234887   3.310   3.100   5.235  0.0880  0.2544  0.7031
 4491TIP3    H134888   3.257   3.123   5.311 -1.6600  1.0859 -0.6861
 4491TIP3    H234889   3.335   3.009   5.250 -0.0870  0.4356  2.3160
 4492TIP3   OH234890   2.874   0.183   4.639  0.2243 -0.2013 -0.0132
 4492TIP3    H134891   2.793   0.137   4.659  0.7504 -0.4555  1.6321
 4492TIP3    H234892   2.894   0.233   4.718 -0.1663  2.7132 -1.5826
 4493TIP3   OH234893   3.370   4.896   4.092  0.3179 -0.4041  0.1216
 4493TIP3    H134894   3.363   4.852   4.177  2.7027  1.1829  1.2373
 4493TIP3    H234895   3.281   4.895   4.057 -0.6346 -1.5700  2.3706
 4494TIP3   OH234896   5.085   3.859   3.583  0.0586 -0.2047  0.4744
 4494TIP3    H134897   5.179   3.860   3.602  0.0811  0.9967  0.4015
 4494TIP3    H234898   5.077   3.810   3.501  0.9084  1.6352 -0.7626
 4495TIP3   OH234899   2.378   5.585  16.424  0.0270 -0.5724  0.3610
 4495TIP3    H134900   2.380   5.509  16.367  1.5598  0.6121 -1.2613
 4495TIP3    H234901   2.408   5.658  16.369  0.2719  0.8863  2.3049
 4496TIP3   OH234902   6.530   3.420  14.276 -0.1374  0.0262 -0.0248
 4496TIP3    H134903   6.570   3.408  14.189 -0.5119 -0.6180 -0.1155
 4496TIP3    H234904   6.439   3.442  14.257 -0.1420  0.1934  0.1982
 4497TIP3   OH234905   0.999   0.821   1.324  0.2186  0.1161  0.6318
 4497TIP3    H134906   0.910   0.856   1.320  0.5163  0.7142 -1.9812
 4497TIP3    H234907   1.001   0.773   1.408 -2.4215  0.3702  0.9412
 4498TIP3   OH234908   6.118   3.487  12.771  0.1217  0.2222  0.0566
 4498TIP3    H134909   6.116   3.438  12.853  2.1984  1.0640  0.6774
 4498TIP3    H234910   6.163   3.430  12.709  0.0508  0.2405 -0.0122
 4499TIP3   OH234911   6.622   2.896  12.422  0.2982 -0.3441  0.0274
 4499TIP3    H134912   6.706   2.851  12.408  0.7304  0.7237 -0.9533
 4499TIP3    H234913   6.563   2.856  12.358  1.3031  1.9888 -2.5659
 4500TIP3   OH234914   5.829   2.007  14.589  0.2184 -0.8763  0.7507
 4500TIP3    H134915   5.888   1.932  14.586 -0.6201 -1.5696  1.0714
 4500TIP3    H234916   5.886   2.083  14.577  1.0786 -1.5607  0.3930
 4501TIP3   OH234917   1.482   1.471  16.850 -0.4166  0.6668  0.2322
 4501TIP3    H134918   1.448   1.552  16.812  2.7789  1.4114 -1.3375
 4501TIP3    H234919   1.485   1.409  16.777 -1.9297 -0.6445  1.2065
 4502TIP3   OH234920   4.082   1.921   0.388 -0.1154  0.7922 -0.4766
 4502TIP3    H134921   4.013   1.948   0.327 -1.5752  1.6746  1.4629
 4502TIP3    H234922   4.136   2.000   0.399  0.9212  0.2674 -1.5444
 4503TIP3   OH234923   3.038   0.192   2.006  0.1783 -0.5010  0.0573
 4503TIP3    H134924   3.124   0.154   1.991  0.1529 -0.1570 -1.0856
 4503TIP3    H234925   3.040   0.275   1.959 -0.4591 -0.0442  0.8192
 4504TIP3   OH234926   4.882   6.146  11.156  0.7389  0.0830 -0.2486
 4504TIP3    H134927   4.972   6.176  11.163  0.6536  0.7945 -1.8511
 4504TIP3    H234928   4.850   6.184  11.074 -0.8065 -0.7070 -0.0489
 4505TIP3   OH234929   3.404   4.074   3.307  0.0355 -0.2137  0.1224
 4505TIP3    H134930   3.336   4.056   3.242  0.4705  0.1325 -0.4506
 4505TIP3    H234931   3.435   4.162   3.284 -0.9873  0.6488  1.8862
 4506TIP3   OH234932   6.574   4.058  14.207 -0.1655 -0.2880 -0.1849
 4506TIP3    H134933   6.541   4.042  14.296 -1.2227 -1.1424 -0.7161
 4506TIP3    H234934   6.612   3.974  14.180  2.1472  0.5356  0.2418
 4507TIP3   OH234935   3.084   5.388  15.951 -0.5813 -0.1868 -0.2264
 4507TIP3    H134936   3.083   5.484  15.953 -1.6274 -0.1958  0.1250
 4507TIP3    H234937   3.075   5.362  16.043 -0.6501 -0.6167 -0.3536
 4508TIP3   OH234938   6.166   5.889  16.415 -0.2333 -0.1183  0.1604
 4508TIP3    H134939   6.189   5.853  16.500  0.4880  0.5497  0.2647
 4508TIP3    H234940   6.240   5.946  16.392 -1.1441  0.9831 -0.1732
 4509TIP3   OH234941   5.927   5.753  12.667  0.2564 -0.0284  0.2793
 4509TIP3    H134942   5.942   5.672  12.715  0.6995 -0.3800 -0.4212
 4509TIP3    H234943   5.893   5.725  12.582 -0.0602  0.5498  0.2065
 4510TIP3   OH234944   3.700   1.177   5.381  0.4014 -0.1081 -0.1416
 4510TIP3    H134945   3.629   1.223   5.337 -0.2053 -0.8221  0.0835
 4510TIP3    H234946   3.680   1.084   5.370  0.0949 -0.3255  1.8127
 4511TIP3   OH234947   3.725   6.374  15.576  0.1422 -0.7634  0.0504
 4511TIP3    H134948   3.687   6.445  15.524 -0.5519 -1.4413 -0.3743
 4511TIP3    H234949   3.820   6.386  15.567  0.0308 -0.5119 -0.8684
 4512TIP3   OH234950   0.264   3.474   4.626 -0.4369  0.3208 -0.6655
 4512TIP3    H134951   0.330   3.476   4.695 -1.7660 -0.0780  0.6511
 4512TIP3    H234952   0.300   3.415   4.560  0.3421 -0.1909  0.1984
 4513TIP3   OH234953   5.274   2.338  16.582  0.0257 -0.1149 -0.4091
 4513TIP3    H134954   5.267   2.385  16.499 -0.6599 -0.7921 -0.7537
 4513TIP3    H234955   5.285   2.246  16.557  0.1825 -0.2854  0.2515
 4514TIP3   OH234956   0.978   1.510  11.124 -0.6019  0.6399  0.4913
 4514TIP3    H134957   0.882   1.507  11.126 -0.5996 -0.4188  0.0667
 4514TIP3    H234958   1.001   1.472  11.039  0.1722  2.1065  0.0190
 4515TIP3   OH234959   2.126   4.610  14.980 -0.1215 -0.6095 -0.8281
 4515TIP3    H134960   2.030   4.605  14.976 -0.4412  2.6681  0.2839
 4515TIP3    H234961   2.150   4.663  14.904  0.8446 -1.2772 -1.0131
 4516TIP3   OH234962   1.701   5.750   1.893 -0.2009  0.1315 -0.4554
 4516TIP3    H134963   1.636   5.770   1.960 -0.6498  0.5182 -0.9979
 4516TIP3    H234964   1.696   5.655   1.882 -0.0839  0.0569  0.0910
 4517TIP3   OH234965   0.058   3.369   5.531 -0.6315 -0.0681  0.2016
 4517TIP3    H134966   0.075   3.323   5.613 -0.4736 -0.0996  0.1528
 4517TIP3    H234967  -0.037   3.366   5.520 -0.5012 -2.2356 -0.8510
 4518TIP3   OH234968   4.808   2.025   2.909  0.1765 -0.5511  0.1363
 4518TIP3    H134969   4.812   2.105   2.961  1.7478 -0.4069 -0.1326
 4518TIP3    H234970   4.871   2.040   2.838 -0.0530 -1.7301 -0.3402
 4519TIP3   OH234971   4.182   3.527   0.343  0.1145 -0.5667  0.6772
 4519TIP3    H134972   4.187   3.445   0.295  0.7739  0.0733 -0.3983
 4519TIP3    H234973   4.117   3.579   0.296 -1.3954 -0.9886  2.2132
 4520TIP3   OH234974   1.278   5.569   2.649 -0.0087  0.3970  0.2580
 4520TIP3    H134975   1.218   5.497   2.630 -1.0845  1.1932  0.5808
 4520TIP3    H234976   1.345   5.562   2.580  0.8392 -1.8730  1.2083
 4521TIP3   OH234977   4.963   0.996   4.914 -0.2582  0.5058 -0.2934
 4521TIP3    H134978   4.896   1.037   4.860 -1.0320  0.3358  0.5238
 4521TIP3    H234979   5.039   1.053   4.905 -1.2879  2.1307  0.8052
 4522TIP3   OH234980   5.066   3.482   3.258  0.1954  0.1648  0.3661
 4522TIP3    H134981   5.159   3.475   3.240 -0.1171 -0.1351 -1.3614
 4522TIP3    H234982   5.033   3.544   3.193 -1.0551 -0.9992 -0.1753
 4523TIP3   OH234983   6.690   3.084  17.004  0.1759 -0.3718  0.0854
 4523TIP3    H134984   6.660   3.126  17.085 -1.9295 -2.7759  0.6950
 4523TIP3    H234985   6.689   2.990  17.024  3.0318 -0.8973 -1.6901
 4524TIP3   OH234986   2.982   1.399   5.533  0.0566 -0.1580  0.6909
 4524TIP3    H134987   2.960   1.316   5.490 -3.9980  0.9085  0.2205
 4524TIP3    H234988   2.932   1.397   5.615  2.2157  0.6821  2.0994
 4525TIP3   OH234989   2.383   5.753  12.101 -0.0830 -0.3370  0.2167
 4525TIP3    H134990   2.432   5.806  12.039  0.4066 -0.5500  0.4187
 4525TIP3    H234991   2.409   5.786  12.187 -0.9160  0.0986  0.3192
 4526TIP3   OH234992   0.387   5.086  17.061  0.0328  0.4720 -0.4084
 4526TIP3    H134993   0.456   5.022  17.042 -0.5616  0.0857 -1.3578
 4526TIP3    H234994   0.421   5.138  17.133  0.9854 -0.2256 -0.3414
 4527TIP3   OH234995   2.420   3.856   2.433  0.8666  0.3042 -0.1104
 4527TIP3    H134996   2.454   3.834   2.520  1.2547  1.1449 -0.0403
 4527TIP3    H234997   2.365   3.933   2.448  0.3788  0.0382 -0.5066
 4528TIP3   OH234998   3.197   1.354  12.916 -0.4374  0.9220 -0.2481
 4528TIP3    H134999   3.146   1.284  12.955  1.0483 -0.1622 -0.1755
 4528TIP3    H235000   3.147   1.380  12.838  0.3744 -2.3533 -2.0605
 4529TIP3   OH235001   6.642   4.874   4.459 -0.0370 -0.1651  0.9226
 4529TIP3    H135002   6.570   4.933   4.436 -1.7804 -1.5153  2.5848
 4529TIP3    H235003   6.600   4.789   4.470  2.1759 -1.4594 -0.0010
 4530TIP3   OH235004   1.317   3.342   5.135 -0.1841 -0.6427 -0.2025
 4530TIP3    H135005   1.285   3.396   5.063 -0.5727 -1.9443 -1.0440
 4530TIP3    H235006   1.246   3.280   5.151  0.1962 -0.8278  0.8374
 4531TIP3   OH235007   3.169   6.034   6.518 -0.8672 -0.2067 -0.2174
 4531TIP3    H135008   3.142   6.023   6.610 -0.5726 -0.7466 -0.1923
 4531TIP3    H235009   3.094   6.004   6.467 -0.8248 -0.4260 -0.1511
 4532TIP3   OH235010   0.075   0.813   2.661  0.1198 -0.0922 -0.0532
 4532TIP3    H135011   0.080   0.907   2.643 -1.0612  0.3170  1.4394
 4532TIP3    H235012   0.077   0.807   2.757 -0.7332 -1.5013 -0.0860
 4533TIP3   OH235013   1.185   1.688   2.487 -0.0337  0.0249 -0.5412
 4533TIP3    H135014   1.218   1.710   2.574 -0.1655  1.5794 -0.8568
 4533TIP3    H235015   1.183   1.592   2.486  1.4464 -0.0656  0.6051
 4534TIP3   OH235016   1.211   6.640   4.056 -0.0663 -0.6447 -0.7590
 4534TIP3    H135017   1.277   6.673   4.117 -0.8470  0.3330 -0.4126
 4534TIP3    H235018   1.233   6.547   4.045  2.1872 -0.0793 -1.7391
 4535TIP3   OH235019   2.942   0.377   1.831  0.2140 -0.5508 -0.2366
 4535TIP3    H135020   2.955   0.472   1.830  2.1225 -0.7728 -0.3673
 4535TIP3    H235021   2.926   0.354   1.740  0.6845 -0.4452 -0.3520
 4536TIP3   OH235022   1.328   0.912  15.795 -0.3417  0.2698 -0.6076
 4536TIP3    H135023   1.314   0.822  15.763 -0.3657  0.1924 -0.3786
 4536TIP3    H235024   1.240   0.947  15.805 -0.4487 -0.4522  1.5160
 4537TIP3   OH235025   3.933   5.854  14.692  0.2122  0.0459  0.5573
 4537TIP3    H135026   3.967   5.890  14.774  3.0875  0.3914 -0.6666
 4537TIP3    H235027   3.854   5.906  14.674  0.2464  0.8250  2.4113
 4538TIP3   OH235028   3.100   2.277  11.163 -0.1013 -0.5173  0.2539
 4538TIP3    H135029   3.076   2.212  11.097 -0.7809  0.4300 -0.4682
 4538TIP3    H235030   3.143   2.347  11.113  0.7319 -0.4495  1.0288
 4539TIP3   OH235031   0.240   3.955  12.843 -0.3770 -0.0627 -0.1930
 4539TIP3    H135032   0.238   3.869  12.799 -1.3814  0.8467 -2.0538
 4539TIP3    H235033   0.171   3.949  12.909  0.8174 -1.2937  1.0089
 4540TIP3   OH235034   3.714   2.283  11.969  0.7350 -0.8773 -0.2346
 4540TIP3    H135035   3.783   2.342  12.000  0.3768 -0.2050 -0.6884
 4540TIP3    H235036   3.757   2.198  11.961  1.6905 -0.3332 -1.1504
 4541TIP3   OH235037   2.556   0.188  15.945 -0.2181 -0.2269  0.0331
 4541TIP3    H135038   2.570   0.131  16.021  0.7056  0.4521  0.3852
 4541TIP3    H235039   2.542   0.275  15.982 -3.1981 -0.4085 -0.4054
 4542TIP3   OH235040   4.253   5.399   2.204 -0.3829 -0.6822  0.3104
 4542TIP3    H135041   4.319   5.367   2.265 -1.4985 -3.0453  0.4333
 4542TIP3    H235042   4.229   5.321   2.152 -2.8534  0.0858  0.1409
 4543TIP3   OH235043   2.189   5.637  16.741 -0.4570  0.3867 -0.4183
 4543TIP3    H135044   2.184   5.613  16.648  0.4307 -0.8752 -0.1607
 4543TIP3    H235045   2.098   5.650  16.767 -0.8379 -0.8729 -1.0556
 4544TIP3   OH235046   5.012   2.303   2.804 -0.3045  0.2456 -0.4817
 4544TIP3    H135047   4.954   2.359   2.753  1.5936  1.3540 -1.5220
 4544TIP3    H235048   5.079   2.275   2.742  1.8315  1.2735  1.2114
 4545TIP3   OH235049   5.682   5.592   3.171 -0.0938 -0.1347 -0.0501
 4545TIP3    H135050   5.725   5.638   3.099  0.6029  0.2622  0.6060
 4545TIP3    H235051   5.679   5.500   3.142  1.6570 -0.2684  0.0660
 4546TIP3   OH235052   3.291   4.503  15.742 -0.2520  0.8221 -0.0031
 4546TIP3    H135053   3.297   4.411  15.765 -0.4491  0.5404 -1.0447
 4546TIP3    H235054   3.303   4.549  15.825  2.0138 -0.0730  0.2405
 4547TIP3   OH235055   2.721   6.091   6.227  0.8566 -0.5358 -0.1952
 4547TIP3    H135056   2.691   6.000   6.233  0.4986 -0.5080 -1.3105
 4547TIP3    H235057   2.643   6.141   6.204  1.2520 -0.1013 -0.6283
 4548TIP3   OH235058   1.653   4.934   4.469  0.5382  0.3286  0.2091
 4548TIP3    H135059   1.628   4.861   4.413  2.0112 -0.9593  1.1337
 4548TIP3    H235060   1.728   4.901   4.519 -1.0319  1.1530  3.3838
 4549TIP3   OH235061   1.217   6.782  13.328  0.4452  0.6983  0.4506
 4549TIP3    H135062   1.166   6.753  13.252 -1.3135  0.2765  1.7239
 4549TIP3    H235063   1.198   6.717  13.396 -1.2414  3.1209  2.4654
 4550TIP3   OH235064   6.749   0.163  11.718  0.1237 -0.0084  0.2133
 4550TIP3    H135065   6.704   0.086  11.683 -0.7190  0.4530  0.2599
 4550TIP3    H235066   6.842   0.141  11.712 -0.1224 -1.6459  1.6038
 4551TIP3   OH235067   3.181   0.153   0.713  0.0943  0.2645 -0.4624
 4551TIP3    H135068   3.159   0.080   0.655 -1.6100  1.4123 -1.3366
 4551TIP3    H235069   3.148   0.126   0.798  0.5105 -0.4474 -0.5132
 4552TIP3   OH235070   4.967   5.993   2.050 -0.2666 -0.1018 -0.0141
 4552TIP3    H135071   4.944   5.948   2.131 -1.9883 -0.1273 -0.4768
 4552TIP3    H235072   4.959   6.086   2.071  1.8656 -0.0065  0.5401
 4553TIP3   OH235073   0.940   5.509   0.957  0.3523  0.0002 -0.8667
 4553TIP3    H135074   0.996   5.434   0.978 -0.7844 -1.1253 -1.6807
 4553TIP3    H235075   0.858   5.470   0.926 -0.9185  1.5773  0.3215
 4554TIP3   OH235076   0.641   2.512  16.902 -0.0181  0.1371  0.0667
 4554TIP3    H135077   0.713   2.451  16.886 -0.6084 -0.5217 -0.1060
 4554TIP3    H235078   0.683   2.598  16.901  0.7444 -0.2225 -0.1682
 4555TIP3   OH235079   2.338   0.444  16.879  0.0445  0.2906 -0.2423
 4555TIP3    H135080   2.280   0.519  16.887 -0.3089 -0.0798  1.0331
 4555TIP3    H235081   2.401   0.455  16.950 -0.7677 -1.2215  0.7815
 4556TIP3   OH235082   4.752   4.457  16.905  0.0328 -0.6466 -0.6564
 4556TIP3    H135083   4.679   4.499  16.860  0.6523  1.6760  0.3282
 4556TIP3    H235084   4.829   4.484  16.856  0.6587  1.4221  1.2687
 4557TIP3   OH235085   2.283   1.886   0.995 -0.2360  0.1569  0.1459
 4557TIP3    H135086   2.219   1.845   0.936  0.5668  0.9163 -1.3136
 4557TIP3    H235087   2.235   1.959   1.035 -0.6822 -0.1243  0.1301
 4558TIP3   OH235088   3.912   3.920   5.483  0.2859 -0.1871  0.3063
 4558TIP3    H135089   3.995   3.891   5.519  0.9001  0.0910 -0.8325
 4558TIP3    H235090   3.913   3.891   5.392 -1.0526 -0.5465  0.3814
 4559TIP3   OH235091   3.263   6.518   0.225 -0.2005 -0.1628  0.4591
 4559TIP3    H135092   3.220   6.453   0.169 -1.6886  0.8489  0.3735
 4559TIP3    H235093   3.304   6.579   0.164 -0.2430 -0.0902  0.5029
 4560TIP3   OH235094   2.078   5.042  17.165  0.3014 -0.5234  0.1449
 4560TIP3    H135095   2.146   5.022  17.100  0.3356  1.5316 -0.5218
 4560TIP3    H235096   2.118   5.108  17.222 -0.2348 -1.2468  1.4077
 4561TIP3   OH235097   5.843   6.229  12.302 -0.0534 -0.0879  0.5602
 4561TIP3    H135098   5.789   6.270  12.369 -0.4310 -0.6961  0.6328
 4561TIP3    H235099   5.860   6.141  12.335 -1.5072 -0.9229 -0.8144
 4562TIP3   OH235100   3.297   1.983  12.131  0.0525  0.0604  0.2301
 4562TIP3    H135101   3.289   2.027  12.047 -1.4769  1.9209  1.2538
 4562TIP3    H235102   3.391   1.976  12.147  0.3462  0.2677 -1.3114
 4563TIP3   OH235103   3.821   5.084  16.148  0.0604 -0.1951  0.3657
 4563TIP3    H135104   3.849   5.169  16.181 -0.3252 -0.1418  0.5589
 4563TIP3    H235105   3.834   5.024  16.221 -1.2120  0.0037  0.7767
 4564TIP3   OH235106   6.697   1.690  13.191  0.2507  0.7310 -0.4220
 4564TIP3    H135107   6.760   1.678  13.263  1.5496  2.8558 -1.1291
 4564TIP3    H235108   6.621   1.637  13.217  1.0115  0.7495  2.0888
 4565TIP3   OH235109   4.097   4.392  15.410 -0.0438 -0.3142 -0.1269
 4565TIP3    H135110   4.023   4.415  15.353 -1.5971  0.4580  2.0719
 4565TIP3    H235111   4.065   4.317  15.461  1.4651 -1.2533 -0.4911
 4566TIP3   OH235112   5.985   0.364  11.470 -0.0699 -0.1639  0.0258
 4566TIP3    H135113   5.959   0.430  11.406 -0.8140 -3.2761 -3.2747
 4566TIP3    H235114   6.078   0.380  11.484 -0.0388  1.0800 -1.3293
 4567TIP3   OH235115   5.549   2.842  16.173 -0.2009 -0.1464 -0.1615
 4567TIP3    H135116   5.485   2.913  16.185  0.8211  0.7697  0.0099
 4567TIP3    H235117   5.599   2.868  16.096  0.0685 -0.7875 -0.2051
 4568TIP3   OH235118   4.624   1.728  14.176  0.8523 -0.2106  0.0646
 4568TIP3    H135119   4.601   1.766  14.091  2.6876 -1.7755 -1.2374
 4568TIP3    H235120   4.688   1.789  14.213  0.6930  0.0503 -0.0898
 4569TIP3   OH235121   4.827   4.455  14.037  0.1749 -0.2286 -0.1549
 4569TIP3    H135122   4.911   4.469  13.992  0.3025 -1.9418 -0.5336
 4569TIP3    H235123   4.787   4.382  13.990 -0.5884 -0.7969  1.3126
 4570TIP3   OH235124   5.086   3.647   2.124 -0.0093 -0.1545 -0.4975
 4570TIP3    H135125   5.062   3.653   2.031  0.7386 -0.0395 -0.6949
 4570TIP3    H235126   5.160   3.586   2.126 -0.3652 -0.5715  0.0935
 4571TIP3   OH235127   1.245   0.460  16.272  0.1814  0.1307  0.0546
 4571TIP3    H135128   1.217   0.503  16.353 -1.4333 -0.4552 -0.1615
 4571TIP3    H235129   1.261   0.532  16.211 -1.4123  0.4903  0.0284
 4572TIP3   OH235130   0.141   5.548  16.394  0.4041 -0.0060  0.3338
 4572TIP3    H135131   0.165   5.596  16.315  0.1279 -0.7806 -0.2362
 4572TIP3    H235132   0.205   5.477  16.398  2.3312  1.7086  2.4736
 4573TIP3   OH235133   4.767   4.898  12.037 -0.3784  0.3782 -0.6066
 4573TIP3    H135134   4.824   4.824  12.057 -1.1081  0.1760  0.8155
 4573TIP3    H235135   4.793   4.924  11.948  0.0244 -1.4415 -1.0735
 4574TIP3   OH235136   3.032   2.787   2.661  0.1628 -0.0666 -0.4032
 4574TIP3    H135137   3.020   2.810   2.569 -0.6126 -1.1000 -0.5871
 4574TIP3    H235138   2.975   2.847   2.708 -0.8515 -0.7161 -0.7630
 4575TIP3   OH235139   3.520   6.226  12.823 -0.1501  0.1067  0.2131
 4575TIP3    H135140   3.487   6.262  12.740  2.7271  0.2667 -0.9498
 4575TIP3    H235141   3.545   6.136  12.802  2.6818  0.8179  0.2442
 4576TIP3   OH235142   0.969   3.035   4.827  0.2315 -0.1894 -0.1783
 4576TIP3    H135143   1.042   2.975   4.841  0.7103 -0.1336 -2.1021
 4576TIP3    H235144   0.899   3.002   4.884  0.7474 -2.0865 -0.5765
 4577TIP3   OH235145   5.414   6.617  12.444  0.3169  0.1424 -0.2269
 4577TIP3    H135146   5.493   6.579  12.481  0.7758  1.2243 -0.0536
 4577TIP3    H235147   5.351   6.617  12.516  1.3466  2.6504  0.7920
 4578TIP3   OH235148   2.528   2.259   2.101 -0.2418  0.1073 -0.0448
 4578TIP3    H135149   2.448   2.207   2.106 -1.2260  1.6072  0.1450
 4578TIP3    H235150   2.550   2.279   2.192 -0.8706  1.5038 -0.1886
 4579TIP3   OH235151   0.738   5.842  13.147  0.0223  0.6545 -0.1484
 4579TIP3    H135152   0.800   5.774  13.171 -0.4327  0.1829 -0.2928
 4579TIP3    H235153   0.749   5.853  13.052 -1.2151 -0.5808 -0.4810
 4580TIP3   OH235154   5.778   4.744  14.418  0.2038 -0.2595 -0.2828
 4580TIP3    H135155   5.767   4.664  14.366 -0.8733  0.3044 -0.9612
 4580TIP3    H235156   5.695   4.790  14.409  2.3701  3.5139 -4.2381
 4581TIP3   OH235157   4.184   5.271   5.179 -0.4986  0.7644  0.7514
 4581TIP3    H135158   4.222   5.332   5.242 -1.5441  1.0068  1.1677
 4581TIP3    H235159   4.254   5.255   5.116  0.4694  0.7649  1.7944
 4582TIP3   OH235160   6.692   1.709   3.878  0.5746 -0.2897  0.0268
 4582TIP3    H135161   6.626   1.639   3.880  0.6433 -0.3417  0.5465
 4582TIP3    H235162   6.758   1.676   3.817 -0.3654  0.2158 -1.2942
 4583TIP3   OH235163   1.069   5.233   5.483 -0.0825  0.3364  0.9799
 4583TIP3    H135164   1.095   5.277   5.402  0.3807  0.6435  1.2887
 4583TIP3    H235165   1.003   5.291   5.521 -0.0885  0.3396  0.9641
 4584TIP3   OH235166   1.734   2.751  11.448 -0.5940  0.4873 -0.4083
 4584TIP3    H135167   1.791   2.802  11.391  0.1174  0.7803  0.5378
 4584TIP3    H235168   1.687   2.816  11.500 -1.7872  0.2487 -1.1506
 4585TIP3   OH235169   6.629   1.194   1.268  0.3923 -0.2746  0.7023
 4585TIP3    H135170   6.720   1.204   1.241  0.0114 -0.1755 -0.5705
 4585TIP3    H235171   6.599   1.283   1.287  0.5808 -0.3169  1.2109
 4586TIP3   OH235172   2.406   1.796   1.507  0.3749 -0.1066 -0.2427
 4586TIP3    H135173   2.325   1.845   1.523  1.0419  0.1429  3.0929
 4586TIP3    H235174   2.463   1.859   1.464 -0.8012  0.0287 -1.6994
 4587TIP3   OH235175   6.368   5.642  16.244 -0.1840 -0.3103  0.2459
 4587TIP3    H135176   6.446   5.686  16.276  0.9687 -1.7538 -0.4699
 4587TIP3    H235177   6.325   5.608  16.322 -0.4527  1.0070  0.6955
 4588TIP3   OH235178   1.680   4.567   0.106 -0.2652 -0.1831  0.8527
 4588TIP3    H135179   1.698   4.505   0.177  0.0626 -1.3081 -0.1889
 4588TIP3    H235180   1.752   4.555   0.044 -2.3991 -1.9340 -1.4907
 4589TIP3   OH235181   3.352   6.536  11.422 -0.2420 -0.0253  0.1430
 4589TIP3    H135182   3.342   6.549  11.517  1.2579  3.1446 -0.0070
 4589TIP3    H235183   3.274   6.575  11.384  0.6974  1.8408  0.0114
 4590TIP3   OH235184   5.723   4.584  15.937 -0.3068 -0.2441  0.4242
 4590TIP3    H135185   5.801   4.608  15.986 -0.0864 -0.4099  0.1565
 4590TIP3    H235186   5.756   4.536  15.861 -0.7442 -1.8990  1.2054
 4591TIP3   OH235187   0.453   1.502   2.785  0.0106  0.7206 -0.7643
 4591TIP3    H135188   0.365   1.484   2.820  0.4352  0.7807  0.3836
 4591TIP3    H235189   0.463   1.597   2.794  0.7600  0.5451  0.5712
 4592TIP3   OH235190   1.492   1.976  13.279  0.1838 -0.5744  0.0712
 4592TIP3    H135191   1.455   1.966  13.367  0.3170 -1.6469  0.0175
 4592TIP3    H235192   1.464   1.898  13.232  0.6519 -0.3201 -0.6481
 4593TIP3   OH235193   0.155   5.969  11.279 -0.7477  0.5184 -0.1616
 4593TIP3    H135194   0.112   5.902  11.226 -0.8247  0.7807 -0.4305
 4593TIP3    H235195   0.234   5.991  11.229 -0.7567  0.6761 -0.1058
 4594TIP3   OH235196   2.638   2.662  10.979 -0.0569  0.0253 -0.0683
 4594TIP3    H135197   2.697   2.710  10.922  0.9563  0.0845  0.9976
 4594TIP3    H235198   2.693   2.630  11.050 -1.2494 -0.1934  0.7958
 4595TIP3   OH235199   2.687   1.588  10.824  0.4973 -0.1960  0.6908
 4595TIP3    H135200   2.778   1.610  10.842  0.1090  1.4839  0.7396
 4595TIP3    H235201   2.679   1.497  10.852  2.9042 -1.4427 -2.1610
 4596TIP3   OH235202   1.803   1.378   2.154 -0.4049  0.2565  0.0939
 4596TIP3    H135203   1.898   1.377   2.168 -0.6041 -2.1283  1.6991
 4596TIP3    H235204   1.775   1.463   2.188  0.7083 -0.5411  3.2908
 4597TIP3   OH235205   4.075   2.903   1.042  0.4110  0.2179  0.0741
 4597TIP3    H135206   4.122   2.829   1.081  0.2460 -0.1642 -0.4521
 4597TIP3    H235207   4.042   2.870   0.959  0.0576  0.7882 -0.0159
 4598TIP3   OH235208   4.403   4.900   2.195 -0.0812  0.1355  0.2557
 4598TIP3    H135209   4.410   4.957   2.119  1.2695  1.2631  1.1671
 4598TIP3    H235210   4.322   4.851   2.182  0.2971  0.0465 -2.0489
 4599TIP3   OH235211   4.436   2.667   2.938 -0.5006  0.3986  0.1138
 4599TIP3    H135212   4.465   2.715   3.016 -0.9660  0.4285  0.2697
 4599TIP3    H235213   4.491   2.701   2.867 -0.5298  0.8483  0.3057
 4600TIP3   OH235214   4.980   4.841   6.640 -0.2878  0.1630  0.2392
 4600TIP3    H135215   5.010   4.925   6.607 -0.4749 -0.2616 -1.0752
 4600TIP3    H235216   4.896   4.860   6.682  0.5478  0.9188  1.6490
 4601TIP3   OH235217   5.539   0.302  14.514 -0.4581 -0.1976  0.1085
 4601TIP3    H135218   5.475   0.246  14.559 -0.5395  0.8668  1.3697
 4601TIP3    H235219   5.497   0.388  14.508  0.7281  0.4519  0.7169
 4602TIP3   OH235220   0.863   5.673  11.384  0.4046 -0.1510  0.3226
 4602TIP3    H135221   0.847   5.580  11.366  2.9059 -0.4555 -0.6755
 4602TIP3    H235222   0.841   5.717  11.302 -1.5861  0.3209  1.0485
 4603TIP3   OH235223   3.358   2.485  13.517 -0.2378  0.2882 -0.4876
 4603TIP3    H135224   3.292   2.551  13.496  1.5793  2.9473  1.4904
 4603TIP3    H235225   3.436   2.513  13.469  0.2537 -1.1741 -0.5901
 4604TIP3   OH235226   4.595   6.631   6.414  0.1829 -0.5206 -0.6391
 4604TIP3    H135227   4.584   6.542   6.446  1.1285 -0.3908  0.0868
 4604TIP3    H235228   4.673   6.627   6.359  0.9698  0.1083  0.4079
 4605TIP3   OH235229   3.477   5.872   6.828  0.2325 -0.1021  0.4117
 4605TIP3    H135230   3.507   5.928   6.757  0.2353  1.3727  1.5406
 4605TIP3    H235231   3.409   5.923   6.873 -2.2590 -2.3318 -0.5154
 4606TIP3   OH235232   0.141   4.891   5.335 -0.4754  0.0895 -0.2704
 4606TIP3    H135233   0.119   4.854   5.421 -0.7621 -0.0111 -0.3845
 4606TIP3    H235234   0.067   4.949   5.315  0.0144  0.8035 -0.0482
 4607TIP3   OH235235   5.962   2.451  13.650  0.0897 -0.2224 -0.3714
 4607TIP3    H135236   5.867   2.448  13.638 -0.0117  0.4676  0.2285
 4607TIP3    H235237   5.974   2.489  13.737  0.8839 -1.8645  0.2897
 4608TIP3   OH235238   2.742   3.595  11.188 -0.5061  0.1893  0.4558
 4608TIP3    H135239   2.652   3.618  11.166 -0.4944 -0.4567 -0.3043
 4608TIP3    H235240   2.742   3.586  11.284 -1.6132 -1.2294  0.3539
 4609TIP3   OH235241   1.732   3.815  15.079 -0.1673  0.2092  0.0882
 4609TIP3    H135242   1.709   3.889  15.136  1.1151  0.1470  0.7134
 4609TIP3    H235243   1.716   3.848  14.991  0.9120  1.4552  0.3236
 4610TIP3   OH235244   1.023   4.607   3.068  0.2279  0.4614  0.0336
 4610TIP3    H135245   0.968   4.669   3.019 -2.3551  0.2491  2.4383
 4610TIP3    H235246   0.968   4.531   3.081  1.5526 -0.2977  1.4956
 4611TIP3   OH235247   1.428   2.432   2.222  0.3189 -0.1864 -0.1298
 4611TIP3    H135248   1.382   2.369   2.277 -0.3070 -0.9606 -1.4903
 4611TIP3    H235249   1.444   2.386   2.140 -0.1674  1.3986 -1.1816
 4612TIP3   OH235250   2.037   4.188  13.616 -0.2618 -0.0780  0.5271
 4612TIP3    H135251   1.952   4.213  13.581 -0.2222 -1.0457 -0.3186
 4612TIP3    H235252   2.086   4.157  13.539  0.8771  0.5178  0.9815
 4613TIP3   OH235253   6.183   5.906  11.567 -0.6322 -0.0477  0.3535
 4613TIP3    H135254   6.152   5.880  11.654  1.1991 -0.2034  0.9934
 4613TIP3    H235255   6.273   5.875  11.563 -1.0033 -1.0741 -2.0543
 4614TIP3   OH235256   0.728   1.692   2.465  0.2274  0.0852  0.1499
 4614TIP3    H135257   0.678   1.611   2.448  0.8346 -0.7822  2.1743
 4614TIP3    H235258   0.673   1.741   2.526 -0.0905  1.1972 -0.9987
 4615TIP3   OH235259   5.862   3.209   2.944  0.0678 -0.0333  0.3042
 4615TIP3    H135260   5.861   3.303   2.931  0.8533  0.0331  0.6672
 4615TIP3    H235261   5.775   3.188   2.978 -0.6174  0.3472 -1.1231
 4616TIP3   OH235262   5.802   2.525  15.364 -0.0332 -0.3216 -0.1106
 4616TIP3    H135263   5.876   2.586  15.362  0.5122 -0.9815 -0.7850
 4616TIP3    H235264   5.816   2.468  15.288 -1.8449  0.2421 -0.9016
 4617TIP3   OH235265   1.430   4.640  16.622  0.2579  0.2763 -0.0095
 4617TIP3    H135266   1.507   4.663  16.570  0.6488  0.0680  0.4711
 4617TIP3    H235267   1.402   4.722  16.661 -0.4018  0.5513 -1.0172
 4618TIP3   OH235268   5.919   4.922   2.132  0.2059  0.0862 -0.5864
 4618TIP3    H135269   5.884   5.005   2.099 -0.0762  1.2057  2.2238
 4618TIP3    H235270   5.851   4.890   2.192  1.9579 -0.0679  1.4522
 4619TIP3   OH235271   5.926   0.484   3.903  0.0447 -0.1025  0.1995
 4619TIP3    H135272   5.841   0.441   3.912 -0.5496  0.9689 -0.1661
 4619TIP3    H235273   5.912   0.572   3.937  1.3199 -0.2648  1.2054
 4620TIP3   OH235274   2.976   1.345   5.833  0.1110 -0.2737  0.1512
 4620TIP3    H135275   2.910   1.290   5.790  0.1639 -0.1840 -0.0460
 4620TIP3    H235276   3.008   1.291   5.905  0.7881 -0.8503 -0.5656
 4621TIP3   OH235277   6.581   2.160  14.315  0.1627 -0.1762 -0.6074
 4621TIP3    H135278   6.567   2.081  14.262 -0.9092 -1.1064  0.9814
 4621TIP3    H235279   6.523   2.226  14.276  1.0345 -0.1340 -1.9228
 4622TIP3   OH235280   2.256   0.661   3.944 -0.0753  0.7423 -0.2863
 4622TIP3    H135281   2.273   0.751   3.916 -0.2386  0.4940 -1.2136
 4622TIP3    H235282   2.243   0.612   3.862 -1.5585  0.1873  0.2473
 4623TIP3   OH235283   6.674   6.439   5.175 -0.3006 -0.1329  0.0384
 4623TIP3    H135284   6.632   6.356   5.152  1.8971 -1.3360  0.0460
 4623TIP3    H235285   6.690   6.481   5.091  0.6327 -0.8401 -0.1643
 4624TIP3   OH235286   2.640   0.850   4.280 -0.2194  0.0707  0.3399
 4624TIP3    H135287   2.676   0.896   4.204  1.4805  0.0717  1.1036
 4624TIP3    H235288   2.576   0.912   4.317 -0.5733  0.3381 -0.6881
 4625TIP3   OH235289   5.373   0.394   5.406  0.0067  0.6836 -0.9195
 4625TIP3    H135290   5.403   0.334   5.338 -0.2697  0.4157 -0.8090
 4625TIP3    H235291   5.338   0.469   5.359 -2.1249 -0.3910 -1.1711
 4626TIP3   OH235292   4.925   1.564  16.130 -0.8759 -0.1383 -0.0756
 4626TIP3    H135293   4.851   1.585  16.073 -0.2303 -0.2316 -0.9795
 4626TIP3    H235294   4.917   1.625  16.203 -1.9231 -0.2542 -0.0801
 4627TIP3   OH235295   2.564   0.630  13.282 -0.0366 -0.1445 -0.2444
 4627TIP3    H135296   2.584   0.539  13.306 -2.4458 -1.1429 -1.7076
 4627TIP3    H235297   2.474   0.643  13.313  0.3304  1.8523  0.1045
 4628TIP3   OH235298   3.366   1.691  17.010 -0.2560 -0.3624 -0.0844
 4628TIP3    H135299   3.404   1.775  16.984 -0.7237 -0.6505 -1.7977
 4628TIP3    H235300   3.440   1.639  17.041 -0.0046  0.7631  1.2816
 4629TIP3   OH235301   4.494   0.070  16.906 -0.0869 -0.2040  0.5542
 4629TIP3    H135302   4.399   0.061  16.898 -0.2990  1.4056  0.9570
 4629TIP3    H235303   4.522   0.103  16.821  0.0405 -0.1268  0.6252
 4630TIP3   OH235304   6.537   1.218  12.726 -0.4675 -0.4768  0.2990
 4630TIP3    H135305   6.628   1.233  12.751  0.3290 -4.1060  0.0231
 4630TIP3    H235306   6.503   1.156  12.791 -2.6827  0.5143  0.1980
 4631TIP3   OH235307   4.614   4.213   4.373 -0.1532 -0.3095  0.1232
 4631TIP3    H135308   4.538   4.181   4.323 -1.2732  1.1766  0.7793
 4631TIP3    H235309   4.610   4.308   4.363  1.0452 -0.1504  1.0252
 4632TIP3   OH235310   1.348   0.477  12.373 -0.1660 -0.4574  0.6148
 4632TIP3    H135311   1.276   0.431  12.417 -0.3323 -0.7342  0.0613
 4632TIP3    H235312   1.315   0.566  12.360  0.1706 -0.1532  1.7215
 4633TIP3   OH235313   0.044   5.185  14.028  0.4218  0.4771 -0.2925
 4633TIP3    H135314  -0.050   5.192  14.008 -0.0744 -1.0210  1.2048
 4633TIP3    H235315   0.085   5.163  13.945 -0.6618  0.5459 -0.8580
 4634TIP3   OH235316   5.629   4.603  15.349  0.5052  0.4311 -0.2630
 4634TIP3    H135317   5.717   4.614  15.386  1.3998 -2.3419 -1.2554
 4634TIP3    H235318   5.577   4.569  15.422  0.1418  2.3466  0.4027
 4635TIP3   OH235319   6.238   4.431  15.948 -0.3004  0.5769  0.0653
 4635TIP3    H135320   6.233   4.380  15.867 -0.0326  0.8734 -0.1412
 4635TIP3    H235321   6.227   4.522  15.919  0.9287  0.7862  0.2212
 4636TIP3   OH235322   3.115   0.928   3.489 -0.2670  0.0356  0.1747
 4636TIP3    H135323   3.188   0.990   3.494 -1.2485  1.2349  0.1952
 4636TIP3    H235324   3.048   0.965   3.547 -0.7500 -1.2426  0.4598
 4637TIP3   OH235325   1.452   1.643  15.480  0.3268 -0.0558 -0.2119
 4637TIP3    H135326   1.473   1.551  15.491  1.1311  0.1298 -0.1332
 4637TIP3    H235327   1.536   1.689  15.492  0.1333  0.6053 -1.2986
 4638TIP3   OH235328   2.490   1.658   5.300  0.0409 -0.2278  0.5309
 4638TIP3    H135329   2.561   1.598   5.323  0.5211 -0.0672 -0.4933
 4638TIP3    H235330   2.471   1.705   5.381  1.2034 -0.1657  0.7823
 4639TIP3   OH235331   5.100   4.664   3.681  0.5399 -0.5119 -0.4482
 4639TIP3    H135332   5.191   4.691   3.671  0.8933 -1.6410 -0.4465
 4639TIP3    H235333   5.087   4.598   3.612  0.2565 -1.6349  0.6407
 4640TIP3   OH235334   3.058   1.008   2.038 -0.3297  0.0125  0.2451
 4640TIP3    H135335   3.114   1.044   1.970 -1.6066 -0.5931 -1.1875
 4640TIP3    H235336   3.085   1.054   2.118  1.6037  0.3286 -0.5219
 4641TIP3   OH235337   4.519   4.272   2.085  0.3844  0.3405  0.2039
 4641TIP3    H135338   4.588   4.336   2.070  0.0282  0.7137  0.1355
 4641TIP3    H235339   4.446   4.323   2.121 -0.1644  0.1004 -0.5395
 4642TIP3   OH235340   2.186   1.600  11.108 -0.6034 -0.0236  0.7200
 4642TIP3    H135341   2.248   1.531  11.085 -2.4117 -1.8905  1.1355
 4642TIP3    H235342   2.131   1.609  11.030  0.0101  1.4998  0.4169
 4643TIP3   OH235343   1.690   1.011   4.285  0.0711 -0.0234  0.5768
 4643TIP3    H135344   1.741   0.964   4.352  1.1520  0.5843  0.2125
 4643TIP3    H235345   1.603   0.971   4.288  0.8213 -1.7386  0.5871
 4644TIP3   OH235346   1.275   4.802  12.748  0.9017  0.2850  0.3948
 4644TIP3    H135347   1.361   4.824  12.785  0.9834 -1.5556  1.4185
 4644TIP3    H235348   1.285   4.712  12.717 -0.6907 -0.0143  0.6731
 4645TIP3   OH235349   0.739   5.884   5.553  0.0946  0.3811  0.7327
 4645TIP3    H135350   0.758   5.822   5.624 -0.8543 -0.0819  0.5950
 4645TIP3    H235351   0.647   5.870   5.533  0.7464 -0.7972 -1.8478
 4646TIP3   OH235352   6.657   0.691  16.293  0.2695 -0.2011 -0.4483
 4646TIP3    H135353   6.697   0.777  16.279  4.4971 -1.6667  1.1003
 4646TIP3    H235354   6.630   0.692  16.385  1.8919 -0.9635  0.0801
 4647TIP3   OH235355   1.862   6.091   2.598 -0.0103  0.4839  0.3263
 4647TIP3    H135356   1.861   6.018   2.660 -0.8648 -0.2883 -0.5766
 4647TIP3    H235357   1.955   6.105   2.580  0.2630  0.7310  1.7532
 4648TIP3   OH235358   1.093   5.440  13.793  0.1244 -0.4917  0.5875
 4648TIP3    H135359   1.118   5.511  13.852 -0.5510  0.0516  0.2448
 4648TIP3    H235360   1.023   5.478  13.740  0.0840 -1.2708  0.0766
 4649TIP3   OH235361   5.153   4.321  14.501  0.6391 -0.3763 -0.2722
 4649TIP3    H135362   5.240   4.285  14.484 -0.0310 -2.6917  0.7299
 4649TIP3    H235363   5.101   4.298  14.424  0.4749 -0.6081 -0.0947
 4650TIP3   OH235364   4.298   0.859  14.551  0.4234 -0.1048 -0.5551
 4650TIP3    H135365   4.273   0.917  14.479 -1.2834 -1.2467 -0.9342
 4650TIP3    H235366   4.394   0.861  14.551  0.4485  0.5676 -2.3068
 4651TIP3   OH235367   3.065   6.259  14.312  0.4450 -0.3288  0.1671
 4651TIP3    H135368   3.126   6.192  14.346  1.2540  0.8798  1.1855
 4651TIP3    H235369   3.114   6.341  14.318 -1.7909  0.9888  2.6501
 4652TIP3   OH235370   3.208   4.929  16.733 -0.3960 -0.1098  0.0469
 4652TIP3    H135371   3.302   4.944  16.746 -0.0902  0.2333 -2.1736
 4652TIP3    H235372   3.202   4.839  16.701 -0.8928 -0.2624  0.5381
 4653TIP3   OH235373   3.056   5.751  16.611  0.2824  0.2943 -0.4586
 4653TIP3    H135374   3.014   5.823  16.657  2.5842  1.2826  0.2223
 4653TIP3    H235375   3.071   5.784  16.523  1.0876  0.5615 -0.2269
 4654TIP3   OH235376   5.134   0.377   5.144  0.6316  0.3675  0.1540
 4654TIP3    H135377   5.116   0.333   5.227  0.8903  0.6287  0.3501
 4654TIP3    H235378   5.142   0.470   5.167  1.0319  0.4007 -0.1099
 4655TIP3   OH235379   4.499   5.442  14.938 -0.8138  0.1383 -0.4079
 4655TIP3    H135380   4.563   5.391  14.988 -1.4702  0.1213  0.4473
 4655TIP3    H235381   4.425   5.382  14.928 -0.9802  0.4028 -0.7460
 4656TIP3   OH235382   3.559   3.852  12.789  0.3175  0.0078  0.5344
 4656TIP3    H135383   3.651   3.827  12.780 -0.0809 -0.9436 -1.3598
 4656TIP3    H235384   3.560   3.947  12.783  1.2521  0.0930  1.5639
 4657TIP3   OH235385   2.618   3.093   3.775  0.7778  0.0353 -0.8237
 4657TIP3    H135386   2.636   2.999   3.778  0.4391 -0.0113  0.1324
 4657TIP3    H235387   2.523   3.099   3.766  0.9593  0.2969 -3.1082
 4658TIP3   OH235388   4.511   1.494  11.882  0.3518  0.1042 -0.1404
 4658TIP3    H135389   4.571   1.542  11.826  0.2054  0.5698  0.0984
 4658TIP3    H235390   4.538   1.402  11.873  0.6553  0.2326 -0.5640
 4659TIP3   OH235391   4.938   4.181  10.755 -0.0050 -0.1181 -0.4285
 4659TIP3    H135392   4.885   4.103  10.741  0.8300 -0.9880  1.0078
 4659TIP3    H235393   4.925   4.233  10.676  0.7930 -2.4897 -2.2581
 4660TIP3   OH235394   2.759   2.786   3.913 -0.1109 -0.0064 -0.3825
 4660TIP3    H135395   2.779   2.700   3.950 -1.2805  0.0675  0.4836
 4660TIP3    H235396   2.674   2.775   3.871 -1.4433  1.2454  1.7675
 4661TIP3   OH235397   6.069   4.308  14.597 -0.3736  0.3281  0.4784
 4661TIP3    H135398   5.983   4.350  14.599 -0.4770  0.0977  1.8518
 4661TIP3    H235399   6.109   4.339  14.515 -1.8019  0.3231 -0.2414
 4662TIP3   OH235400   4.821   3.959  11.608  0.1027  0.0714  0.1637
 4662TIP3    H135401   4.871   4.037  11.631  0.4119  0.1469 -0.7144
 4662TIP3    H235402   4.788   3.925  11.692  0.0189  1.1005  0.5545
 4663TIP3   OH235403   3.531   4.048   4.816  0.5352  0.1892  0.1174
 4663TIP3    H135404   3.553   3.963   4.854  0.1469  0.9159  2.0443
 4663TIP3    H235405   3.439   4.063   4.840  0.6845  1.2944  0.0661
 4664TIP3   OH235406   5.611   6.710   3.595 -0.4946  0.2396  0.0723
 4664TIP3    H135407   5.615   6.678   3.685  0.6389 -0.5402 -0.2411
 4664TIP3    H235408   5.580   6.801   3.604  0.8708  0.6248  1.3677
 4665TIP3   OH235409   4.751   6.775  12.437 -0.5651  0.1172  0.1428
 4665TIP3    H135410   4.668   6.728  12.428  0.7143 -2.0034 -1.4574
 4665TIP3    H235411   4.726   6.868  12.439 -2.8834 -0.3085 -2.7019
 4666TIP3   OH235412   2.501   0.271  15.302 -0.2865 -0.1294 -0.0917
 4666TIP3    H135413   2.433   0.335  15.286 -1.5339 -1.0382  1.2447
 4666TIP3    H235414   2.457   0.186  15.291  0.6833 -0.7317  0.5185
 4667TIP3   OH235415   1.978   1.178  12.772  0.2390  0.3652  0.0239
 4667TIP3    H135416   1.973   1.236  12.696  1.5656  0.6971  0.1568
 4667TIP3    H235417   2.069   1.147  12.772 -0.0771 -0.6093  0.7670
 4668TIP3   OH235418   1.548   4.826   1.860 -0.0625 -0.0992 -0.2942
 4668TIP3    H135419   1.499   4.767   1.803  1.4599 -0.7726 -0.9678
 4668TIP3    H235420   1.485   4.895   1.883 -1.2519 -0.8252 -1.2459
 4669TIP3   OH235421   5.361   0.233   2.985  0.0852  0.1926  0.4203
 4669TIP3    H135422   5.317   0.277   3.058  0.6529 -0.4379  1.1501
 4669TIP3    H235423   5.454   0.247   3.001  0.3184 -1.6138  0.9227
 4670TIP3   OH235424   4.381   3.312  12.110  0.4107 -0.3617 -0.1648
 4670TIP3    H135425   4.418   3.384  12.059  1.4376 -0.8584 -0.1250
 4670TIP3    H235426   4.452   3.282  12.166  0.1968 -1.8471 -0.6438
 4671TIP3   OH235427   4.729   1.509   1.600  0.2419 -0.8554 -0.4305
 4671TIP3    H135428   4.788   1.563   1.654  0.2357  0.0739 -1.3112
 4671TIP3    H235429   4.704   1.436   1.657  1.2364 -0.5837  0.3854
 4672TIP3   OH235430   1.867   3.258   3.139  0.1563 -0.4914  0.0093
 4672TIP3    H135431   1.957   3.251   3.172 -0.7688  0.8951  3.2667
 4672TIP3    H235432   1.857   3.351   3.117 -1.3720  0.2014  3.0761
 4673TIP3   OH235433   1.580   0.206   3.827  0.1047 -0.1486  0.0776
 4673TIP3    H135434   1.601   0.296   3.852  1.1150 -1.2207  3.8713
 4673TIP3    H235435   1.666   0.163   3.818 -0.3613 -0.8917 -0.9575
 4674TIP3   OH235436   1.819   2.420   5.852  0.2948  0.6927 -0.4034
 4674TIP3    H135437   1.898   2.473   5.839  0.3334  0.8942  0.5484
 4674TIP3    H235438   1.751   2.483   5.873  0.1176  0.4407 -0.2193
 4675TIP3   OH235439   3.804   6.429  13.647 -0.2942  0.1411  0.7584
 4675TIP3    H135440   3.886   6.388  13.617 -0.3988 -0.8599  1.7744
 4675TIP3    H235441   3.751   6.356  13.679 -1.7354  0.7306 -0.1618
 4676TIP3   OH235442   3.519   3.129   5.051 -0.0767  0.0263 -0.3578
 4676TIP3    H135443   3.514   3.056   4.989  0.5947  0.2231 -0.6534
 4676TIP3    H235444   3.446   3.114   5.111 -0.6844 -0.2193 -1.1376
 4677TIP3   OH235445   6.755   5.897  12.118  0.4143  0.4047  0.6701
 4677TIP3    H135446   6.844   5.865  12.100 -0.0849 -0.9460  0.4679
 4677TIP3    H235447   6.732   5.950  12.042 -0.3753 -2.4171 -1.2105
 4678TIP3   OH235448   4.180   2.658  15.429  0.2011  0.1152  0.1459
 4678TIP3    H135449   4.185   2.687  15.520  0.4801  0.6319 -0.0284
 4678TIP3    H235450   4.252   2.703  15.385  1.7160 -2.0873  0.1805
 4679TIP3   OH235451   3.797   6.097   2.843  0.1616  0.3563 -0.4348
 4679TIP3    H135452   3.746   6.026   2.881  0.1288  1.0660  0.8854
 4679TIP3    H235453   3.832   6.060   2.762  0.3809 -1.2575  0.3569
 4680TIP3   OH235454   3.385   4.322   1.520 -0.3781 -0.1652 -0.3449
 4680TIP3    H135455   3.334   4.324   1.439 -1.1074  0.5830  0.1239
 4680TIP3    H235456   3.320   4.310   1.589  0.3732 -2.6903  0.0414
 4681TIP3   OH235457   2.152   3.411  11.722 -0.0207  0.0474 -0.0113
 4681TIP3    H135458   2.099   3.334  11.745 -1.7394  0.8456 -1.0556
 4681TIP3    H235459   2.222   3.413  11.788 -0.1633 -2.1505  0.2840
 4682TIP3   OH235460   3.172   1.630   4.721  0.1595 -0.1398 -0.6795
 4682TIP3    H135461   3.130   1.581   4.792 -0.5439 -0.0600 -1.0311
 4682TIP3    H235462   3.265   1.610   4.730 -0.0620 -1.1677 -0.5235
 4683TIP3   OH235463   4.854   1.266  13.486  0.2548  0.0668 -0.0748
 4683TIP3    H135464   4.773   1.317  13.490  1.2621  1.6652  2.6295
 4683TIP3    H235465   4.825   1.175  13.493 -1.3274  0.5748  0.4836
 4684TIP3   OH235466   4.959   5.415  11.924  0.3125 -0.1761 -0.4822
 4684TIP3    H135467   4.993   5.328  11.944 -0.2802 -0.7274 -1.7378
 4684TIP3    H235468   5.012   5.474  11.977 -0.7170 -1.4295  2.0954
 4685TIP3   OH235469   6.129   1.528  13.303 -0.0815 -0.0282  0.0302
 4685TIP3    H135470   6.058   1.484  13.256 -0.2579  0.3435 -0.0518
 4685TIP3    H235471   6.157   1.464  13.369 -0.9015  0.0494  0.4654
 4686TIP3   OH235472   6.521   3.329  15.102 -0.0358  0.0004 -0.3419
 4686TIP3    H135473   6.525   3.420  15.073 -1.7509  1.2324  2.8221
 4686TIP3    H235474   6.604   3.315  15.148 -1.1023  1.2425  2.1587
 4687TIP3   OH235475   5.987   0.195   1.228  0.3160  0.0413 -0.5986
 4687TIP3    H135476   5.907   0.174   1.277  0.4791 -0.6873 -0.6305
 4687TIP3    H235477   6.058   0.157   1.279  0.9970  3.0223  0.8958
 4688TIP3   OH235478   4.914   1.146   0.351 -0.7897  0.1268 -0.1171
 4688TIP3    H135479   4.975   1.105   0.289 -0.7199 -0.0558  0.0721
 4688TIP3    H235480   4.920   1.092   0.430 -0.1004  0.9638  0.4141
 4689TIP3   OH235481   3.957   5.104   4.691 -0.0508 -0.4435 -0.2350
 4689TIP3    H135482   3.988   5.189   4.661 -0.4183 -0.3084 -0.2275
 4689TIP3    H235483   3.949   5.051   4.612 -0.2097 -0.3467 -0.2831
 4690TIP3   OH235484   2.964   2.186  12.051  0.0786 -0.8973 -0.3312
 4690TIP3    H135485   3.039   2.127  12.055 -1.2177 -2.5828  0.3442
 4690TIP3    H235486   2.998   2.271  12.079  2.1355 -1.1378 -1.8845
 4691TIP3   OH235487   3.674   5.416   0.462  0.3132  0.5976 -0.1553
 4691TIP3    H135488   3.668   5.421   0.557  1.3052 -1.6146  0.0828
 4691TIP3    H235489   3.753   5.466   0.440 -0.3890  1.8493  0.0465
 4692TIP3   OH235490   0.449   5.743  11.785  0.8528 -0.0738 -0.7982
 4692TIP3    H135491   0.462   5.679  11.855 -2.3223  0.4271  0.3834
 4692TIP3    H235492   0.475   5.826  11.824 -1.8698  0.3609  0.2496
 4693TIP3   OH235493   3.793   3.214  15.874  0.3318 -0.2234  0.1399
 4693TIP3    H135494   3.756   3.126  15.880  0.1126 -0.0634  1.2471
 4693TIP3    H235495   3.820   3.222  15.782 -0.8175 -0.9625 -0.2866
 4694TIP3   OH235496   3.098   0.242  12.991 -0.0585  0.2336  0.0219
 4694TIP3    H135497   3.050   0.263  13.071 -3.2314 -0.3948 -1.5405
 4694TIP3    H235498   3.100   0.324  12.942 -2.1809 -0.3152 -1.1078
 4695TIP3   OH235499   6.718   1.215   5.225 -0.3192 -0.1700  0.2187
 4695TIP3    H135500   6.790   1.163   5.189 -0.8931 -1.9082  1.4571
 4695TIP3    H235501   6.760   1.269   5.292  0.0069 -0.3486  0.1639
 4696TIP3   OH235502   2.329   2.805  15.709 -0.1450 -0.7221  0.3334
 4696TIP3    H135503   2.372   2.863  15.772 -2.6509  1.4622  0.1913
 4696TIP3    H235504   2.294   2.733  15.763 -0.4537  0.0200  1.1478
 4697TIP3   OH235505   2.387   6.707   4.048 -0.3145 -0.0114  0.0945
 4697TIP3    H135506   2.339   6.625   4.059  0.8537 -0.6979  0.2049
 4697TIP3    H235507   2.402   6.738   4.137  2.0874 -1.3991  0.2495
 4698TIP3   OH235508   4.777   4.877   1.231 -0.1853  0.1726  0.0811
 4698TIP3    H135509   4.683   4.892   1.230 -0.1189  0.5855 -0.0054
 4698TIP3    H235510   4.813   4.951   1.280  0.4035  1.7336 -2.5433
 4699TIP3   OH235511   6.152   5.820  11.829  0.1781 -0.0602 -1.0184
 4699TIP3    H135512   6.176   5.904  11.867 -1.8778 -0.2909  0.9925
 4699TIP3    H235513   6.211   5.757  11.871 -0.5985 -0.0308  0.1412
 4700TIP3   OH235514   6.385   4.754   3.362 -0.0989 -0.2359  0.3352
 4700TIP3    H135515   6.359   4.822   3.300  0.3378  0.1175  0.5335
 4700TIP3    H235516   6.320   4.684   3.350  0.0424 -0.2213 -0.5931
 4701TIP3   OH235517   2.007   5.942  13.273 -0.0189  0.4048 -0.2726
 4701TIP3    H135518   1.923   5.978  13.243 -0.2199  1.8125  1.7806
 4701TIP3    H235519   1.988   5.908  13.360  0.6247 -3.1350 -1.3627
 4702TIP3   OH235520   1.840   2.949   5.621 -0.3669 -0.2348  0.4730
 4702TIP3    H135521   1.862   2.973   5.711  0.8610 -1.3345  0.4918
 4702TIP3    H235522   1.917   2.902   5.588 -0.8849 -0.0786 -1.0744
 4703TIP3   OH235523   3.401   4.625  14.092 -0.0191  0.0854 -0.2095
 4703TIP3    H135524   3.341   4.673  14.035 -0.9553 -0.4319  0.3149
 4703TIP3    H235525   3.480   4.612  14.039 -1.4582 -1.8824 -2.0712
 4704TIP3   OH235526   4.940   5.811  12.017 -0.0861 -0.1242 -0.2307
 4704TIP3    H135527   5.022   5.788  11.972 -1.0852  0.9285 -2.7393
 4704TIP3    H235528   4.961   5.892  12.065  0.7873 -0.8527  0.6792
 4705TIP3   OH235529   0.167   2.886   2.713 -0.4098  0.4222 -0.2800
 4705TIP3    H135530   0.209   2.957   2.762 -0.1330 -0.4212  0.7516
 4705TIP3    H235531   0.219   2.809   2.733 -2.3871 -0.6692  1.0687
 4706TIP3   OH235532   5.174   6.782   1.734  0.4762 -0.4228 -0.5442
 4706TIP3    H135533   5.137   6.858   1.779 -1.5983 -2.3104  1.1341
 4706TIP3    H235534   5.099   6.740   1.691  1.4893 -1.7597 -1.0863
 4707TIP3   OH235535   6.146   4.826  15.033  0.5667  0.0089  0.0131
 4707TIP3    H135536   6.148   4.732  15.052  0.7480  0.1373  0.6497
 4707TIP3    H235537   6.130   4.867  15.118 -0.3866  0.5121 -0.3896
 4708TIP3   OH235538   2.025   3.315  15.190  0.2075 -0.1626 -0.1782
 4708TIP3    H135539   2.048   3.334  15.281 -0.9458 -0.3491  0.1762
 4708TIP3    H235540   1.979   3.394  15.160 -1.0469 -0.7907  0.0131
 4709TIP3   OH235541   2.174   0.546  11.346 -0.4351 -0.1931 -0.0720
 4709TIP3    H135542   2.085   0.573  11.370  0.7157  3.7508  0.4126
 4709TIP3    H235543   2.221   0.545  11.429  0.6051  0.7257 -0.6297
 4710TIP3   OH235544   2.979   5.010   5.398 -0.0198  0.1742  0.0492
 4710TIP3    H135545   2.968   5.049   5.311 -1.3165 -1.1059 -0.4005
 4710TIP3    H235546   3.074   5.013   5.413 -0.0184  3.6568  0.1823
 4711TIP3   OH235547   4.708   0.578  15.866  0.1965  0.4429 -0.2835
 4711TIP3    H135548   4.621   0.538  15.860 -0.7210  2.4081 -0.7044
 4711TIP3    H235549   4.764   0.508  15.901 -1.1594 -1.4118 -1.6426
 4712TIP3   OH235550   2.748   5.695  14.805  0.2658 -0.1541 -0.3644
 4712TIP3    H135551   2.675   5.673  14.747  2.0347 -0.5939 -2.5351
 4712TIP3    H235552   2.749   5.790  14.806 -0.5262 -0.1352 -0.0149
 4713TIP3   OH235553   6.312   1.703  10.310  0.2606  0.4884 -0.0994
 4713TIP3    H135554   6.251   1.734  10.377  1.3336 -0.7899  1.5417
 4713TIP3    H235555   6.310   1.608  10.317  1.0981  0.3576 -1.2594
 4714TIP3   OH235556   0.503   1.471  13.705 -0.1870 -0.1766 -0.5010
 4714TIP3    H135557   0.470   1.384  13.729  2.0102 -1.1600 -0.7692
 4714TIP3    H235558   0.445   1.500  13.635  0.1271 -2.3262 -1.7471
 4715TIP3   OH235559   6.548   2.880  16.211 -0.2027  0.1926 -0.1067
 4715TIP3    H135560   6.590   2.831  16.141 -1.4697 -0.4108 -0.4806
 4715TIP3    H235561   6.540   2.969  16.177  0.3555  0.2126 -0.1981
 4716TIP3   OH235562   4.456   6.699  16.167  0.2832 -0.5062  0.1664
 4716TIP3    H135563   4.433   6.607  16.184 -0.7914 -0.3962 -0.5845
 4716TIP3    H235564   4.545   6.708  16.201  0.5516 -1.9309 -0.0748
 4717TIP3   OH235565   0.792   4.620  11.635 -0.0574  0.4459 -0.2532
 4717TIP3    H135566   0.810   4.651  11.724  1.4290  0.1001 -0.4067
 4717TIP3    H235567   0.829   4.532  11.632  0.5998  0.7389 -1.4224
 4718TIP3   OH235568   6.644   2.065  12.710 -0.3195  0.2190 -0.2353
 4718TIP3    H135569   6.569   2.029  12.758 -0.0602  1.0970  0.8647
 4718TIP3    H235570   6.611   2.145  12.669  0.0980  0.8438  0.6077
 4719TIP3   OH235571   3.248   5.008  12.002  0.2372 -0.1107  0.1144
 4719TIP3    H135572   3.185   5.066  11.961 -1.5397 -1.3224  0.9687
 4719TIP3    H235573   3.238   4.924  11.957  0.7228 -0.5186  0.7287
 4720TIP3   OH235574   2.913   0.803  12.191 -0.1273  0.1578  0.2142
 4720TIP3    H135575   2.909   0.863  12.117  1.1068  0.5631  0.4683
 4720TIP3    H235576   2.835   0.748  12.181 -1.2219  1.6922 -0.0965
 4721TIP3   OH235577   4.006   2.498  16.141 -0.2207 -0.0567 -0.1095
 4721TIP3    H135578   4.004   2.592  16.160 -3.2855  0.5225 -2.4999
 4721TIP3    H235579   4.023   2.493  16.047 -0.8888 -1.8345 -0.1761
 4722TIP3   OH235580   3.287   2.559  17.014 -0.4468 -0.4891 -0.8574
 4722TIP3    H135581   3.331   2.516  16.941  0.2646 -1.4731  0.1100
 4722TIP3    H235582   3.261   2.645  16.980 -0.3703 -1.0277 -2.3221
 4723TIP3   OH235583   3.172   3.206   1.703 -0.0403  0.4342  0.0382
 4723TIP3    H135584   3.105   3.143   1.675  1.8482 -1.3468 -0.7791
 4723TIP3    H235585   3.181   3.192   1.797 -0.0177 -0.1559 -0.0493
 4724TIP3   OH235586   5.203   0.616   3.644 -0.3636  0.0368  0.0773
 4724TIP3    H135587   5.219   0.607   3.550  0.3637 -1.5786  0.3102
 4724TIP3    H235588   5.109   0.628   3.651 -0.6263 -1.2107 -0.8218
 4725TIP3   OH235589   6.751   6.696   1.821  0.4550 -0.2406  0.2651
 4725TIP3    H135590   6.824   6.657   1.869  0.4627 -0.8325 -0.2100
 4725TIP3    H235591   6.791   6.737   1.744  0.3830  0.2089  0.4676
 4726TIP3   OH235592   4.247   6.268  12.567 -0.6042  0.2932 -0.2362
 4726TIP3    H135593   4.309   6.310  12.626  0.4130 -0.2322 -0.9055
 4726TIP3    H235594   4.180   6.231  12.625  1.3087 -1.8099  0.7964
 4727TIP3   OH235595   1.207   3.629   1.941  0.1532 -0.6185  0.5456
 4727TIP3    H135596   1.221   3.701   2.003  0.0670  0.6586 -0.8362
 4727TIP3    H235597   1.291   3.582   1.940  0.6002  0.1515  0.6490
 4728TIP3   OH235598   4.526   2.189  14.250 -0.4058  0.3625  0.4940
 4728TIP3    H135599   4.576   2.116  14.286 -1.8659 -1.2415 -0.5548
 4728TIP3    H235600   4.591   2.243  14.205  0.5465 -1.0867  0.0568
 4729TIP3   OH235601   4.328   4.449   5.768 -0.1961 -0.4061 -0.0582
 4729TIP3    H135602   4.361   4.522   5.716 -2.5304  0.3969 -0.5425
 4729TIP3    H235603   4.265   4.406   5.710 -1.8545 -0.3320  1.6103
 4730TIP3   OH235604   5.587   2.821  16.470  0.3150  0.2758 -0.4429
 4730TIP3    H135605   5.532   2.747  16.448 -1.5739  1.4949 -0.0122
 4730TIP3    H235606   5.619   2.853  16.385 -1.1674  0.6710 -0.8731
 4731TIP3   OH235607   5.978   6.209  12.702 -0.4523  0.4355  0.0555
 4731TIP3    H135608   6.032   6.133  12.722  1.2907  1.7819  0.6612
 4731TIP3    H235609   6.038   6.283  12.703 -1.9122  1.7417 -1.4709
 4732TIP3   OH235610   6.060   5.025   4.434  0.4591  0.1753  0.1003
 4732TIP3    H135611   6.063   5.068   4.349 -0.2315  1.5036  0.7173
 4732TIP3    H235612   6.034   5.094   4.495 -0.9881 -1.1770  1.0903
 4733TIP3   OH235613   6.551   3.131   1.425  0.3938  0.3743 -0.6517
 4733TIP3    H135614   6.531   3.125   1.519 -1.1526  1.1685 -0.8965
 4733TIP3    H235615   6.597   3.214   1.416  0.7238  0.2006 -0.5676
 4734TIP3   OH235616   3.366   3.726   4.360 -0.2999 -0.0909 -0.2534
 4734TIP3    H135617   3.439   3.701   4.303 -2.2006 -1.0869 -2.3915
 4734TIP3    H235618   3.408   3.756   4.440  2.4339 -1.2724 -1.1226
 4735TIP3   OH235619   2.796   2.925   2.048 -0.1856  0.1868  0.5020
 4735TIP3    H135620   2.753   2.851   2.004  0.1121  0.8897 -1.0340
 4735TIP3    H235621   2.858   2.958   1.983 -1.0302  2.4357  0.7600
 4736TIP3   OH235622   2.023   6.234  10.486 -0.2311  0.1956  0.3535
 4736TIP3    H135623   1.965   6.217  10.560  1.1426 -1.6066  1.1171
 4736TIP3    H235624   2.111   6.225  10.523  0.5003 -1.1606 -1.5632
 4737TIP3   OH235625   0.538   1.232   4.872 -0.4068 -0.4622 -0.3416
 4737TIP3    H135626   0.554   1.230   4.966 -0.3087  1.0244 -0.2958
 4737TIP3    H235627   0.587   1.158   4.837 -0.7558 -1.2535  0.8128
 4738TIP3   OH235628   3.400   1.842  10.867 -0.0964  1.0708 -0.2810
 4738TIP3    H135629   3.365   1.925  10.900 -0.9562  1.3750 -1.8300
 4738TIP3    H235630   3.391   1.850  10.772 -0.2927 -0.8426 -0.4492
 4739TIP3   OH235631   1.112   2.972   5.362  0.0187  0.8965  0.3868
 4739TIP3    H135632   1.126   2.896   5.305 -1.0112 -0.0763  1.3787
 4739TIP3    H235633   1.200   2.993   5.395  0.3990  0.5162 -0.3687
 4740TIP3   OH235634   5.951   1.077   1.790  0.1241 -0.0821  0.3585
 4740TIP3    H135635   5.977   1.013   1.723 -1.1659 -0.1004 -0.1541
 4740TIP3    H235636   5.943   1.160   1.743 -2.8388 -0.4861 -0.0284
 4741TIP3   OH235637   5.673   0.246   4.951 -0.2367  0.0518 -0.9709
 4741TIP3    H135638   5.711   0.177   4.896  2.3122  1.3615 -0.9936
 4741TIP3    H235639   5.688   0.216   5.041 -1.9170 -0.7939 -0.9308
 4742TIP3   OH235640   2.745   5.205   1.703  0.2070  0.5361  0.5383
 4742TIP3    H135641   2.810   5.254   1.754 -0.3361  0.6451  1.1352
 4742TIP3    H235642   2.667   5.259   1.706  0.0586  0.3535 -0.0945
 4743TIP3   OH235643   1.799   6.170   3.258  0.2869  0.3428  0.1890
 4743TIP3    H135644   1.797   6.150   3.165 -0.4262  0.6061  0.1419
 4743TIP3    H235645   1.734   6.240   3.269  2.4387  2.4525  0.3971
 4744TIP3   OH235646   6.213   2.590   0.051  0.3010  0.0263  0.2644
 4744TIP3    H135647   6.218   2.497   0.031 -0.1408  0.2192 -0.8256
 4744TIP3    H235648   6.132   2.601   0.099  0.5407 -0.2036  0.7243
 4745TIP3   OH235649   2.962   2.543  14.654  0.0305 -0.3545 -0.1024
 4745TIP3    H135650   3.023   2.534  14.581  1.2187 -0.9418  0.9048
 4745TIP3    H235651   3.007   2.500  14.727 -1.1798  0.0796  0.9329
 4746TIP3   OH235652   6.448   6.190  14.473 -0.1090  0.0418 -0.0262
 4746TIP3    H135653   6.397   6.125  14.521 -0.4003 -0.7301 -1.3398
 4746TIP3    H235654   6.419   6.274  14.509 -0.9687 -0.4650  0.5164
 4747TIP3   OH235655   4.484   3.477  15.291 -0.0891  0.1688  0.0965
 4747TIP3    H135656   4.523   3.496  15.377 -2.6362  0.4382  1.3058
 4747TIP3    H235657   4.548   3.421  15.248  0.4841 -1.6431  2.9881
 4748TIP3   OH235658   6.128   1.614  11.729 -0.6314  0.4581 -0.2436
 4748TIP3    H135659   6.157   1.705  11.720 -0.7783  0.4293 -1.0768
 4748TIP3    H235660   6.063   1.602  11.660 -0.7059 -0.2484 -0.0637
 4749TIP3   OH235661   2.447   3.734  10.536 -0.0756  0.5731 -0.5149
 4749TIP3    H135662   2.356   3.725  10.507 -0.6002  1.2771  0.7924
 4749TIP3    H235663   2.476   3.645  10.553 -1.5391  0.4622  1.8482
 4750TIP3   OH235664   0.984   0.292  12.046 -0.2733 -0.0457  0.3421
 4750TIP3    H135665   0.908   0.247  12.009  0.0794  0.2252 -0.7388
 4750TIP3    H235666   1.046   0.222  12.066  0.6242 -0.0731 -2.1330
 4751TIP3   OH235667   2.425   3.971   5.769 -0.4936  0.1371  0.7991
 4751TIP3    H135668   2.362   3.903   5.744 -1.9848  1.1861  1.5865
 4751TIP3    H235669   2.460   4.003   5.685  0.5418 -1.8301  0.4262
 4752TIP3   OH235670   4.218   3.019   4.101  0.0918  0.4441 -0.1771
 4752TIP3    H135671   4.223   2.971   4.018  0.0549 -0.0746  0.1148
 4752TIP3    H235672   4.180   2.956   4.162  0.8576  0.5633  0.4267
 4753TIP3   OH235673   4.106   0.967   5.923  0.4931  0.1072  0.1201
 4753TIP3    H135674   4.146   1.040   5.877  1.4851 -0.7396 -0.3938
 4753TIP3    H235675   4.073   0.910   5.854  0.2567 -0.2332  0.5072
 4754TIP3   OH235676   0.842   2.992   0.145 -0.3107  0.0252  0.0382
 4754TIP3    H135677   0.898   2.936   0.199  0.2267  0.1019 -0.4318
 4754TIP3    H235678   0.810   2.935   0.075 -1.1536 -0.1188  0.5273
 4755TIP3   OH235679   6.370   5.603  14.413  0.1884  0.4223  0.1058
 4755TIP3    H135680   6.366   5.508  14.422 -1.0210  0.4701  0.2657
 4755TIP3    H235681   6.434   5.631  14.478 -0.3897 -0.1850  0.9513
 4756TIP3   OH235682   3.662   1.403  12.081 -0.1558 -0.1375 -0.0184
 4756TIP3    H135683   3.624   1.316  12.098  1.6916 -0.8091  0.9279
 4756TIP3    H235684   3.672   1.442  12.167  0.6647  0.2966 -0.3035
 4757TIP3   OH235685   0.286   3.870   1.663 -0.5316 -0.1956 -0.6768
 4757TIP3    H135686   0.211   3.824   1.703 -0.5527  0.0164 -0.4708
 4757TIP3    H235687   0.295   3.949   1.715 -1.2374  0.6188 -1.7610
 4758TIP3   OH235688   1.634   5.270   4.692 -0.0241 -0.0540  0.3270
 4758TIP3    H135689   1.583   5.281   4.611  0.3852  0.0935  0.0897
 4758TIP3    H235690   1.710   5.326   4.680 -0.0150  0.0482  0.8626
 4759TIP3   OH235691   1.852   1.592  16.620  0.4989  0.5528 -0.1749
 4759TIP3    H135692   1.860   1.512  16.672  1.0311  0.4383 -0.4272
 4759TIP3    H235693   1.887   1.569  16.534  0.2475  0.9323 -0.3825
 4760TIP3   OH235694   2.670   5.070  14.275 -0.2423 -0.3138  0.1115
 4760TIP3    H135695   2.616   4.991  14.268 -1.2102  0.2116  1.2572
 4760TIP3    H235696   2.749   5.042  14.320 -0.6617 -0.5959  0.6721
 4761TIP3   OH235697   3.134   0.550   2.745  0.8196 -0.1129  0.5145
 4761TIP3    H135698   3.062   0.524   2.803  0.6329 -0.2263  0.2342
 4761TIP3    H235699   3.144   0.477   2.685  0.9551  0.0432  0.3448
 4762TIP3   OH235700   3.107   3.146   0.514 -0.3515  0.2807  0.6987
 4762TIP3    H135701   3.050   3.174   0.442 -0.4018 -1.4755  0.0072
 4762TIP3    H235702   3.183   3.108   0.470 -0.3979 -0.8519  1.5614
 4763TIP3   OH235703   1.137   3.718   4.862  0.8449 -0.0353  0.6266
 4763TIP3    H135704   1.142   3.698   4.956 -1.1409 -0.1404  0.7644
 4763TIP3    H235705   1.105   3.638   4.822  1.2153  0.1622 -0.0698
 4764TIP3   OH235706   0.259   4.067   4.320  0.3287 -0.3891 -0.2208
 4764TIP3    H135707   0.223   4.155   4.316 -0.1762 -0.2713  3.5213
 4764TIP3    H235708   0.346   4.074   4.282 -0.6620  1.0557 -2.4172
 4765TIP3   OH235709   3.565   6.738   5.930 -0.5249 -0.3754 -0.2913
 4765TIP3    H135710   3.650   6.698   5.916 -0.5649 -0.7327  0.4369
 4765TIP3    H235711   3.510   6.668   5.964 -1.0477 -0.0882 -0.5174
 4766TIP3   OH235712   3.168   0.040  16.961 -0.0955 -0.2265  0.4334
 4766TIP3    H135713   3.249   0.007  16.923 -0.2804 -0.7320  0.4796
 4766TIP3    H235714   3.157   0.126  16.921  0.7092  0.0546  0.7766
 4767TIP3   OH235715   2.626   6.615  12.618  0.0193 -0.6258  0.4399
 4767TIP3    H135716   2.531   6.614  12.612  0.0036  1.3795 -0.5168
 4767TIP3    H235717   2.648   6.703  12.648  1.6192 -0.4912 -0.9406
 4768TIP3   OH235718   1.313   1.300  16.987  0.1118 -0.5694 -0.8299
 4768TIP3    H135719   1.370   1.365  16.944 -0.8068  1.4434  0.8006
 4768TIP3    H235720   1.374   1.234  17.020  1.4350  0.9395 -0.1016
 4769TIP3   OH235721   3.681   1.992   2.645  0.0148  0.3812  0.2791
 4769TIP3    H135722   3.741   1.950   2.706 -0.7398 -1.6199 -0.2884
 4769TIP3    H235723   3.633   2.055   2.698  1.1435  0.5203  1.1804
 4770TIP3   OH235724   5.302   6.253   4.454  0.2695 -0.3941  0.6170
 4770TIP3    H135725   5.220   6.217   4.421  0.3320 -0.7726  0.8690
 4770TIP3    H235726   5.300   6.346   4.428 -0.6420 -0.1878  1.3796
 4771TIP3   OH235727   0.042   2.351  11.348 -0.3462 -0.3097  0.4580
 4771TIP3    H135728  -0.046   2.380  11.326 -0.6758 -2.4221 -1.4940
 4771TIP3    H235729   0.100   2.413  11.303 -0.8207  0.6674  1.1636
 4772TIP3   OH235730   6.645   0.025  12.674 -0.0660 -0.0804  0.5083
 4772TIP3    H135731   6.713   0.036  12.608 -0.5045  2.4953  0.3652
 4772TIP3    H235732   6.640  -0.069  12.689  3.4211 -0.3877  0.4814
 4773TIP3   OH235733   2.420   6.361   4.290  0.1662  0.2928 -0.1279
 4773TIP3    H135734   2.510   6.391   4.280  0.2719  0.8529  2.0161
 4773TIP3    H235735   2.424   6.267   4.275  1.6570 -0.1532  2.4527
 4774TIP3   OH235736   3.400   2.774  15.121  0.8589  0.5112  0.1288
 4774TIP3    H135737   3.436   2.856  15.156  0.4844  0.9451 -0.4972
 4774TIP3    H235738   3.310   2.772  15.152  1.5259 -0.8692  2.2040
 4775TIP3   OH235739   5.057   5.520   3.473  0.0851 -0.5168 -0.2369
 4775TIP3    H135740   4.967   5.491   3.459 -0.7618  1.6874  0.1453
 4775TIP3    H235741   5.082   5.560   3.390 -0.6218  1.9457  0.6315
 4776TIP3   OH235742   6.470   6.740  15.666 -0.3439 -0.4798 -0.0653
 4776TIP3    H135743   6.509   6.823  15.637 -0.6278  0.0942  1.1103
 4776TIP3    H235744   6.474   6.744  15.762 -0.2873 -1.8774  0.0144
 4777TIP3   OH235745   6.308   1.895   3.258  0.0395  0.0251  0.2087
 4777TIP3    H135746   6.350   1.952   3.194 -0.5782  0.8792  0.5461
 4777TIP3    H235747   6.218   1.928   3.264 -0.3128 -0.9437  0.4628
 4778TIP3   OH235748   6.034   1.174  16.387  0.1265 -0.1800  1.0630
 4778TIP3    H135749   6.099   1.236  16.420  0.1043 -0.9484  2.6948
 4778TIP3    H235750   5.980   1.153  16.464 -1.4159 -0.3479 -0.0054
 4779TIP3   OH235751   6.412   0.695  12.863 -0.1582  0.0556 -0.6434
 4779TIP3    H135752   6.459   0.777  12.879 -0.5688  0.3137 -0.7406
 4779TIP3    H235753   6.468   0.628  12.901  0.7539  0.2564 -1.5875
 4780TIP3   OH235754   3.089   0.504   4.786  0.0164  0.2927 -0.0289
 4780TIP3    H135755   3.177   0.468   4.798 -1.1128 -2.2632  1.3588
 4780TIP3    H235756   3.085   0.527   4.693  0.8485 -3.5819 -1.2045
 4781TIP3   OH235757   0.464   4.367  15.456 -0.6905 -0.0825  0.3238
 4781TIP3    H135758   0.412   4.307  15.403  0.5220 -0.7423 -0.1519
 4781TIP3    H235759   0.427   4.454  15.436  0.7636 -0.0839 -2.9850
 4782TIP3   OH235760   6.058   0.935  12.208  0.7333  0.7108  0.1707
 4782TIP3    H135761   6.094   0.997  12.144 -1.6100  1.4963 -0.4720
 4782TIP3    H235762   6.098   0.851  12.185  0.4512  1.0881 -1.9614
 4783TIP3   OH235763   0.808   1.892   3.136 -0.5003  0.4584  0.2174
 4783TIP3    H135764   0.827   1.799   3.151  0.4802  0.9185  2.1884
 4783TIP3    H235765   0.801   1.930   3.224  0.0500  2.4182 -0.5208
 4784TIP3   OH235766   3.746   5.984   1.773  0.6956 -0.9990  0.6403
 4784TIP3    H135767   3.719   5.902   1.815 -1.2185 -1.6694 -1.6831
 4784TIP3    H235768   3.804   5.956   1.702 -1.9169 -0.7040 -1.7530
 4785TIP3   OH235769   3.022   2.989  13.377  0.1380 -0.6675 -0.4213
 4785TIP3    H135770   3.001   3.000  13.285 -0.1098 -2.3655 -0.5892
 4785TIP3    H235771   3.110   3.025  13.386 -1.2634  3.3274 -0.4207
 4786TIP3   OH235772   5.835   5.229   3.102 -0.3322 -0.4125  0.1048
 4786TIP3    H135773   5.780   5.167   3.149  0.4562 -1.1472  0.0862
 4786TIP3    H235774   5.791   5.242   3.018 -1.2001  0.1070  0.6235
 4787TIP3   OH235775   5.542   0.113   1.951  0.2421  0.5944 -0.4140
 4787TIP3    H135776   5.568   0.087   2.040  0.9816 -2.2924 -1.3803
 4787TIP3    H235777   5.487   0.042   1.920  2.4964 -0.0713 -3.3267
 4788TIP3   OH235778   0.778   3.266   3.078  0.4834 -0.2601  0.1777
 4788TIP3    H135779   0.761   3.175   3.105  1.6245 -0.2909  0.8187
 4788TIP3    H235780   0.706   3.315   3.117  0.5381 -0.7189  0.8946
 4789TIP3   OH235781   1.658   3.288   2.054  0.3687 -0.2005  0.4150
 4789TIP3    H135782   1.668   3.203   2.010 -1.1955 -0.6014  0.7903
 4789TIP3    H235783   1.745   3.306   2.090  0.9287 -1.2627 -0.3484
 4790TIP3   OH235784   0.100   4.657  14.905  0.0169 -0.3189  0.3771
 4790TIP3    H135785   0.182   4.697  14.876  0.7804 -1.2040  1.2065
 4790TIP3    H235786   0.077   4.704  14.984  1.8713 -2.5012  2.3799
 4791TIP3   OH235787   2.758   4.963   1.544 -0.0054 -0.4045  0.1812
 4791TIP3    H135788   2.672   4.975   1.503  0.1050  2.3489  0.5629
 4791TIP3    H235789   2.773   5.044   1.593  3.0841 -0.5138 -0.3749
 4792TIP3   OH235790   4.059   0.131  17.139  0.2865  0.3345  0.3210
 4792TIP3    H135791   4.076   0.222  17.116 -0.4410  0.2850 -0.4567
 4792TIP3    H235792   3.964   0.128  17.153  0.4780 -0.0129  1.6704
 4793TIP3   OH235793   0.885   5.005  14.928  0.7497 -0.1293  0.0157
 4793TIP3    H135794   0.872   5.050  15.012 -0.4313 -0.4075  0.0025
 4793TIP3    H235795   0.831   4.927  14.934  1.2225 -0.5320 -0.7396
 4794TIP3   OH235796   2.886   0.649   1.810 -0.4783 -0.4838  0.2564
 4794TIP3    H135797   2.851   0.683   1.892  0.4750 -0.1791  0.5606
 4794TIP3    H235798   2.873   0.719   1.747 -1.9838 -1.0410 -0.0801
 4795TIP3   OH235799   1.350   0.150  12.993  0.1126  0.3182  0.2414
 4795TIP3    H135800   1.347   0.056  13.012  1.6956  0.1314 -0.3329
 4795TIP3    H235801   1.314   0.191  13.072 -3.0557 -0.8230 -0.4452
 4796TIP3   OH235802   4.174   1.151   0.508 -0.6906  0.0039  0.2985
 4796TIP3    H135803   4.151   1.125   0.418 -2.1544  0.0383  0.6409
 4796TIP3    H235804   4.246   1.213   0.497 -0.6651 -0.2019 -0.8423
 4797TIP3   OH235805   1.170   5.325  14.322  0.1077 -0.5268  0.1271
 4797TIP3    H135806   1.164   5.414  14.286 -2.7416 -0.8368 -0.3135
 4797TIP3    H235807   1.149   5.336  14.415  1.0302 -0.6106  0.3595
 4798TIP3   OH235808   0.544   5.816  13.482 -0.1132  0.0749  0.7351
 4798TIP3    H135809   0.492   5.750  13.528 -1.6345 -0.8674 -2.0904
 4798TIP3    H235810   0.526   5.800  13.390  3.1944  1.4897 -0.2812
 4799TIP3   OH235811   1.705   3.272  13.055  0.1063  0.6427 -0.4493
 4799TIP3    H135812   1.753   3.331  12.997  0.4572  0.6568 -0.1443
 4799TIP3    H235813   1.728   3.184  13.026  0.7542  0.6421  0.0469
 4800TIP3   OH235814   4.920   3.755  14.362  0.2767  0.2441  0.3192
 4800TIP3    H135815   4.950   3.774  14.450 -1.2523  2.1426  0.5070
 4800TIP3    H235816   4.985   3.796  14.305 -1.2539  3.5174  0.7036
 4801TIP3   OH235817   6.561   0.881  15.753  0.1261  0.6577  0.4291
 4801TIP3    H135818   6.581   0.820  15.824  1.2020  0.6024  0.0985
 4801TIP3    H235819   6.592   0.837  15.674  1.8998  2.0223  0.2960
 4802TIP3   OH235820   3.567   0.351  16.871 -0.2635 -0.0066  0.0226
 4802TIP3    H135821   3.655   0.320  16.891  0.0752  0.0516 -1.2798
 4802TIP3    H235822   3.549   0.317  16.783 -1.5651 -0.0595  0.2876
 4803TIP3   OH235823   6.206   6.069   4.084  0.2638  0.2417 -0.2682
 4803TIP3    H135824   6.267   5.996   4.093  1.1399  1.0716  1.0619
 4803TIP3    H235825   6.262   6.147   4.094 -0.9588  1.0344  0.6350
 4804TIP3   OH235826   6.455   2.274  11.452 -0.3582  0.1629  0.0736
 4804TIP3    H135827   6.459   2.222  11.533 -0.2410  1.2991  0.8191
 4804TIP3    H235828   6.376   2.328  11.462 -1.1866 -0.7178 -1.2488
 4805TIP3   OH235829   5.197   3.545   3.641 -0.2211  0.0937 -0.5221
 4805TIP3    H135830   5.266   3.549   3.575 -0.2818 -0.6290 -0.6398
 4805TIP3    H235831   5.239   3.573   3.722  0.3806 -0.9196 -0.4664
 4806TIP3   OH235832   3.061   4.281  13.429  0.4765 -0.8084 -0.6736
 4806TIP3    H135833   2.972   4.301  13.459  0.6435 -1.0358  0.0042
 4806TIP3    H235834   3.087   4.205  13.482  0.7212 -1.3457 -1.5507
 4807TIP3   OH235835   1.440   1.626   5.878  0.5630  0.2392  0.0809
 4807TIP3    H135836   1.480   1.581   5.952  0.3691  0.6509  0.4381
 4807TIP3    H235837   1.489   1.708   5.869  0.4295  0.3022 -0.0881
 4808TIP3   OH235838   5.147   2.669  12.474  0.0070 -0.2050 -0.0651
 4808TIP3    H135839   5.160   2.752  12.429  0.0997  0.7071  1.5957
 4808TIP3    H235840   5.201   2.675  12.553 -2.7780 -0.2978  1.9866
 4809TIP3   OH235841   3.239   1.604   3.661  0.2739 -0.3610  0.1627
 4809TIP3    H135842   3.216   1.606   3.754 -0.2251  0.3246  0.0283
 4809TIP3    H235843   3.335   1.612   3.660  0.1262  2.3369  0.5554
 4810TIP3   OH235844   1.181   3.577   5.924 -0.5469  0.7574  0.3092
 4810TIP3    H135845   1.145   3.510   5.865 -1.4117  0.7487  0.8300
 4810TIP3    H235846   1.254   3.615   5.875 -0.0682 -0.5312 -0.0088
 4811TIP3   OH235847   6.523   4.689  14.883  0.5208 -0.2948  0.1377
 4811TIP3    H135848   6.574   4.643  14.951 -0.5155  0.2562  1.3311
 4811TIP3    H235849   6.583   4.696  14.809  1.5886 -1.2119  0.8765
 4812TIP3   OH235850   5.659   5.547  15.383  0.3105 -0.8182 -0.2150
 4812TIP3    H135851   5.634   5.552  15.290  1.7925 -0.9772 -0.6560
 4812TIP3    H235852   5.588   5.498  15.424  1.5723 -4.7329 -2.1460
 4813TIP3   OH235853   1.535   3.646  15.227 -0.1133 -0.0261  0.0796
 4813TIP3    H135854   1.549   3.555  15.253  0.4955  0.1279  0.2981
 4813TIP3    H235855   1.607   3.665  15.167 -0.5311  0.1562 -0.3720
 4814TIP3   OH235856   1.488   0.222  11.149 -0.2755  0.5247 -0.1909
 4814TIP3    H135857   1.543   0.167  11.093  0.9395  2.0203 -0.5197
 4814TIP3    H235858   1.401   0.216  11.110 -0.1652 -1.0703 -0.2641
 4815TIP3   OH235859   5.441   1.642   3.907 -0.0553 -0.3802 -0.3642
 4815TIP3    H135860   5.446   1.580   3.980  2.6799 -0.2968 -0.3739
 4815TIP3    H235861   5.485   1.597   3.835 -1.3363  0.1606 -1.5216
 4816TIP3   OH235862   4.939   0.378  13.132 -0.6901 -0.5299  0.3587
 4816TIP3    H135863   4.854   0.376  13.087 -0.0864 -2.9686 -0.8382
 4816TIP3    H235864   4.992   0.438  13.081 -0.3096 -2.5486 -1.8056
 4817TIP3   OH235865   4.920   2.949   4.999  0.2838  0.0705 -0.2908
 4817TIP3    H135866   4.962   2.863   4.999 -0.3964 -0.2999  0.9973
 4817TIP3    H235867   4.833   2.932   5.036  0.4474  1.4451  0.7771
 4818TIP3   OH235868   3.531   4.221   0.315  0.7565  0.0462 -0.3821
 4818TIP3    H135869   3.474   4.275   0.261 -0.4953 -0.7729  0.0718
 4818TIP3    H235870   3.557   4.278   0.387  0.3652  0.3777 -0.5033
 4819TIP3   OH235871   1.523   6.498  14.399  0.1897 -1.1387  0.3324
 4819TIP3    H135872   1.514   6.577  14.346  0.9229 -1.7988 -0.8229
 4819TIP3    H235873   1.580   6.524  14.471 -1.2509 -0.0855  1.1624
 4820TIP3   OH235874   0.497   5.998   4.312 -0.3205  0.2083 -0.0282
 4820TIP3    H135875   0.459   5.966   4.230 -1.8227 -1.8849  1.3793
 4820TIP3    H235876   0.509   5.919   4.365  4.2940  0.9063  0.4581
 4821TIP3   OH235877   4.160   5.867  14.491  0.1819 -0.5903  0.1916
 4821TIP3    H135878   4.118   5.866  14.578  1.3739  0.8836  0.8193
 4821TIP3    H235879   4.100   5.917  14.437 -0.2177 -0.9028  0.3347
 4822TIP3   OH235880   5.457   0.956  13.421  0.0922  0.5152  1.0790
 4822TIP3    H135881   5.536   0.909  13.447  0.7070  0.2948 -0.9655
 4822TIP3    H235882   5.434   0.918  13.336 -2.9259 -0.2426  2.1496
 4823TIP3   OH235883   3.075   4.108  10.967 -0.1091 -0.8072  0.3161
 4823TIP3    H135884   3.024   4.116  10.886  0.5466 -1.3787 -0.1625
 4823TIP3    H235885   3.057   4.189  11.015 -0.1105 -0.2283 -0.6338
 4824TIP3   OH235886   4.587   3.879  15.094 -0.5398 -0.1780 -0.3545
 4824TIP3    H135887   4.619   3.968  15.109 -2.3203  0.2775  1.1376
 4824TIP3    H235888   4.666   3.829  15.073  1.0254  1.1052  1.9127
 4825TIP3   OH235889   4.407   3.481   4.036  0.1529 -0.0468 -0.0371
 4825TIP3    H135890   4.495   3.511   4.013 -0.1560  0.4380 -0.6054
 4825TIP3    H235891   4.376   3.546   4.100  0.1195 -0.0924 -0.0070
 4826TIP3   OH235892   0.491   5.788  15.706  0.3823 -0.1201 -0.0665
 4826TIP3    H135893   0.503   5.792  15.801 -1.6140  1.6809  0.1867
 4826TIP3    H235894   0.484   5.880  15.680  2.2325 -0.5170 -2.1951
 4827TIP3   OH235895   4.898   3.380  16.038  0.1547 -0.4626 -0.5117
 4827TIP3    H135896   4.935   3.450  15.985 -0.9400  1.3591  1.0005
 4827TIP3    H235897   4.806   3.376  16.013 -0.0874 -0.4459  0.3267
 4828TIP3   OH235898   5.505   2.877   4.478  0.3782  0.1435  0.3355
 4828TIP3    H135899   5.550   2.945   4.429 -1.4789 -0.4804 -2.5627
 4828TIP3    H235900   5.561   2.800   4.470  1.1215  0.6013  1.1078
 4829TIP3   OH235901   4.908   1.951   6.456 -0.1026  0.0736  0.1811
 4829TIP3    H135902   4.978   1.909   6.506  0.5080  1.7588  0.7947
 4829TIP3    H235903   4.941   2.039   6.437  0.1614 -0.7358 -4.0989
 4830TIP3   OH235904   2.714   0.302   2.419  0.1020  0.5469 -0.5093
 4830TIP3    H135905   2.756   0.256   2.347 -0.1960 -1.1674  0.3493
 4830TIP3    H235906   2.784   0.352   2.460  0.5534  0.4747 -1.1877
 4831TIP3   OH235907   6.121   5.849   5.600 -0.8517  0.0235 -0.3183
 4831TIP3    H135908   6.158   5.934   5.624 -2.1279  0.3445  0.6008
 4831TIP3    H235909   6.185   5.785   5.633  1.2039  0.5715 -2.8550
 4832TIP3   OH235910   3.187   6.590  10.802 -0.0645 -0.8478 -0.9534
 4832TIP3    H135911   3.134   6.663  10.835 -1.3459 -1.6307 -1.1998
 4832TIP3    H235912   3.243   6.566  10.876  0.4072  0.3977 -0.8805
 4833TIP3   OH235913   1.128   0.915   6.104 -0.4024  0.3412 -0.0855
 4833TIP3    H135914   1.114   0.992   6.159  1.9101 -0.7475  2.2387
 4833TIP3    H235915   1.091   0.842   6.155 -0.6821 -0.3710 -1.2688
 4834TIP3   OH235916   2.856   6.400  13.699 -0.2970 -0.7965 -0.4838
 4834TIP3    H135917   2.805   6.366  13.772  1.1187 -0.6985  0.5937
 4834TIP3    H235918   2.925   6.335  13.686  1.5239  0.8240  0.5784
 4835TIP3   OH235919   5.351   0.868   2.460 -0.5169 -0.4797 -0.3115
 4835TIP3    H135920   5.429   0.920   2.442 -2.3124  2.1183 -1.0925
 4835TIP3    H235921   5.373   0.781   2.426  1.8558  0.2742 -0.9127
 4836TIP3   OH235922   5.326   5.332   2.796  0.1288 -0.6158 -0.2781
 4836TIP3    H135923   5.321   5.325   2.700  0.9290  0.8442 -0.4567
 4836TIP3    H235924   5.238   5.359   2.822 -0.6567 -2.8689 -0.3599
 4837TIP3   OH235925   3.974   0.989  14.508 -0.0591 -0.2980  0.6490
 4837TIP3    H135926   3.976   1.061  14.571  0.7944 -0.4692  0.8300
 4837TIP3    H235927   3.942   0.914  14.559  1.7213 -0.7237  1.2200
 4838TIP3   OH235928   3.571   5.543  16.175 -0.5976 -0.0854  0.3269
 4838TIP3    H135929   3.558   5.638  16.174  0.1091  0.0487  1.7152
 4838TIP3    H235930   3.491   5.507  16.136  0.5267  1.1696 -3.6534
 4839TIP3   OH235931   3.458   1.557   0.618 -0.5494  0.1930 -0.0433
 4839TIP3    H135932   3.490   1.472   0.649 -0.6051  0.2823  0.2662
 4839TIP3    H235933   3.527   1.618   0.644 -0.5803  0.2645 -0.1304
 4840TIP3   OH235934   0.417   0.506   0.775 -0.1586  0.3620  0.5214
 4840TIP3    H135935   0.369   0.560   0.838 -1.2774 -0.6508  0.5606
 4840TIP3    H235936   0.366   0.426   0.768  0.5092  0.0362 -0.9043
 4841TIP3   OH235937   3.853   2.657  15.214  0.3343  0.1077  0.1359
 4841TIP3    H135938   3.806   2.729  15.255  1.2456  1.1627 -0.6098
 4841TIP3    H235939   3.875   2.689  15.127  1.4707 -0.7694  0.0766
 4842TIP3   OH235940   0.078   4.518  14.468  0.5995  0.1985  0.0123
 4842TIP3    H135941   0.169   4.540  14.486  0.3268  1.0158  0.4023
 4842TIP3    H235942   0.053   4.573  14.394  0.3146  0.2397  0.1355
 4843TIP3   OH235943   2.283   1.666  11.359  0.0266  0.3539  0.1140
 4843TIP3    H135944   2.241   1.644  11.275 -0.8100 -0.1896  0.6617
 4843TIP3    H235945   2.219   1.721  11.404 -0.2791 -0.7909  1.1161
 4844TIP3   OH235946   0.291   0.851   0.747 -0.0983 -0.3492  0.5151
 4844TIP3    H135947   0.370   0.798   0.734  1.8168  2.7220 -1.7303
 4844TIP3    H235948   0.234   0.829   0.673 -0.6190 -1.3045  1.1825
 4845TIP3   OH235949   6.580   3.503   6.396  0.1061 -0.1354  0.4212
 4845TIP3    H135950   6.532   3.447   6.457  0.2954  0.2221  0.9000
 4845TIP3    H235951   6.559   3.592   6.423 -0.9598  0.0601 -0.9180
 4846TIP3   OH235952   1.605   6.496   4.017 -0.4490 -0.2518 -0.3571
 4846TIP3    H135953   1.635   6.564   3.958 -1.5899 -0.6382 -1.4472
 4846TIP3    H235954   1.553   6.437   3.961  2.2594 -3.2887  0.0122
 4847TIP3   OH235955   4.009   3.629   3.945 -0.7543 -0.5859 -0.1078
 4847TIP3    H135956   3.991   3.539   3.919 -2.4172 -0.3396  0.1257
 4847TIP3    H235957   3.969   3.683   3.877  0.5602  0.0031 -0.4517
 4848TIP3   OH235958   4.014   1.559   6.122  0.3784 -0.1820 -0.1744
 4848TIP3    H135959   3.997   1.517   6.206 -1.2866 -1.8893 -1.2792
 4848TIP3    H235960   4.109   1.554   6.110  0.8777  1.6860  2.3347
 4849TIP3   OH235961   1.474   1.625   3.639  0.5096  0.0850  0.3411
 4849TIP3    H135962   1.451   1.534   3.659  0.1931  0.1230  0.1666
 4849TIP3    H235963   1.447   1.636   3.547 -0.7653  0.7671  0.7740
 4850TIP3   OH235964   2.392   4.476   2.757  0.3551  0.1374 -0.7401
 4850TIP3    H135965   2.452   4.442   2.823  0.9403  0.0459 -1.3053
 4850TIP3    H235966   2.423   4.439   2.675 -0.4045  0.1945 -1.0627
 4851TIP3   OH235967   6.129   2.138   0.623  0.6449  0.6810 -0.3018
 4851TIP3    H135968   6.218   2.107   0.609  0.5544  0.7235 -1.0148
 4851TIP3    H235969   6.129   2.173   0.712  0.8637 -0.9539  0.3769
 4852TIP3   OH235970   3.798   2.109  15.373  0.5856 -0.0546 -0.2271
 4852TIP3    H135971   3.727   2.046  15.368  0.3343 -0.3333  3.6050
 4852TIP3    H235972   3.868   2.071  15.320 -0.4625 -2.2452 -0.1375
 4853TIP3   OH235973   0.460   1.840  13.588  0.5441 -0.1344  0.4097
 4853TIP3    H135974   0.402   1.830  13.664 -0.5578 -0.3603 -0.4379
 4853TIP3    H235975   0.519   1.911  13.612 -0.5515  0.6061  1.0186
 4854TIP3   OH235976   2.847   2.051  16.195  0.2865  0.0488  0.1389
 4854TIP3    H135977   2.874   2.143  16.190 -1.3396  0.5396 -0.3632
 4854TIP3    H235978   2.905   2.006  16.134  0.5579  0.8925 -0.2463
 4855TIP3   OH235979   5.447   0.013  13.046 -0.0575  0.0322  0.0903
 4855TIP3    H135980   5.459   0.102  13.014 -0.9143  0.3864  0.7247
 4855TIP3    H235981   5.361  -0.013  13.012 -0.1174 -0.2932  0.4858
 4856TIP3   OH235982   4.113   0.966  16.747 -0.4399 -0.0497  0.5929
 4856TIP3    H135983   4.201   0.953  16.785 -0.4101 -0.0074  0.5384
 4856TIP3    H235984   4.129   0.987  16.655 -0.4909  0.2911  0.6579
 4857TIP3   OH235985   0.929   3.382  17.118 -0.2621 -0.3832 -0.3094
 4857TIP3    H135986   0.895   3.336  17.195 -0.1927  1.5502  0.9304
 4857TIP3    H235987   0.854   3.433  17.087  0.6194  1.5530  0.6190
 4858TIP3   OH235988   6.202   0.719  12.184 -0.8882 -0.0334 -0.9990
 4858TIP3    H135989   6.239   0.747  12.267 -0.7080  0.0226 -1.0984
 4858TIP3    H235990   6.276   0.685  12.134 -0.9756  0.0399 -1.1820
 4859TIP3   OH235991   6.153   5.812   0.786 -0.5338  0.4567  0.3645
 4859TIP3    H135992   6.086   5.760   0.830 -0.2552 -0.8211 -0.6706
 4859TIP3    H235993   6.233   5.795   0.835 -0.7712  1.3076  1.0774
 4860TIP3   OH235994   5.806   5.172   5.589 -0.3875 -0.0031 -0.0227
 4860TIP3    H135995   5.844   5.223   5.518  1.6015 -1.5085 -0.1091
 4860TIP3    H235996   5.739   5.117   5.547 -1.5545  1.4527 -0.1408
 4861TIP3   OH235997   1.202   2.059   3.995 -0.1703 -0.0461 -0.1645
 4861TIP3    H135998   1.110   2.045   3.972 -0.1485 -2.0492  0.6837
 4861TIP3    H235999   1.249   1.996   3.940  0.3167 -1.4846  1.7831
 4862TIP3   OH236000   0.239   0.954  14.996  0.1245 -0.0665  0.2004
 4862TIP3    H136001   0.242   1.045  15.024 -0.3038 -0.0560  0.2235
 4862TIP3    H236002   0.161   0.948  14.941  1.9906  0.3759 -2.6968
 4863TIP3   OH236003   4.103   1.852   2.738  0.4287  0.3314 -0.2159
 4863TIP3    H136004   4.129   1.894   2.657  0.1533 -0.9069 -0.9709
 4863TIP3    H236005   4.173   1.790   2.757 -0.3492 -0.6430 -0.4755
 4864TIP3   OH236006   4.523   2.957  14.950 -0.6076 -0.1286 -0.1421
 4864TIP3    H136007   4.440   2.992  14.918  0.1955  1.7417 -0.2616
 4864TIP3    H236008   4.576   2.946  14.871 -0.7053 -1.3179 -0.0668
 4865TIP3   OH236009   5.852   1.489   5.155  0.8038 -0.1248  0.4223
 4865TIP3    H136010   5.821   1.400   5.169  0.4254 -0.1892 -0.7378
 4865TIP3    H236011   5.925   1.499   5.216  0.4317 -0.9983  1.0229
 4866TIP3   OH236012   6.521   3.692   3.385  0.1849 -0.3970 -0.4845
 4866TIP3    H136013   6.492   3.623   3.444 -0.4317  0.1338 -0.1625
 4866TIP3    H236014   6.442   3.717   3.336 -0.5699  2.6968  2.0298
 4867TIP3   OH236015   4.890   6.596   0.097 -0.4501  0.4357 -1.0271
 4867TIP3    H136016   4.980   6.564   0.088 -0.6334 -0.2890 -0.4003
 4867TIP3    H236017   4.892   6.650   0.176  0.0430  2.7255 -2.5085
 4868TIP3   OH236018   3.292   5.457   5.680  0.2630  0.3635  0.5877
 4868TIP3    H136019   3.223   5.515   5.711  0.3680  0.7089  0.1880
 4868TIP3    H236020   3.354   5.515   5.636  0.0790 -0.1217 -0.3396
 4869TIP3   OH236021   2.528   4.624   3.014  0.6071  0.7482  0.0111
 4869TIP3    H136022   2.532   4.671   3.097  1.1256  2.1346 -0.7705
 4869TIP3    H236023   2.436   4.596   3.007  0.9171 -1.0187  1.8783
 4870TIP3   OH236024   6.529   6.177  15.950  0.0537  0.5553  0.0942
 4870TIP3    H136025   6.581   6.121  15.893 -0.6111  1.2814 -1.2667
 4870TIP3    H236026   6.525   6.261  15.904 -0.8970  1.0129  0.9822
 4871TIP3   OH236027   2.946   3.507  14.724  0.0522  0.1121 -0.0707
 4871TIP3    H136028   2.924   3.553  14.805  0.5862 -1.0343  0.7613
 4871TIP3    H236029   2.983   3.574  14.667 -0.4397  0.9602  0.5814
 4872TIP3   OH236030   5.723   1.250  11.648 -0.6404 -0.1810  0.4061
 4872TIP3    H136031   5.673   1.305  11.587 -1.0418  0.7234  1.5271
 4872TIP3    H236032   5.680   1.165  11.643 -2.1044  0.4777  1.0645
 4873TIP3   OH236033   5.137   2.534   5.565  0.2433 -0.3273  0.0371
 4873TIP3    H136034   5.061   2.591   5.556 -0.8507 -1.4211  1.6871
 4873TIP3    H236035   5.195   2.581   5.626 -0.3004 -0.5951  0.7796
 4874TIP3   OH236036   4.908   2.385  14.515 -0.0240  0.3044 -0.0259
 4874TIP3    H136037   4.885   2.366  14.424  0.6313  0.3111 -0.1954
 4874TIP3    H236038   5.001   2.362  14.522 -0.2572 -0.4351  0.8444
 4875TIP3   OH236039   4.675   1.498  13.035  0.0101  0.1609  0.6374
 4875TIP3    H136040   4.755   1.465  12.994  0.0238 -1.3335  1.7633
 4875TIP3    H236041   4.706   1.540  13.115 -0.1589  1.5992 -0.0289
 4876TIP3   OH236042   5.783   2.569  15.007  0.5171 -0.0281  0.0479
 4876TIP3    H136043   5.740   2.603  15.085  0.3662 -0.6562  0.2425
 4876TIP3    H236044   5.757   2.629  14.937 -0.7861 -0.4588  0.1326
 4877TIP3   OH236045   3.081   0.853   3.227  0.2269 -0.5975  0.0115
 4877TIP3    H136046   3.163   0.873   3.181  0.9217 -1.1403  0.9641
 4877TIP3    H236047   3.094   0.888   3.315 -0.8970  0.0249 -0.0522
 4878TIP3   OH236048   5.636   6.617  17.021  0.0862  0.5848  0.4195
 4878TIP3    H136049   5.699   6.675  17.065 -0.2369  1.3563 -0.1058
 4878TIP3    H236050   5.663   6.620  16.929 -0.8978  1.1680  0.1410
 4879TIP3   OH236051   5.152   4.861  11.763 -0.1224 -0.7203  0.3222
 4879TIP3    H136052   5.164   4.783  11.817  2.4077 -1.0829 -0.6606
 4879TIP3    H236053   5.192   4.839  11.679  0.9374  1.7079  0.1068
 4880TIP3   OH236054   0.185   6.056   5.295 -0.1577  0.5089 -0.7018
 4880TIP3    H136055   0.171   6.011   5.378  2.8931  0.8754  0.1456
 4880TIP3    H236056   0.140   6.140   5.305 -2.3651 -0.5989 -0.6817
 4881TIP3   OH236057   2.741   2.249  14.162 -0.1892 -0.1766 -0.1610
 4881TIP3    H136058   2.770   2.340  14.169  0.8080 -0.4279 -0.7131
 4881TIP3    H236059   2.683   2.249  14.086 -0.6044  0.0962  0.1551
 4882TIP3   OH236060   0.058   4.873  13.439 -0.4225  0.0447  0.3140
 4882TIP3    H136061  -0.020   4.822  13.461 -1.3636  1.5715  0.7040
 4882TIP3    H236062   0.083   4.844  13.351 -1.0988 -0.8332  0.4002
 4883TIP3   OH236063   1.031   1.889  11.617  0.7153 -0.4901  0.4232
 4883TIP3    H136064   1.056   1.828  11.687 -1.1200 -2.0289 -0.1819
 4883TIP3    H236065   0.936   1.893  11.621  0.7513  3.8410  1.5845
 4884TIP3   OH236066   3.390   6.301  15.997 -0.2487 -0.4231 -0.0416
 4884TIP3    H136067   3.344   6.385  16.005  2.1532  0.8384  1.5768
 4884TIP3    H236068   3.448   6.312  15.922  0.4639 -0.4254  0.5038
 4885TIP3   OH236069   1.911   4.506  16.704 -0.4094  0.2437  0.0050
 4885TIP3    H136070   1.962   4.450  16.645 -1.0626  0.3884 -0.7152
 4885TIP3    H236071   1.820   4.477  16.692 -0.6870  1.0632  0.0657
 4886TIP3   OH236072   6.055   4.581   1.318  0.3083  0.7597  0.5177
 4886TIP3    H136073   6.055   4.672   1.349  0.2407  0.4064  1.6083
 4886TIP3    H236074   5.965   4.552   1.331  0.5616  0.2295  1.1528
 4887TIP3   OH236075   0.540   2.332   5.019 -0.4685  0.4940 -0.0068
 4887TIP3    H136076   0.552   2.414   4.971 -1.2926 -0.1098 -1.3145
 4887TIP3    H236077   0.449   2.334   5.049  0.0449  0.8789  1.6309
 4888TIP3   OH236078   2.102   1.924   2.126 -0.0508 -0.4106  0.3796
 4888TIP3    H136079   2.107   1.924   2.030  0.4842 -0.7634  0.4066
 4888TIP3    H236080   2.128   2.013   2.151  0.9597 -0.6506  0.2456
 4889TIP3   OH236081   1.677   4.894   5.169  0.2073  0.1265 -0.4092
 4889TIP3    H136082   1.678   4.843   5.250  2.2400  1.4171  0.4676
 4889TIP3    H236083   1.639   4.835   5.104  3.8516 -3.2667  0.1039
 4890TIP3   OH236084   6.196   1.199  14.072  0.0980 -0.1409 -0.3456
 4890TIP3    H136085   6.167   1.135  14.006  2.9569  0.2300 -2.1325
 4890TIP3    H236086   6.271   1.157  14.114 -0.2049  0.6296  1.0150
 4891TIP3   OH236087   5.341   3.234  15.753  0.7276  0.2922  0.3897
 4891TIP3    H136088   5.335   3.275  15.839  1.4774  0.6084  0.2926
 4891TIP3    H236089   5.427   3.193  15.751  0.7525  0.3623 -0.2475
 4892TIP3   OH236090   3.993   6.280   3.245  0.0423 -0.3117 -0.3833
 4892TIP3    H136091   3.898   6.292   3.253 -0.0180 -1.4224  0.9406
 4892TIP3    H236092   4.031   6.356   3.288 -0.2444 -0.0820 -0.5312
 4893TIP3   OH236093   4.475   1.777  13.919 -0.0758  0.2098  0.0768
 4893TIP3    H136094   4.467   1.696  13.868  0.6137 -2.1960  3.4221
 4893TIP3    H236095   4.395   1.780  13.971 -0.2520  1.9265 -0.2665
 4894TIP3   OH236096   5.899   1.441  14.749 -0.3301 -0.6416 -0.4175
 4894TIP3    H136097   5.983   1.395  14.753  0.6384  1.1470  1.7369
 4894TIP3    H236098   5.896   1.476  14.660  2.1465  0.7970 -0.0305
 4895TIP3   OH236099   6.452   4.184  11.250  0.2829  0.0402  0.2796
 4895TIP3    H136100   6.547   4.172  11.248  0.1047 -1.5331 -1.1848
 4895TIP3    H236101   6.416   4.096  11.245 -1.2565  0.6291  0.4113
 4896TIP3   OH236102   4.718   4.888   5.187  0.1683  0.4851  0.2243
 4896TIP3    H136103   4.690   4.895   5.278  1.0113  1.5551  0.4231
 4896TIP3    H236104   4.715   4.978   5.154 -1.5815 -0.0491 -1.2831
 4897TIP3   OH236105   5.260   0.660  12.845  0.2290  0.5304 -0.7767
 4897TIP3    H136106   5.247   0.635  12.753 -1.3776 -0.4286 -0.3299
 4897TIP3    H236107   5.305   0.745  12.840  1.0297  0.0574 -2.4211
 4898TIP3   OH236108   3.135   5.590   2.009  0.0442 -0.2494 -0.5411
 4898TIP3    H136109   3.086   5.578   1.927 -0.8669 -1.0408  0.1015
 4898TIP3    H236110   3.127   5.506   2.054  0.6992  0.1214  0.2782
 4899TIP3   OH236111   6.464   6.173   6.659  0.5846 -0.0218 -0.6128
 4899TIP3    H136112   6.449   6.267   6.669 -1.2299 -0.4627  1.4530
 4899TIP3    H236113   6.558   6.161   6.673  0.9569  1.5314 -1.5921
 4900TIP3   OH236114   2.552   3.546  15.343 -0.6282 -0.5520 -0.0484
 4900TIP3    H136115   2.527   3.515  15.256 -5.3182 -2.9473  1.7859
 4900TIP3    H236116   2.510   3.631  15.352  1.7728  0.7939 -0.7564
 4901TIP3   OH236117   0.128   4.054  16.227 -0.7650  0.4437 -0.4493
 4901TIP3    H136118   0.214   4.013  16.232 -0.3934  0.9656 -1.9518
 4901TIP3    H236119   0.094   4.051  16.317  0.7072  0.0202  0.1163
 4902TIP3   OH236120   2.059   0.907   1.510 -0.6677 -0.1361 -0.0698
 4902TIP3    H136121   1.998   0.916   1.437 -1.4395 -0.9841  0.4366
 4902TIP3    H236122   2.003   0.881   1.584  0.1942 -0.0537  0.6275
 4903TIP3   OH236123   6.535   4.941  13.965  0.1587  0.6068 -0.2867
 4903TIP3    H136124   6.536   4.958  14.059 -0.5896 -1.2630  0.0917
 4903TIP3    H236125   6.443   4.932  13.943  0.1595  3.1161 -1.6646
 4904TIP3   OH236126   0.123   0.451  16.503 -0.2813  0.4196  0.5315
 4904TIP3    H136127   0.078   0.432  16.421 -0.4805  2.0622  0.2301
 4904TIP3    H236128   0.079   0.395  16.567 -1.0628  0.1354 -0.2296
 4905TIP3   OH236129   3.320   5.133  12.225 -0.5089 -0.4588 -0.5125
 4905TIP3    H136130   3.382   5.066  12.254  0.4107  0.0620 -1.2164
 4905TIP3    H236131   3.295   5.105  12.137  0.4274  0.4784 -1.0902
 4906TIP3   OH236132   0.427   4.892   5.486 -0.6852 -0.3271  0.0622
 4906TIP3    H136133   0.350   4.949   5.491 -1.5832 -1.5417  0.7644
 4906TIP3    H236134   0.490   4.930   5.546 -1.0212  0.2815  0.0301
 4907TIP3   OH236135   1.141   5.761  15.309 -0.4349  0.1083 -0.5342
 4907TIP3    H136136   1.046   5.753  15.313 -0.6828  1.5279 -2.3574
 4907TIP3    H236137   1.172   5.671  15.299 -1.3264 -0.6721  2.6055
 4908TIP3   OH236138   5.913   5.315  13.169 -0.1737 -0.1997  0.4997
 4908TIP3    H136139   5.835   5.259  13.170 -0.3313 -0.0727 -1.5181
 4908TIP3    H236140   5.976   5.268  13.224 -0.7665 -1.6831 -0.0347
 4909TIP3   OH236141   6.033   1.205   2.286 -0.0665  0.2308 -0.4987
 4909TIP3    H136142   6.123   1.200   2.317 -0.2385 -0.2409 -0.0575
 4909TIP3    H236143   6.034   1.163   2.200 -0.0175 -0.5289 -0.1343
 4910TIP3   OH236144   4.195   1.151   4.291  0.3671  0.3141  0.0341
 4910TIP3    H136145   4.206   1.246   4.283  2.0439  0.0884 -0.7527
 4910TIP3    H236146   4.100   1.138   4.298  0.1020  2.0251  0.0269
 4911TIP3   OH236147   6.457   2.836   6.623  0.0720  0.3963  0.3177
 4911TIP3    H136148   6.439   2.815   6.715  0.7823  0.6918  0.5299
 4911TIP3    H236149   6.474   2.930   6.623 -0.0827  0.4263 -0.1442
 4912TIP3   OH236150   4.603   2.759   6.213  0.0123  0.5263  0.1615
 4912TIP3    H136151   4.668   2.689   6.206 -0.0931  0.4998 -0.7225
 4912TIP3    H236152   4.570   2.754   6.303 -0.2089 -0.7481  0.0206
 4913TIP3   OH236153   4.178   0.604  14.228 -0.1848 -0.2710  0.1770
 4913TIP3    H136154   4.100   0.659  14.227 -0.4387 -0.6225  0.5188
 4913TIP3    H236155   4.186   0.572  14.138  1.0065  1.7680 -0.5114
 4914TIP3   OH236156   2.356   0.009  12.918  0.1857 -0.2411 -0.6195
 4914TIP3    H136157   2.279   0.059  12.944 -0.0100 -1.4737  1.3391
 4914TIP3    H236158   2.392   0.058  12.844 -1.9510  0.8482 -1.0325
 4915TIP3   OH236159   0.799   0.730   4.819 -0.2767 -0.6273  0.6178
 4915TIP3    H136160   0.876   0.787   4.815  0.3431 -1.4668  0.2433
 4915TIP3    H236161   0.789   0.699   4.729 -0.8368 -0.8078  0.7430
 4916TIP3   OH236162   3.493   4.198  13.528 -0.2478 -0.2120  0.0349
 4916TIP3    H136163   3.421   4.259  13.516 -1.1091 -0.9494  1.2291
 4916TIP3    H236164   3.500   4.152  13.444 -1.2715 -0.2267 -0.0541
 4917TIP3   OH236165   2.429   2.785  16.998 -0.1428 -0.2167  0.0293
 4917TIP3    H136166   2.456   2.768  17.088 -3.4750 -1.1877  0.9640
 4917TIP3    H236167   2.388   2.872  17.001 -1.6637 -0.9065 -0.1637
 4918TIP3   OH236168   1.641   6.719   2.108 -0.0189  0.4643  0.0637
 4918TIP3    H136169   1.668   6.632   2.138  0.0230  0.1294 -0.9165
 4918TIP3    H236170   1.559   6.704   2.061 -0.6897  1.1454  0.9714
 4919TIP3   OH236171   6.347   3.781  15.444  0.4873  0.8002  0.2378
 4919TIP3    H136172   6.282   3.731  15.493 -0.8924  1.8969 -0.3959
 4919TIP3    H236173   6.335   3.754  15.353  1.4425  0.4746  0.1982
 4920TIP3   OH236174   4.054   4.938  13.917  0.2284  0.4164  0.4943
 4920TIP3    H136175   4.103   4.889  13.984  1.2348  0.7644  0.0449
 4920TIP3    H236176   4.068   5.029  13.941 -2.7319  0.5530  2.0957
 4921TIP3   OH236177   2.569   2.403  11.530  0.2066 -0.9981  0.3099
 4921TIP3    H136178   2.497   2.350  11.496 -0.2170  0.7946 -1.7662
 4921TIP3    H236179   2.643   2.383  11.471  0.4822 -0.4386  0.4616
 4922TIP3   OH236180   3.391   5.799  14.084 -0.0163  0.0351  0.5372
 4922TIP3    H136181   3.326   5.763  14.145  1.9913 -1.0183  2.1697
 4922TIP3    H236182   3.390   5.893  14.102 -1.0900  0.0420  0.5155
 4923TIP3   OH236183   5.691   0.154   1.079 -0.2307  0.0143 -0.1487
 4923TIP3    H136184   5.736   0.135   1.161 -1.1002 -0.7122  0.1689
 4923TIP3    H236185   5.661   0.245   1.089  0.6163  0.3040 -0.1238
 4924TIP3   OH236186   1.711   0.035   1.270  0.4130  0.5942  0.0976
 4924TIP3    H136187   1.712  -0.060   1.266 -0.5019  0.4959  1.5834
 4924TIP3    H236188   1.619   0.059   1.257  0.4256  1.1866  0.9799
 4925TIP3   OH236189   4.824   1.378  10.633  0.4351 -0.2001 -0.0050
 4925TIP3    H136190   4.849   1.287  10.647  0.2643 -0.2822 -0.2370
 4925TIP3    H236191   4.902   1.420  10.598  1.1098  0.1698  1.8176
 4926TIP3   OH236192   0.798   3.846  11.560  0.5908  0.7305  0.7333
 4926TIP3    H136193   0.893   3.841  11.558  0.7307  2.0433  2.0144
 4926TIP3    H236194   0.769   3.802  11.480  2.3703  2.3648 -0.9106
 4927TIP3   OH236195   1.400   0.604   5.437  0.1637  0.3590  0.7410
 4927TIP3    H136196   1.353   0.682   5.406  0.2624  0.4907  0.9187
 4927TIP3    H236197   1.491   0.634   5.445  0.3149  0.0533  0.2070
 4928TIP3   OH236198   5.862   3.060  12.553  0.3683  0.1992 -0.2374
 4928TIP3    H136199   5.826   3.005  12.624 -2.8818  1.2758 -0.8561
 4928TIP3    H236200   5.956   3.057  12.566  0.0331 -1.2447  2.9385
 4929TIP3   OH236201   1.855   4.680   3.547  0.2595  0.0917 -0.3040
 4929TIP3    H136202   1.821   4.764   3.518  0.2233 -0.0860 -0.7854
 4929TIP3    H236203   1.778   4.623   3.550 -0.0452  0.5277  1.7723
 4930TIP3   OH236204   4.471   3.658   3.704 -0.5655  0.0087 -0.4939
 4930TIP3    H136205   4.485   3.563   3.703  1.5826  0.2703 -1.2540
 4930TIP3    H236206   4.509   3.686   3.787 -1.1269  0.2186 -0.3082
 4931TIP3   OH236207   0.722   0.746   3.281  0.1204 -0.4147 -0.0133
 4931TIP3    H136208   0.728   0.794   3.199 -0.7651  0.7251  0.5625
 4931TIP3    H236209   0.681   0.663   3.258  1.6650 -0.9520 -1.0209
 4932TIP3   OH236210   0.847   0.942   0.016 -0.3463 -0.1661  0.0303
 4932TIP3    H136211   0.786   0.976  -0.049 -0.3759  0.9670  0.6293
 4932TIP3    H236212   0.801   0.867   0.055 -1.1212  0.3318  0.0887
 4933TIP3   OH236213   6.395   0.238  12.452  0.1634  0.4792 -0.0774
 4933TIP3    H136214   6.309   0.244  12.492 -0.1897 -0.3250 -0.6882
 4933TIP3    H236215   6.404   0.146  12.426  1.1563  0.5724 -0.1264
 4934TIP3   OH236216   2.989   3.432   0.897 -0.6532  0.3162  0.5850
 4934TIP3    H136217   2.993   3.339   0.875  1.5801 -0.6182  4.1084
 4934TIP3    H236218   2.896   3.453   0.896 -1.1309 -1.5059 -1.5988
 4935TIP3   OH236219   3.830   5.578  16.906 -0.2940 -0.1647 -0.0199
 4935TIP3    H136220   3.738   5.598  16.925 -0.0063  2.3887 -0.8788
 4935TIP3    H236221   3.831   5.484  16.890 -2.7784 -0.2660 -0.1153
 4936TIP3   OH236222   4.331   2.275  14.630 -0.0167  0.0803 -0.4708
 4936TIP3    H136223   4.261   2.340  14.630 -1.3492 -1.0289  3.4321
 4936TIP3    H236224   4.400   2.314  14.683 -0.4597 -1.1440  1.1367
 4937TIP3   OH236225   1.257   3.944   0.068  0.3357  0.0446  0.2143
 4937TIP3    H136226   1.166   3.924   0.090  0.1690  0.3552 -0.1894
 4937TIP3    H236227   1.294   3.978   0.149 -0.6546  2.5136 -0.2941
 4938TIP3   OH236228   1.885   3.044  12.581  0.3336  0.0834  0.2857
 4938TIP3    H136229   1.850   2.956  12.594  0.2349 -0.1535 -1.3800
 4938TIP3    H236230   1.930   3.064  12.663 -0.9242 -0.8951  1.2752
 4939TIP3   OH236231   2.632   5.863  16.971  0.0011 -0.5560  0.3298
 4939TIP3    H136232   2.572   5.801  16.929  0.9134 -1.4327  0.2680
 4939TIP3    H236233   2.607   5.948  16.936  0.1769 -1.1604 -1.3829
 4940TIP3   OH236234   1.931   6.211  13.557 -0.4589 -0.5800 -0.6296
 4940TIP3    H136235   1.993   6.270  13.516 -0.5189  0.4778  0.7413
 4940TIP3    H236236   1.845   6.240  13.525 -0.6181  1.0802  1.1639
 4941TIP3   OH236237   5.382   3.584   3.424 -0.1331  0.3753  0.2030
 4941TIP3    H136238   5.478   3.586   3.423 -0.0705 -1.4713 -0.5325
 4941TIP3    H236239   5.356   3.651   3.361  0.6610  0.8564  0.3698
 4942TIP3   OH236240   1.179   6.696   1.002 -0.3643  0.3950 -0.2642
 4942TIP3    H136241   1.094   6.707   0.959 -0.2989 -0.7253 -0.7075
 4942TIP3    H236242   1.208   6.785   1.020 -0.6673  0.8835 -2.0169
 4943TIP3   OH236243   0.172   4.713   3.682 -0.4811  0.0322 -0.3854
 4943TIP3    H136244   0.143   4.804   3.686 -1.6893 -0.3790  0.7119
 4943TIP3    H236245   0.256   4.713   3.729 -0.2559  0.6430 -0.7668
 4944TIP3   OH236246   2.374   5.685  14.896 -0.0854  1.0091 -0.6827
 4944TIP3    H136247   2.332   5.771  14.901 -0.3424  0.8415  0.2340
 4944TIP3    H236248   2.344   5.639  14.975  1.3184  0.6584 -0.3395
 4945TIP3   OH236249   3.882   1.138  16.862 -0.3484 -0.0326  0.5081
 4945TIP3    H136250   3.844   1.051  16.872  2.1472 -1.8534 -3.3864
 4945TIP3    H236251   3.829   1.180  16.794  0.1834  0.3492  0.3236
 4946TIP3   OH236252   3.301   4.852  13.417  0.0297 -0.1651  0.6018
 4946TIP3    H136253   3.326   4.852  13.509  0.0770  2.7559  0.6672
 4946TIP3    H236254   3.374   4.810  13.372 -0.0346 -1.7204  1.8264
 4947TIP3   OH236255   0.414   3.718  13.055  0.5102 -0.1838  0.3561
 4947TIP3    H136256   0.483   3.691  12.993 -0.5402  0.8071 -1.3300
 4947TIP3    H236257   0.339   3.663  13.033 -0.0251  0.5145  0.3848
 4948TIP3   OH236258   6.398   3.888   6.340  0.0236 -0.3126  0.2394
 4948TIP3    H136259   6.398   3.974   6.298  1.7664  0.3140  1.3800
 4948TIP3    H236260   6.306   3.863   6.345 -0.3762  0.2869 -2.4112
 4949TIP3   OH236261   2.974   1.966   5.090 -0.1502  0.3905 -0.3413
 4949TIP3    H136262   2.973   2.018   5.171  1.1221 -0.7305  0.4540
 4949TIP3    H236263   2.919   1.890   5.109  0.3716 -0.0135 -0.4170
 4950TIP3   OH236264   1.841   6.687  13.913  0.6366  0.1775  0.1009
 4950TIP3    H136265   1.778   6.759  13.901 -1.3756 -1.3949  0.7659
 4950TIP3    H236266   1.833   6.635  13.833 -0.5053 -1.1587  1.0317
 4951TIP3   OH236267   2.662   1.623   2.339  0.2202  0.4190 -0.6567
 4951TIP3    H136268   2.581   1.604   2.292  0.4925  1.4705 -1.5938
 4951TIP3    H236269   2.634   1.672   2.417 -0.0368  0.8774 -1.0349
 4952TIP3   OH236270   5.476   6.565   6.030  0.2864 -0.3896 -0.1475
 4952TIP3    H136271   5.540   6.624   6.069  0.2575  1.7566 -3.0420
 4952TIP3    H236272   5.400   6.619   6.012 -1.2605 -2.2220  0.4948
 4953TIP3   OH236273   5.888   0.920   0.968  0.5033  0.1961  0.0452
 4953TIP3    H136274   5.806   0.888   1.007 -1.8367  2.5317 -2.5214
 4953TIP3    H236275   5.938   0.841   0.949 -1.1323 -1.3295  1.7137
 4954TIP3   OH236276   2.386   1.404  11.014 -0.0237  0.3955 -0.6170
 4954TIP3    H136277   2.479   1.398  11.036 -0.3564 -0.0556  0.7406
 4954TIP3    H236278   2.344   1.336  11.066 -1.1295  0.6439 -1.1491
 4955TIP3   OH236279   2.619   6.694  15.074  0.1352 -0.1672  0.1505
 4955TIP3    H136280   2.700   6.653  15.107  1.4219  2.9991  1.3529
 4955TIP3    H236281   2.582   6.738  15.151 -1.4113  0.4847 -0.9249
 4956TIP3   OH236282   2.220   5.361  12.740  0.1393 -0.0637  0.0767
 4956TIP3    H136283   2.175   5.443  12.758 -0.1376 -0.1285 -0.3094
 4956TIP3    H236284   2.307   5.372  12.779 -0.1680  0.1052  0.7270
 4957TIP3   OH236285   1.171   5.960  10.681 -0.4572 -0.5244 -0.2900
 4957TIP3    H136286   1.111   5.911  10.626 -1.9428  0.1572  0.6712
 4957TIP3    H236287   1.166   5.918  10.767 -0.4361  0.2276  0.0911
 4958TIP3   OH236288   6.700   0.600   2.516  0.1708 -0.1428 -0.0001
 4958TIP3    H136289   6.702   0.612   2.610 -1.1254 -1.5966  0.2554
 4958TIP3    H236290   6.774   0.652   2.483  0.9945 -0.0821  1.8467
 4959TIP3   OH236291   6.597   5.563  13.814 -1.0191  0.2124 -0.2060
 4959TIP3    H136292   6.563   5.587  13.728 -1.1850 -1.5273 -0.6596
 4959TIP3    H236293   6.670   5.504  13.795 -1.2366 -0.4142  0.8441
 4960TIP3   OH236294   0.199   0.291   0.222  0.1841 -0.5183  0.1365
 4960TIP3    H136295   0.205   0.383   0.194 -1.8400 -0.4328 -0.1639
 4960TIP3    H236296   0.252   0.287   0.302 -0.6707  1.2377  0.8549
 4961TIP3   OH236297   0.462   1.362  16.807  0.1904  0.1586  0.6624
 4961TIP3    H136298   0.447   1.457  16.805 -0.0085  0.1227  0.3331
 4961TIP3    H236299   0.378   1.325  16.779  0.7490 -0.0683 -0.7889
 4962TIP3   OH236300   4.228   4.289  11.623  0.7611 -0.2052 -0.5850
 4962TIP3    H136301   4.257   4.235  11.549 -1.4201  0.6326 -2.1421
 4962TIP3    H236302   4.235   4.379  11.592  0.1150  0.1851  0.3389
 4963TIP3   OH236303   4.763   3.725   3.799  0.5651  0.2503 -0.3222
 4963TIP3    H136304   4.852   3.714   3.831  0.9306 -0.5232 -1.5637
 4963TIP3    H236305   4.754   3.819   3.785  1.5257  0.2336 -1.1118
 4964TIP3   OH236306   2.654   6.471  12.117 -0.0258  0.2896  0.0293
 4964TIP3    H136307   2.614   6.500  12.036 -0.8836  0.3477  0.4564
 4964TIP3    H236308   2.645   6.545  12.177 -1.9136 -0.6628  1.0139
 4965TIP3   OH236309   6.283   5.236   1.962  0.2229  0.1525 -0.2326
 4965TIP3    H136310   6.264   5.176   1.890 -0.6252 -1.3897  1.2017
 4965TIP3    H236311   6.372   5.266   1.946  0.5521 -1.2585 -1.1798
 4966TIP3   OH236312   0.537   2.563   3.203 -0.0129 -0.5391  0.5486
 4966TIP3    H136313   0.459   2.555   3.147  1.4285  1.2490 -1.9187
 4966TIP3    H236314   0.584   2.481   3.191  0.0298 -0.3678 -0.5241
 4967TIP3   OH236315   4.401   2.664  14.399  0.7533 -0.7584  0.1530
 4967TIP3    H136316   4.391   2.756  14.424  2.0826 -0.7073  0.5709
 4967TIP3    H236317   4.325   2.620  14.437  0.5224  0.0397  0.6287
 4968TIP3   OH236318   4.535   6.196  12.822  0.2243 -0.2712  0.2359
 4968TIP3    H136319   4.566   6.149  12.745 -0.2290  0.8566 -0.6652
 4968TIP3    H236320   4.606   6.258  12.843 -0.2862  0.4913 -0.2329
 4969TIP3   OH236321   4.346   5.685   3.103  0.8551 -0.8457 -0.4747
 4969TIP3    H136322   4.262   5.670   3.145  0.2480 -2.2093 -2.0695
 4969TIP3    H236323   4.362   5.606   3.051  2.8114 -0.3445 -0.7252
 4970TIP3   OH236324   1.508   0.080   2.733  0.0280  0.6619 -0.0791
 4970TIP3    H136325   1.485   0.089   2.641 -0.2276  1.2429  0.0325
 4970TIP3    H236326   1.439   0.127   2.779  2.0926  3.7637  0.2070
 4971TIP3   OH236327   0.797   5.106   6.130 -0.6303 -0.3411 -0.5570
 4971TIP3    H136328   0.876   5.078   6.175 -1.1648 -1.1849 -0.1320
 4971TIP3    H236329   0.753   5.164   6.192 -0.7612 -0.5440 -0.4578
 4972TIP3   OH236330   2.180   2.065  14.065  0.1462  1.0966 -0.7055
 4972TIP3    H136331   2.266   2.050  14.026  0.2373  1.9954 -0.8621
 4972TIP3    H236332   2.166   2.160  14.059 -1.2156  0.8821 -1.4423
 4973TIP3   OH236333   2.389   1.695   5.582  0.1241  0.4313  0.1184
 4973TIP3    H136334   2.384   1.764   5.649  1.4135 -0.5691  1.3074
 4973TIP3    H236335   2.473   1.654   5.597  0.0576 -0.3977 -1.6046
 4974TIP3   OH236336   1.917   0.077  11.286 -0.1699  0.0867 -0.4847
 4974TIP3    H136337   1.903   0.119  11.202  2.0400  0.6585 -0.6239
 4974TIP3    H236338   2.001   0.112  11.317  0.6250 -2.4288  0.4743
 4975TIP3   OH236339   5.600   6.537  13.614 -0.2594 -0.3935  0.5019
 4975TIP3    H136340   5.652   6.457  13.625  0.8133  0.1664 -0.3860
 4975TIP3    H236341   5.525   6.509  13.561  0.9787 -0.5070 -1.2772
 4976TIP3   OH236342   6.065   1.405  12.376  0.2004 -0.2068 -0.3765
 4976TIP3    H136343   6.124   1.342  12.335 -0.1789  0.1839 -1.5609
 4976TIP3    H236344   6.118   1.484  12.386  0.7734 -0.7724  1.4027
 4977TIP3   OH236345   3.907   0.244  12.136 -0.3233  0.2738  0.4523
 4977TIP3    H136346   3.913   0.328  12.089  1.6412 -0.0790 -0.0179
 4977TIP3    H236347   3.923   0.268  12.228  0.2318  0.4294  0.3206
 4978TIP3   OH236348   3.824   0.819   3.051 -0.6024 -0.0770 -0.2303
 4978TIP3    H136349   3.890   0.782   2.992 -0.1557  0.1929  0.0886
 4978TIP3    H236350   3.780   0.743   3.089 -2.0298 -0.2754 -2.1201
 4979TIP3   OH236351   0.915   2.742   3.173 -0.3444 -0.4293 -0.1308
 4979TIP3    H136352   1.006   2.773   3.170 -0.4266 -0.1776 -0.0641
 4979TIP3    H236353   0.916   2.661   3.122 -0.3934  0.3691 -1.4574
 4980TIP3   OH236354   5.974   0.369   4.482  0.5277  0.0200 -0.0991
 4980TIP3    H136355   5.926   0.403   4.558  1.2713 -0.3716  0.5503
 4980TIP3    H236356   5.907   0.362   4.414 -0.1518  0.3782  0.5121
 4981TIP3   OH236357   1.146   0.963  13.844 -0.3650  0.1771  0.0306
 4981TIP3    H136358   1.126   0.948  13.751 -0.3000  0.4056 -0.0207
 4981TIP3    H236359   1.237   0.935  13.854  0.1331  1.6189 -0.3235
 4982TIP3   OH236360   2.088   4.848   2.721  0.3018  0.9125 -0.0552
 4982TIP3    H136361   2.011   4.898   2.694  1.1846  1.2796 -2.0633
 4982TIP3    H236362   2.080   4.765   2.675  1.1091  0.9534 -0.2843
 4983TIP3   OH236363   4.007   5.046   4.215  0.1081 -0.1971  0.1479
 4983TIP3    H136364   4.042   5.135   4.212 -1.8488  0.6157 -1.7762
 4983TIP3    H236365   4.039   5.005   4.134 -0.5352 -0.5931  0.0848
 4984TIP3   OH236366   0.382   0.203   3.049 -0.1536 -0.2808  0.4365
 4984TIP3    H136367   0.422   0.119   3.068  0.7101 -0.2207 -0.9756
 4984TIP3    H236368   0.433   0.266   3.100  0.0999 -0.4581  0.4022
 4985TIP3   OH236369   2.713   0.141   2.669  0.2532 -0.7190  0.3564
 4985TIP3    H136370   2.691   0.194   2.592  0.4053 -1.5536 -0.2782
 4985TIP3    H236371   2.809   0.136   2.668  0.2382 -1.0243  0.3945
 4986TIP3   OH236372   5.728   4.395   0.608  0.1874 -0.0382  0.2899
 4986TIP3    H136373   5.734   4.304   0.578 -0.5212 -0.1316  0.4040
 4986TIP3    H236374   5.699   4.388   0.699 -2.7400  0.3112 -0.4990
 4987TIP3   OH236375   4.512   5.473   5.037  0.6882 -0.2369  0.4657
 4987TIP3    H136376   4.573   5.544   5.059  1.0503 -0.8105  1.3791
 4987TIP3    H236377   4.428   5.517   5.023  0.5225  0.2486  2.6040
 4988TIP3   OH236378   2.646   4.693   4.409  0.0529  0.3205  0.0351
 4988TIP3    H136379   2.649   4.788   4.403 -0.3968  0.5441  2.3909
 4988TIP3    H236380   2.585   4.676   4.481  1.0016 -1.7135  0.4180
 4989TIP3   OH236381   1.103   2.789   0.699  0.8036  0.5575 -0.1242
 4989TIP3    H136382   1.085   2.751   0.785 -0.6599  1.2626 -0.0939
 4989TIP3    H236383   1.017   2.815   0.665  1.5065  1.6953 -1.1332
 4990TIP3   OH236384   2.359   6.346   3.029 -0.2383 -0.3618 -0.4539
 4990TIP3    H136385   2.347   6.268   2.975 -0.2726 -1.5352  1.1490
 4990TIP3    H236386   2.450   6.372   3.015  0.0872 -1.3321 -0.2330
 4991TIP3   OH236387   1.616   6.511   0.581 -0.1063  0.1982 -0.0056
 4991TIP3    H136388   1.667   6.590   0.567 -0.3284  0.3432 -0.0004
 4991TIP3    H236389   1.666   6.461   0.645 -1.2203  1.5078  1.9851
 4992TIP3   OH236390   5.860   5.714   2.426 -0.1224  0.0302 -0.7242
 4992TIP3    H136391   5.819   5.799   2.438  0.9503  0.3579  0.9832
 4992TIP3    H236392   5.924   5.728   2.356  0.8000  0.9590  0.2587
 4993TIP3   OH236393   5.141   3.482  15.686 -0.5970 -0.5313  0.0477
 4993TIP3    H136394   5.221   3.455  15.732  0.4311  1.4229 -0.4950
 4993TIP3    H236395   5.157   3.460  15.594 -0.5462  0.1347 -0.1070
 4994TIP3   OH236396   0.200   1.683   5.321 -0.0735 -0.4076  0.2454
 4994TIP3    H136397   0.230   1.774   5.330 -0.5221 -0.0575 -1.5109
 4994TIP3    H236398   0.262   1.643   5.260 -0.3762 -1.0471  0.3488
 4995TIP3   OH236399   3.584   1.398   3.334 -0.0204  0.1567  0.2469
 4995TIP3    H136400   3.591   1.489   3.361 -0.2545 -0.0119  0.8877
 4995TIP3    H236401   3.490   1.383   3.324  0.0875  1.0925 -3.7488
 4996TIP3   OH236402   2.581   3.464  16.204 -0.4244  0.1096 -0.1733
 4996TIP3    H136403   2.605   3.406  16.132 -1.5211 -1.0308  0.3593
 4996TIP3    H236404   2.586   3.552  16.166  0.0392 -0.3991 -1.3387
 4997TIP3   OH236405   5.979   5.439   1.226  0.0952  0.2596 -0.2355
 4997TIP3    H136406   6.012   5.524   1.255  0.1813  0.0663  0.2527
 4997TIP3    H236407   5.891   5.458   1.192 -0.2473  0.4202  0.6876
 4998TIP3   OH236408   0.746   0.379  11.071  0.3271  0.5662 -1.1513
 4998TIP3    H136409   0.711   0.467  11.083  0.6522  0.5380  0.1910
 4998TIP3    H236410   0.819   0.390  11.010  2.5288  1.8527  1.4982
 4999TIP3   OH236411   1.864   4.014  14.612 -0.4544  0.1737  0.4607
 4999TIP3    H136412   1.857   3.997  14.518  0.0129 -1.0498  0.6358
 4999TIP3    H236413   1.789   3.970  14.651  0.8553 -1.7437  0.9339
 5000TIP3   OH236414   0.467   0.216   1.613  0.1995  0.2056  0.0006
 5000TIP3    H136415   0.468   0.216   1.517  1.2413 -1.0347 -0.0122
 5000TIP3    H236416   0.398   0.279   1.636 -0.4685  0.0929 -1.5595
 5001TIP3   OH236417   3.397   3.952  15.057 -0.0560  1.0815  0.0736
 5001TIP3    H136418   3.424   3.930  15.146  3.1863 -0.8265 -1.2104
 5001TIP3    H236419   3.327   4.016  15.068 -2.6131 -1.9563  4.0128
 5002TIP3   OH236420   5.422   4.627   0.081  0.2438 -0.0187 -0.5351
 5002TIP3    H136421   5.394   4.599   0.168 -1.0583  0.4716 -0.7896
 5002TIP3    H236422   5.386   4.561   0.022  0.3892  0.1262 -0.7884
 5003TIP3   OH236423   2.669   0.821  13.443 -0.3921 -0.3887  0.4766
 5003TIP3    H136424   2.632   0.753  13.386  1.4979 -0.1401 -1.1667
 5003TIP3    H236425   2.671   0.899  13.388  1.5927 -0.1723  0.7748
 5004TIP3   OH236426   0.496   3.337  17.152 -0.2968  0.7373 -0.1160
 5004TIP3    H136427   0.564   3.349  17.086  0.3310  0.6810  0.5047
 5004TIP3    H236428   0.468   3.246  17.143 -0.2280  0.7374 -0.3221
 5005TIP3   OH236429   1.646   2.812   6.093 -0.4253  0.0920  0.1123
 5005TIP3    H136430   1.622   2.875   6.162  2.4845 -0.5947  1.9445
 5005TIP3    H236431   1.661   2.730   6.140  0.3117 -0.7667 -1.5452
 5006TIP3   OH236432   2.764   3.545   4.023  0.1985 -0.2755 -0.4189
 5006TIP3    H136433   2.774   3.453   3.999 -0.3048 -0.8589  1.4577
 5006TIP3    H236434   2.750   3.544   4.117 -0.5344  1.6844 -0.4595
 5007TIP3   OH236435   1.117   0.442  15.803 -0.2130  0.2749  0.4772
 5007TIP3    H136436   1.184   0.407  15.862 -0.6246  0.1838  0.9023
 5007TIP3    H236437   1.153   0.525  15.772  0.6483 -0.3737 -0.3132
 5008TIP3   OH236438   1.570   6.338   5.348  0.4293 -0.6662  0.5098
 5008TIP3    H136439   1.553   6.432   5.360 -0.2096 -0.7430  0.2366
 5008TIP3    H236440   1.529   6.297   5.424 -2.1390 -0.9992 -0.9408
 5009TIP3   OH236441   4.624   2.528   0.816  0.2005  0.6950  0.8587
 5009TIP3    H136442   4.640   2.472   0.892 -1.7932 -2.2468 -0.6659
 5009TIP3    H236443   4.708   2.531   0.770  0.6028 -0.3078  1.4844
 5010TIP3   OH236444   4.241   6.732  14.989 -0.1066 -0.1949  0.0849
 5010TIP3    H136445   4.324   6.776  15.010 -0.7143  0.4859  1.1365
 5010TIP3    H236446   4.232   6.664  15.056 -0.3001 -0.4031 -0.1492
 5011TIP3   OH236447   5.152   0.622  11.546 -0.2138  0.1944 -0.1477
 5011TIP3    H136448   5.203   0.648  11.469 -0.7776 -1.5002 -1.1637
 5011TIP3    H236449   5.217   0.589  11.607  0.0120 -2.0686 -1.4796
 5012TIP3   OH236450   1.509   2.966   2.473 -0.0844  0.2221 -0.0091
 5012TIP3    H136451   1.602   2.944   2.478 -0.0321  0.0755 -1.2999
 5012TIP3    H236452   1.498   3.038   2.535  1.3762  1.7661 -1.4417
 5013TIP3   OH236453   4.601   6.753   5.409  0.1782  0.1179  0.0590
 5013TIP3    H136454   4.512   6.776   5.380 -0.1048 -0.7617  0.1872
 5013TIP3    H236455   4.645   6.723   5.329  1.3846  3.3858 -0.6525
 5014TIP3   OH236456   5.065   3.250  12.349 -0.2758 -0.0471 -0.0966
 5014TIP3    H136457   5.028   3.195  12.419  0.9154 -0.2545  0.3848
 5014TIP3    H236458   5.027   3.337  12.364  2.4478  0.8175  2.9333
 5015TIP3   OH236459   2.494   2.383  15.953  0.2121  0.3840 -0.0689
 5015TIP3    H136460   2.540   2.347  16.029 -0.9551  1.0514  0.9962
 5015TIP3    H236461   2.403   2.358  15.967 -0.3128  2.0489 -0.2957
 5016TIP3   OH236462   3.957   3.463  14.580 -0.1170 -0.1461 -0.2272
 5016TIP3    H136463   4.046   3.469  14.615 -0.3232 -0.2941  0.3442
 5016TIP3    H236464   3.932   3.372  14.592  0.2364 -0.4903 -1.8952
 5017TIP3   OH236465   2.300   0.624   2.433 -0.4660 -0.0921  0.0248
 5017TIP3    H136466   2.303   0.689   2.362  0.7402 -1.2760 -1.0604
 5017TIP3    H236467   2.264   0.546   2.392 -0.3803 -0.6080  0.9123
 5018TIP3   OH236468   5.665   0.838  15.776  0.4230  0.0123 -0.0100
 5018TIP3    H136469   5.616   0.909  15.736 -0.2029 -0.0643  0.5995
 5018TIP3    H236470   5.738   0.823  15.716  1.0722  1.7518  0.2829
 5019TIP3   OH236471   0.710   0.589  11.936 -0.0632 -0.8001 -0.6807
 5019TIP3    H136472   0.763   0.520  11.976 -0.3253 -1.6147 -1.7180
 5019TIP3    H236473   0.766   0.628  11.870 -0.5295 -1.2276 -1.3329
 5020TIP3   OH236474   5.761   2.951   5.518 -0.1547  0.7611  0.1431
 5020TIP3    H136475   5.776   3.035   5.473 -0.1178  0.7885  0.2075
 5020TIP3    H236476   5.677   2.964   5.563  0.1357  0.9643  0.6304
 5021TIP3   OH236477   4.689   3.107  14.370 -0.2700 -0.1797  0.2388
 5021TIP3    H136478   4.781   3.086  14.389  0.1714 -0.9081 -2.3588
 5021TIP3    H236479   4.689   3.202  14.355 -0.0226 -0.1163  0.6278
 5022TIP3   OH236480   4.445   6.119  12.410  0.5394 -0.5638  0.0072
 5022TIP3    H136481   4.438   6.161  12.324 -0.7323 -2.6790 -1.0035
 5022TIP3    H236482   4.384   6.167  12.466 -0.5047 -0.6912 -0.9848
 5023TIP3   OH236483   2.935   6.051   5.686  0.4600 -0.0023 -0.1268
 5023TIP3    H136484   2.964   6.123   5.629  3.3477  0.0050  1.1669
 5023TIP3    H236485   2.850   6.025   5.650  0.2552  2.6577 -1.9061
 5024TIP3   OH236486   6.159   3.289  10.850 -0.2501  0.2909 -0.3405
 5024TIP3    H136487   6.095   3.220  10.836 -1.8673  1.5866  0.3639
 5024TIP3    H236488   6.163   3.335  10.767 -0.8849  0.7163 -0.1422
 5025TIP3   OH236489   5.935   5.546   5.682 -0.0797  0.0902 -0.1782
 5025TIP3    H136490   5.921   5.466   5.732 -0.1403 -0.1124 -0.5210
 5025TIP3    H236491   5.925   5.616   5.747 -1.1805 -0.1184 -0.1027
 5026TIP3   OH236492   0.278   5.692  16.204 -0.2608 -0.4748  0.2504
 5026TIP3    H136493   0.230   5.727  16.130  1.8518 -1.0364 -1.4885
 5026TIP3    H236494   0.346   5.757  16.222  1.9652 -2.2263 -1.2307
 5027TIP3   OH236495   0.449   0.998   3.953  0.2490  0.5906  0.5137
 5027TIP3    H136496   0.400   1.045   3.885  0.6781  0.9211  0.4257
 5027TIP3    H236497   0.390   0.929   3.982  0.7462 -0.8223 -1.5896
 5028TIP3   OH236498   2.519   5.446  13.302  0.2935  0.2456 -0.1554
 5028TIP3    H136499   2.560   5.425  13.386 -0.7988  2.0582  0.8822
 5028TIP3    H236500   2.427   5.424  13.314  0.0117  1.1114 -0.6574
 5029TIP3   OH236501   2.908   4.755  16.196 -0.3281 -0.6182  0.5107
 5029TIP3    H136502   2.891   4.810  16.119 -2.0371  1.0134  1.9475
 5029TIP3    H236503   2.849   4.681  16.186 -0.8156 -0.2234  0.4011
 5030TIP3   OH236504   3.809   5.586   5.605  0.0338  0.4752 -0.0354
 5030TIP3    H136505   3.856   5.662   5.639  3.3474 -1.4725  0.0968
 5030TIP3    H236506   3.772   5.544   5.683 -0.8731  1.2925 -0.0005
 5031TIP3   OH236507   1.651   6.661   5.696 -0.6566 -0.7705  0.0305
 5031TIP3    H136508   1.742   6.635   5.711 -1.0723 -1.2040  2.0380
 5031TIP3    H236509   1.601   6.580   5.708 -1.4659 -0.1686  0.8312
 5032TIP3   OH236510   2.192   1.366   0.329 -0.1006 -0.2279 -0.4210
 5032TIP3    H136511   2.256   1.296   0.314  0.6922 -0.1015  1.9445
 5032TIP3    H236512   2.122   1.324   0.379  0.4510  0.6222  1.1487
 5033TIP3   OH236513   5.169   1.177   0.765  0.0678 -0.1377  0.0028
 5033TIP3    H136514   5.105   1.150   0.699 -0.7610  0.3292  0.5902
 5033TIP3    H236515   5.212   1.253   0.727 -0.5824  0.2816  0.0917
 5034TIP3   OH236516   4.733   4.228   6.258  0.2355  0.0755  0.1662
 5034TIP3    H136517   4.695   4.219   6.170 -0.4447 -0.9649  0.5488
 5034TIP3    H236518   4.826   4.209   6.245  0.2180  0.3378 -0.3950
 5035TIP3   OH236519   5.870   0.436  10.602  0.1366  0.1282 -0.2542
 5035TIP3    H136520   5.906   0.511  10.556  2.6511 -1.9368 -1.9656
 5035TIP3    H236521   5.946   0.393  10.642 -0.7477 -2.6777 -1.2879
 5036TIP3   OH236522   4.037   1.178  13.225 -0.0512  0.5412 -0.2421
 5036TIP3    H136523   4.105   1.223  13.275 -0.1618  1.6569 -1.0436
 5036TIP3    H236524   4.068   1.088  13.217 -1.3201 -0.5453  4.2123
 5037TIP3   OH236525   2.837   0.387   1.519  0.0393 -0.3451  0.4126
 5037TIP3    H136526   2.805   0.306   1.478  1.2022  0.5692 -2.5917
 5037TIP3    H236527   2.758   0.429   1.553 -0.7855 -1.9793  0.6183
 5038TIP3   OH236528   2.879   5.955  16.981  0.5431 -0.0021  0.0585
 5038TIP3    H136529   2.883   5.958  16.886 -1.0512 -2.1146 -0.1483
 5038TIP3    H236530   2.793   5.916  17.001  1.0827 -0.2125  2.3246
 5039TIP3   OH236531   3.029   1.474   0.166 -0.4031  0.3999  0.3738
 5039TIP3    H136532   2.989   1.443   0.248 -1.3246 -0.3869 -0.3406
 5039TIP3    H236533   3.122   1.483   0.186  0.2507 -4.0444  0.3973
 5040TIP3   OH236534   4.422   6.742   4.307  0.4608 -0.6149 -0.7002
 5040TIP3    H136535   4.358   6.757   4.376 -1.0302  1.3517 -2.3820
 5040TIP3    H236536   4.458   6.656   4.326 -0.7136 -0.6493  1.8236
 5041TIP3   OH236537   1.374   2.480  15.960 -0.2895  0.3364  0.1778
 5041TIP3    H136538   1.355   2.387  15.952 -0.2955  0.3051  0.5288
 5041TIP3    H236539   1.469   2.485  15.969 -0.1014  0.4853 -1.4675
 5042TIP3   OH236540   4.579   2.263  10.985 -0.3472  0.1758 -0.3672
 5042TIP3    H136541   4.522   2.200  10.941  0.5237  0.3165 -1.7539
 5042TIP3    H236542   4.666   2.248  10.947  0.2473  0.9805  0.6143
 5043TIP3   OH236543   3.872   4.932  13.391  0.0443  0.4421 -0.4152
 5043TIP3    H136544   3.954   4.933  13.342 -0.2123 -1.7717 -1.0117
 5043TIP3    H236545   3.898   4.929  13.483  0.5878  1.2323 -0.5393
 5044TIP3   OH236546   4.802   6.272  14.687 -0.2489 -0.4344  0.1217
 5044TIP3    H136547   4.840   6.359  14.698 -0.7707 -0.2053  0.1255
 5044TIP3    H236548   4.733   6.268  14.752 -1.6654 -0.0273 -1.2846
 5045TIP3   OH236549   4.684   5.773  16.580 -0.2455  0.0596 -0.5469
 5045TIP3    H136550   4.623   5.736  16.516 -0.0894 -0.2911 -0.4923
 5045TIP3    H236551   4.678   5.715  16.655  2.4153 -1.8283 -1.6420
 5046TIP3   OH236552   2.230   0.157  14.822  0.0709  0.0714  0.5409
 5046TIP3    H136553   2.224   0.073  14.775 -0.8295  1.0446 -1.1835
 5046TIP3    H236554   2.140   0.179  14.843  0.2814  0.7027  0.7940
 5047TIP3   OH236555   1.749   3.977   3.486 -0.5918  0.1376  0.3911
 5047TIP3    H136556   1.753   4.048   3.550  1.9559 -0.1277  0.6325
 5047TIP3    H236557   1.818   3.996   3.423 -2.0915 -0.3882 -1.5058
 5048TIP3   OH236558   6.699   1.127  13.128 -0.5022 -0.2403 -0.5341
 5048TIP3    H136559   6.698   1.058  13.194 -0.0589 -0.1776 -0.4598
 5048TIP3    H236560   6.709   1.208  13.177  1.8354 -0.3218 -0.7486
 5049TIP3   OH236561   5.632   6.191   1.728  0.3301  0.0481 -0.0785
 5049TIP3    H136562   5.639   6.240   1.810 -0.1773 -0.2842  0.1676
 5049TIP3    H236563   5.552   6.225   1.688 -0.6197 -1.3059  0.5930
 5050TIP3   OH236564   1.434   5.951   1.920 -0.5007  0.0275 -0.0046
 5050TIP3    H136565   1.479   6.020   1.872  1.5768 -1.0502  0.3121
 5050TIP3    H236566   1.421   5.881   1.855  2.1966 -1.3807  0.8389
 5051TIP3   OH236567   4.904   4.980   3.941  0.1332  0.1581  0.4995
 5051TIP3    H136568   4.841   4.910   3.922 -0.0619  0.1164  1.2754
 5051TIP3    H236569   4.989   4.942   3.919  0.0571 -0.4291  1.1882
 5052TIP3   OH236570   6.313   6.311   4.142  0.2455  0.1145 -0.6416
 5052TIP3    H136571   6.401   6.303   4.107  1.2975  0.6897  1.6883
 5052TIP3    H236572   6.299   6.406   4.152 -0.4998  0.0169 -0.6502
 5053TIP3   OH236573   4.142   5.150  14.567 -0.1235 -0.3507  0.3873
 5053TIP3    H136574   4.058   5.131  14.525  1.0849 -1.4432 -1.7295
 5053TIP3    H236575   4.142   5.096  14.646 -2.1094  1.0683  1.4414
 5054TIP3   OH236576   2.768   1.959   0.956 -0.8844  0.0498 -0.4865
 5054TIP3    H136577   2.818   2.016   0.898 -1.7719  0.8820 -0.4607
 5054TIP3    H236578   2.679   1.996   0.956 -0.6615  0.8846  2.3790
 5055TIP3   OH236579   2.391   0.445   4.068  0.0560  0.2148  0.3918
 5055TIP3    H136580   2.326   0.503   4.029  0.9872  0.4497 -0.8854
 5055TIP3    H236581   2.472   0.466   4.021  0.7804 -0.9174  1.1024
 5056TIP3   OH236582   3.120   5.542  11.833 -0.5090  0.2902  0.6939
 5056TIP3    H136583   3.057   5.475  11.860  1.7564 -1.3544  2.3082
 5056TIP3    H236584   3.178   5.498  11.771  0.9745  0.6805  1.7229
 5057TIP3   OH236585   0.801   1.029  12.947 -0.4850  0.0061 -0.1814
 5057TIP3    H136586   0.884   1.035  12.993 -0.2146  2.4889 -0.8596
 5057TIP3    H236587   0.788   0.935  12.933  1.5409 -0.5176  1.0540
 5058TIP3   OH236588   1.968   5.108  16.200 -0.4797  0.0708 -0.3282
 5058TIP3    H136589   2.054   5.106  16.157  1.2071 -0.6154  2.7361
 5058TIP3    H236590   1.943   5.200  16.200  1.4857  0.6673  0.7717
 5059TIP3   OH236591   0.863   4.301   3.193  0.2092 -0.0362  0.6255
 5059TIP3    H136592   0.802   4.325   3.263  0.6975  1.1022  0.6926
 5059TIP3    H236593   0.807   4.285   3.117 -0.1668  1.8963  0.4373
 5060TIP3   OH236594   2.164   5.680  14.049 -0.0323 -0.2360 -0.8152
 5060TIP3    H136595   2.164   5.585  14.037  0.3286 -0.0551 -2.5425
 5060TIP3    H236596   2.256   5.705  14.040 -0.2034  0.3494 -0.9820
 5061TIP3   OH236597   6.404   4.758  12.693  0.5289  0.3147 -0.4494
 5061TIP3    H136598   6.485   4.759  12.643  1.3037 -2.1441  0.5960
 5061TIP3    H236599   6.432   4.771  12.784 -0.1371 -1.1449 -0.0079
 5062TIP3   OH236600   4.826   2.159  13.634 -0.4539 -0.1279 -0.9083
 5062TIP3    H136601   4.782   2.235  13.597 -1.6866  0.1325  0.9758
 5062TIP3    H236602   4.850   2.185  13.723 -0.3848 -1.7447 -0.4140
 5063TIP3   OH236603   4.075   4.796  14.489  0.0261 -0.3617 -0.3312
 5063TIP3    H136604   4.094   4.758  14.403 -2.0475 -0.2694 -0.8957
 5063TIP3    H236605   3.986   4.767  14.508  0.2970 -0.0476  1.6346
 5064TIP3   OH236606   2.181   4.827  11.589  0.4611  0.2451 -0.0134
 5064TIP3    H136607   2.105   4.814  11.532  0.1100  0.7433  0.3288
 5064TIP3    H236608   2.226   4.903  11.552  0.7056  0.0483 -0.1217
 5065TIP3   OH236609   2.059   3.372  14.291  0.0203 -0.3621 -0.3611
 5065TIP3    H136610   2.011   3.378  14.208 -2.0636  1.4886  0.8700
 5065TIP3    H236611   2.095   3.460  14.304 -0.7269 -0.2569  1.2382
 5066TIP3   OH236612   5.392   4.922  12.455  0.2069 -0.3946  0.7443
 5066TIP3    H136613   5.374   4.834  12.420  0.6567 -0.2376  0.1025
 5066TIP3    H236614   5.356   4.981  12.389  0.7400 -0.0943  0.7193
 5067TIP3   OH236615   5.830   3.640   3.954 -0.1382 -0.2030 -0.2876
 5067TIP3    H136616   5.919   3.671   3.943  0.1315  0.1514  2.2975
 5067TIP3    H236617   5.780   3.717   3.981 -1.4490 -0.2360 -2.3742
 5068TIP3   OH236618   4.679   5.798  16.894  0.2733  0.1315  0.2621
 5068TIP3    H136619   4.658   5.874  16.839  3.4539  0.8635 -0.1855
 5068TIP3    H236620   4.665   5.829  16.983  0.7836  1.0140  0.0508
 5069TIP3   OH236621   1.149   4.664  13.205 -0.0484 -0.0195  0.2033
 5069TIP3    H136622   1.209   4.738  13.190  0.8234 -0.6887  0.2912
 5069TIP3    H236623   1.167   4.603  13.133  0.5007 -0.9328  1.0891
 5070TIP3   OH236624   1.819   5.062   1.104 -0.2116 -0.1579  0.1903
 5070TIP3    H136625   1.803   5.153   1.130 -2.0184 -1.0281  2.4467
 5070TIP3    H236626   1.732   5.026   1.087  0.4035 -1.7299  0.2266
 5071TIP3   OH236627   3.112   2.118  11.431 -0.0587 -0.0746 -0.0719
 5071TIP3    H136628   3.114   2.166  11.349 -1.9215 -0.3838 -0.3506
 5071TIP3    H236629   3.114   2.186  11.499  0.7585  0.2084 -0.3703
 5072TIP3   OH236630   2.009   3.123   6.473 -0.0353  0.4023 -0.5337
 5072TIP3    H136631   1.959   3.205   6.475  0.4281  0.6850  0.4087
 5072TIP3    H236632   1.946   3.056   6.495 -0.3322  0.5591 -0.8991
 5073TIP3   OH236633   5.690   3.242  13.112  0.1242 -0.0681 -0.1688
 5073TIP3    H136634   5.648   3.156  13.104  0.2008 -0.0518 -0.7337
 5073TIP3    H236635   5.667   3.288  13.031  0.4298  0.2944 -0.0513
 5074TIP3   OH236636   1.934   3.202   2.292 -0.1174  0.7402  0.3622
 5074TIP3    H136637   1.997   3.223   2.360  1.3187  0.4358 -0.8366
 5074TIP3    H236638   1.917   3.285   2.247  0.9425  0.4978 -0.5351
 5075TIP3   OH236639   5.284   4.728  13.279  0.0415  0.5712 -0.1278
 5075TIP3    H136640   5.284   4.753  13.186 -1.7736  1.0291 -0.0580
 5075TIP3    H236641   5.200   4.761  13.312  0.2198 -0.4397  1.4432
 5076TIP3   OH236642   2.967   1.827   2.056 -0.2327 -0.1750 -0.1111
 5076TIP3    H136643   2.941   1.754   2.113  0.6199 -0.1881  0.2806
 5076TIP3    H236644   2.888   1.879   2.045 -0.4377 -0.2309  1.0080
 5077TIP3   OH236645   0.991   2.745   5.944 -0.4586 -0.3324  0.6012
 5077TIP3    H136646   1.064   2.738   6.006  2.0762  2.7615 -1.7364
 5077TIP3    H236647   1.012   2.683   5.875 -0.0475  0.5053 -0.0376
 5078TIP3   OH236648   0.801   1.633   0.616  0.3365 -0.2213  0.1387
 5078TIP3    H136649   0.890   1.598   0.606  0.4651  0.2281 -0.3041
 5078TIP3    H236650   0.765   1.631   0.528  0.1400  0.2213  0.2113
 5079TIP3   OH236651   1.087   1.150  16.283  0.1159  0.1380 -0.0948
 5079TIP3    H136652   1.084   1.243  16.261  0.1225 -0.4275 -2.8795
 5079TIP3    H236653   1.001   1.117  16.260  0.7435 -0.8868 -1.0730
 5080TIP3   OH236654   0.223   2.758   1.036 -0.0684  0.4875 -0.1445
 5080TIP3    H136655   0.251   2.850   1.038  0.5017  0.4924 -3.0723
 5080TIP3    H236656   0.127   2.762   1.036 -0.0665  0.9678  1.2476
 5081TIP3   OH236657   4.089   2.713   1.535 -0.4367 -0.1758  0.6893
 5081TIP3    H136658   4.157   2.750   1.593 -0.9283  2.9762 -0.5410
 5081TIP3    H236659   4.007   2.740   1.574 -0.7845  1.7136 -1.1961
 5082TIP3   OH236660   1.316   2.596  12.194 -0.5412 -0.3983  0.1410
 5082TIP3    H136661   1.311   2.566  12.104  1.8665 -0.4695 -0.0248
 5082TIP3    H236662   1.409   2.611  12.210 -0.9439  0.0837  2.4682
 5083TIP3   OH236663   2.084   1.096   3.192 -0.1596  0.2965 -0.0007
 5083TIP3    H136664   2.175   1.121   3.208 -0.6286  2.7418 -0.6393
 5083TIP3    H236665   2.033   1.170   3.225 -1.9229 -0.8989  0.1052
 5084TIP3   OH236666   4.916   5.274   0.596 -0.5474  0.0862 -0.2733
 5084TIP3    H136667   4.855   5.207   0.566 -0.8592  0.4826 -0.5423
 5084TIP3    H236668   4.915   5.340   0.527  1.4768 -0.6842 -1.0995
 5085TIP3   OH236669   4.260   3.892  11.782 -0.0208  0.2897  0.2678
 5085TIP3    H136670   4.189   3.956  11.770 -0.3633 -0.1142  0.1090
 5085TIP3    H236671   4.283   3.899  11.875  0.0926  0.7952  0.2047
 5086TIP3   OH236672   5.842   0.194  15.832  0.1059 -0.2003  0.2302
 5086TIP3    H136673   5.936   0.180  15.820 -0.0357 -0.0528 -1.1969
 5086TIP3    H236674   5.804   0.183  15.744 -1.2739 -0.6988  0.8565
 5087TIP3   OH236675   2.894   5.557   1.050  0.1743 -0.4738 -0.0137
 5087TIP3    H136676   2.895   5.482   1.110  2.8437 -0.0308  0.6350
 5087TIP3    H236677   2.963   5.538   0.986 -1.2669  0.0039 -1.7952
 5088TIP3   OH236678   2.620   4.050   6.239  0.1475 -0.0476  0.0893
 5088TIP3    H136679   2.653   4.036   6.328  1.6694  2.9756  0.1154
 5088TIP3    H236680   2.590   4.141   6.239 -0.8243 -0.3117 -2.2235
 5089TIP3   OH236681   0.505   3.302  11.680  0.4013 -0.0452 -0.1229
 5089TIP3    H136682   0.484   3.252  11.758 -1.0898 -0.5903 -0.8456
 5089TIP3    H236683   0.433   3.285  11.619  1.3710  0.5888 -1.5215
 5090TIP3   OH236684   1.712   0.865   4.749 -0.0818 -0.0025  0.3119
 5090TIP3    H136685   1.717   0.958   4.770 -0.8689  0.1337 -0.0615
 5090TIP3    H236686   1.726   0.821   4.833 -2.9033  0.5251  1.1786
 5091TIP3   OH236687   5.151   6.602   1.085  0.4961  0.1586  0.3047
 5091TIP3    H136688   5.061   6.611   1.055 -0.2280  0.9945  2.4640
 5091TIP3    H236689   5.152   6.521   1.135  1.0469 -0.0364 -0.0167
 5092TIP3   OH236690   5.463   1.586   4.422 -0.0186  0.4815 -0.2928
 5092TIP3    H136691   5.515   1.662   4.399 -1.4070  1.6121  0.1764
 5092TIP3    H236692   5.522   1.531   4.475  1.5870  0.2690 -2.2052
 5093TIP3   OH236693   2.288   5.108  13.724  0.6385  0.2529  0.3728
 5093TIP3    H136694   2.198   5.111  13.694  0.5980 -1.1450  0.2993
 5093TIP3    H236695   2.303   5.017  13.748  1.8408  0.5800  0.9877
 5094TIP3   OH236696   4.028   1.605  13.731 -0.1589 -0.5677 -0.1470
 5094TIP3    H136697   3.949   1.655  13.712 -0.7951 -0.9605  1.2891
 5094TIP3    H236698   4.001   1.542  13.797  1.2393 -1.0721 -0.0185
 5095TIP3   OH236699   3.124   6.325   0.119  0.1737  0.0781  0.7415
 5095TIP3    H136700   3.053   6.292   0.064 -1.7122  2.1264  1.7656
 5095TIP3    H236701   3.187   6.253   0.123 -0.1441 -0.5991 -3.0275
 5096TIP3   OH236702   6.400   0.131  13.717 -0.2648 -0.2654  0.0852
 5096TIP3    H136703   6.317   0.179  13.710 -0.8386 -1.1020  0.9168
 5096TIP3    H236704   6.425   0.114  13.626 -0.5333  0.7659 -0.2021
 5097TIP3   OH236705   4.723   2.761  14.500  0.0367 -0.3327 -0.2354
 5097TIP3    H136706   4.634   2.758  14.466  0.3063 -0.9525 -0.8952
 5097TIP3    H236707   4.733   2.680  14.550  0.3231 -0.4050 -0.4046
 5098TIP3   OH236708   3.953   4.233  15.554 -0.4964  0.0964 -0.1824
 5098TIP3    H136709   3.970   4.217  15.647  0.3793 -0.5661 -0.4479
 5098TIP3    H236710   3.948   4.146  15.515  0.0478  0.3874 -0.9176
 5099TIP3   OH236711   3.560   6.020   3.141  0.1221 -0.1684  0.2616
 5099TIP3    H136712   3.568   6.115   3.132 -0.1090 -0.3348 -2.8005
 5099TIP3    H236713   3.631   5.995   3.200  1.8418  1.6712 -0.9143
 5100TIP3   OH236714   6.032   4.737   5.672  0.6302  0.3351 -0.6544
 5100TIP3    H136715   6.091   4.808   5.697  0.8304  0.1421 -0.5715
 5100TIP3    H236716   6.004   4.759   5.583  3.1300 -1.0147 -1.8928
 5101TIP3   OH236717   3.338   5.103  15.933  0.2876 -0.8444 -0.4314
 5101TIP3    H136718   3.409   5.071  15.989  0.6451  3.1271  1.8026
 5101TIP3    H236719   3.379   5.170  15.879 -1.2661 -0.3808 -1.0969
 5102TIP3   OH236720   3.824   6.274  11.580  0.2124 -0.4137  0.3522
 5102TIP3    H136721   3.801   6.366  11.567  1.2065  0.1806  2.3696
 5102TIP3    H236722   3.907   6.264  11.534  0.4748 -0.0848  0.7453
 5103TIP3   OH236723   4.951   4.493  14.909 -0.0042 -0.5319 -0.0932
 5103TIP3    H136724   4.900   4.413  14.900  0.3893 -0.9791  1.4247
 5103TIP3    H236725   4.886   4.563  14.904 -0.4583 -0.9754 -0.5312
 5104TIP3   OH236726   3.994   2.191  10.981 -0.4696  0.7115 -0.1338
 5104TIP3    H136727   3.921   2.158  11.032 -1.2478  2.4032 -0.1032
 5104TIP3    H236728   4.070   2.179  11.038 -0.6028 -1.4153 -0.3166
 5105TIP3   OH236729   0.230   5.416  16.935  0.2419 -0.2129 -0.1667
 5105TIP3    H136730   0.189   5.340  16.975 -0.2281  0.4728  0.7051
 5105TIP3    H236731   0.243   5.477  17.007 -1.6754  1.5309 -1.1834
 5106TIP3   OH236732   1.587   3.386   4.310 -0.8710  0.5585  0.4313
 5106TIP3    H136733   1.548   3.467   4.343 -1.0795  0.4870  0.3616
 5106TIP3    H236734   1.640   3.354   4.383 -0.5228  0.9276  0.3466
 5107TIP3   OH236735   1.810   0.322  12.136 -0.0495 -0.0698  0.4203
 5107TIP3    H136736   1.822   0.338  12.229  0.2109 -0.2046  0.4120
 5107TIP3    H236737   1.894   0.347  12.097 -0.1549 -0.0202  0.2229
 5108TIP3   OH236738   2.943   4.466   4.010  0.5095 -0.2037 -0.2566
 5108TIP3    H136739   2.908   4.398   4.068 -1.6338 -0.0140 -1.2368
 5108TIP3    H236740   2.934   4.429   3.922 -0.3048  1.1734 -0.7732
 5109TIP3   OH236741   6.664   6.179   2.741 -0.0240 -0.1671 -0.3577
 5109TIP3    H136742   6.598   6.142   2.800  1.7554 -0.3406  1.6513
 5109TIP3    H236743   6.615   6.237   2.683 -1.9999 -0.7211  0.6751
 5110TIP3   OH236744   6.111   5.604   4.359 -0.0058  0.0203  0.3159
 5110TIP3    H136745   6.175   5.674   4.358 -0.4955  0.4793  0.4264
 5110TIP3    H236746   6.155   5.530   4.319  0.0365  0.8196 -1.1714
 5111TIP3   OH236747   3.325   3.803   5.540  0.4581 -0.4348  0.9501
 5111TIP3    H136748   3.357   3.893   5.536  0.2998 -0.2011  3.5247
 5111TIP3    H236749   3.236   3.811   5.574  0.5558 -1.5910  1.5021
 5112TIP3   OH236750   2.292   5.780   3.363  0.2065 -0.2942  0.4203
 5112TIP3    H136751   2.236   5.841   3.411  1.0650 -0.0133  1.0897
 5112TIP3    H236752   2.370   5.830   3.340  0.3936 -0.8037 -0.0917
 5113TIP3   OH236753   6.019   5.220  13.812 -0.0542  0.1368 -0.0780
 5113TIP3    H136754   5.935   5.261  13.833 -0.9054 -0.4999 -1.9958
 5113TIP3    H236755   6.059   5.278  13.748 -0.4566 -1.0429 -1.4616
 5114TIP3   OH236756   3.781   5.375  11.417 -0.2304 -0.2322  0.3818
 5114TIP3    H136757   3.773   5.460  11.461 -0.6420  0.8577 -1.6506
 5114TIP3    H236758   3.748   5.312  11.481  3.2768  0.5881  3.3125
 5115TIP3   OH236759   1.004   2.352   4.120 -0.1647  0.1070 -0.2547
 5115TIP3    H136760   0.986   2.313   4.034  1.3404 -2.4037  0.4851
 5115TIP3    H236761   1.099   2.356   4.125 -0.2326  0.4146  1.2273
 5116TIP3   OH236762   3.127   2.227   2.561  0.3054 -0.0958 -0.2866
 5116TIP3    H136763   3.217   2.258   2.566  0.6360 -1.0452 -0.0074
 5116TIP3    H236764   3.080   2.277   2.628  1.0535 -0.9316  0.8993
 5117TIP3   OH236765   4.637   2.737  11.863 -0.2381 -0.3304 -0.6558
 5117TIP3    H136766   4.557   2.783  11.836 -1.9802 -1.2390  2.4364
 5117TIP3    H236767   4.689   2.803  11.907 -1.1891 -0.5044  0.8096
 5118TIP3   OH236768   4.022   2.132  15.934 -0.2077  0.7114 -0.5689
 5118TIP3    H136769   4.047   2.057  15.880 -1.4964  0.2355 -0.5350
 5118TIP3    H236770   4.058   2.208  15.888  0.2317  0.1621 -1.1489
 5119TIP3   OH236771   4.078   3.353   5.627 -0.4372  0.3523 -0.5063
 5119TIP3    H136772   4.063   3.442   5.660  0.6032  0.5179 -0.4542
 5119TIP3    H236773   4.168   3.333   5.652 -0.1145 -0.0898 -1.9347
 5120TIP3   OH236774   1.858   2.492   0.554  0.6318  0.5670 -0.1357
 5120TIP3    H136775   1.945   2.486   0.593 -0.7603 -0.7783  3.1753
 5120TIP3    H236776   1.837   2.585   0.554  0.7066  0.6468  2.5850
 5121TIP3   OH236777   2.877   2.493  14.127 -0.1932 -0.6830  0.4984
 5121TIP3    H136778   2.890   2.582  14.095 -4.9166 -0.3561 -1.3118
 5121TIP3    H236779   2.901   2.437  14.052  1.1873 -0.8891  1.0669
 5122TIP3   OH236780   1.211   3.734   1.370  0.2520 -0.1624 -0.2103
 5122TIP3    H136781   1.221   3.826   1.345  1.1716 -0.0524  0.5043
 5122TIP3    H236782   1.235   3.731   1.463 -1.0531 -0.9095  0.1262
 5123TIP3   OH236783   2.510   0.860  11.193  0.2069 -0.1627  0.2872
 5123TIP3    H136784   2.438   0.797  11.195 -0.5696  0.7156  2.5616
 5123TIP3    H236785   2.560   0.837  11.114 -0.8464 -2.6839  0.2787
 5124TIP3   OH236786   1.807   1.716  11.580  0.3776  0.5745  0.3120
 5124TIP3    H136787   1.836   1.807  11.576  2.1681  0.0100 -0.2583
 5124TIP3    H236788   1.744   1.715  11.653  0.3783  2.2336  0.3819
 5125TIP3   OH236789   5.966   2.543   4.957  0.2531  0.0902  0.3326
 5125TIP3    H136790   6.027   2.470   4.945  1.4403  1.3153 -1.7922
 5125TIP3    H236791   5.885   2.514   4.916  0.2991 -0.4907  0.6445
 5126TIP3   OH236792   1.832   6.416   3.850  0.2521 -0.6440 -0.3866
 5126TIP3    H136793   1.792   6.499   3.825  0.3494 -0.5118 -0.1086
 5126TIP3    H236794   1.762   6.351   3.842 -0.0782 -0.3816  0.2999
 5127TIP3   OH236795   5.721   4.922  12.879 -0.4610  0.0592 -0.7410
 5127TIP3    H136796   5.691   4.844  12.924 -0.2473 -0.6412 -1.7771
 5127TIP3    H236797   5.670   4.924  12.797 -0.8424  1.2920 -0.4952
 5128TIP3   OH236798   0.391   2.908   2.415  0.4910  0.6044  0.6983
 5128TIP3    H136799   0.474   2.949   2.437 -0.0580  2.7677 -0.9312
 5128TIP3    H236800   0.407   2.863   2.332  0.3384 -0.0505  1.0143
 5129TIP3   OH236801   2.684   2.013  12.508 -0.3316 -0.0837  0.0298
 5129TIP3    H136802   2.753   2.078  12.495 -0.5777  0.0086 -0.8533
 5129TIP3    H236803   2.603   2.064  12.508 -0.5427 -0.4003 -0.8848
 5130TIP3   OH236804   0.768   4.401   0.333  0.1043 -0.0563  0.1922
 5130TIP3    H136805   0.804   4.456   0.402  0.9075  0.9525 -0.9910
 5130TIP3    H236806   0.843   4.348   0.304  0.3118  0.9720 -1.2525
 5131TIP3   OH236807   4.094   2.204  11.365  0.5493  0.1443  0.2454
 5131TIP3    H136808   4.093   2.297  11.340 -0.0203  0.4852  1.4757
 5131TIP3    H236809   4.121   2.158  11.285  0.1588  1.3052 -0.5765
 5132TIP3   OH236810   1.314   3.582   5.332  0.1399  0.5100 -0.4288
 5132TIP3    H136811   1.373   3.656   5.317  0.1627  0.5601 -0.1000
 5132TIP3    H236812   1.330   3.523   5.258  0.1963  0.7853 -0.6365
 5133TIP3   OH236813   4.322   4.205  15.709  0.1290 -1.0837 -0.3743
 5133TIP3    H136814   4.277   4.142  15.766 -1.1335  0.0894 -0.0115
 5133TIP3    H236815   4.350   4.154  15.634  1.6077 -2.6434  1.1368
 5134TIP3   OH236816   6.743   0.910  13.611  0.7341  0.5529  0.2218
 5134TIP3    H136817   6.695   0.863  13.543  0.5235  0.9222  0.1157
 5134TIP3    H236818   6.705   0.880  13.693  0.5919  0.5480  0.1539
 5135TIP3   OH236819   3.734   2.522  14.780 -0.6320 -0.1752 -0.3647
 5135TIP3    H136820   3.713   2.440  14.824 -3.1528  0.3393 -0.4700
 5135TIP3    H236821   3.696   2.590  14.835 -0.4933  0.7741 -1.3968
 5136TIP3   OH236822   3.535   5.720   5.854  0.4425  0.1667  0.3149
 5136TIP3    H136823   3.461   5.733   5.795 -0.3603 -0.9432  1.0396
 5136TIP3    H236824   3.559   5.808   5.883 -0.8186  0.5225  0.3181
 5137TIP3   OH236825   5.820   4.943   3.700 -0.0439 -0.5537 -0.4589
 5137TIP3    H136826   5.829   5.011   3.767  1.0850 -1.7069  0.6230
 5137TIP3    H236827   5.756   4.978   3.639 -0.2122  1.0636  0.5781
 5138TIP3   OH236828   6.530   6.347   5.509  0.2653  0.0355  0.4872
 5138TIP3    H136829   6.580   6.402   5.569 -0.2838 -0.2335  1.1944
 5138TIP3    H236830   6.445   6.390   5.503 -0.3073 -0.9401  1.3571
 5139TIP3   OH236831   4.421   6.317  13.142  0.5525 -0.1757 -0.1931
 5139TIP3    H136832   4.326   6.326  13.132  0.2675 -3.0027 -0.7433
 5139TIP3    H236833   4.457   6.378  13.077 -0.8338  1.1574  0.2221
 5140TIP3   OH236834   3.026   2.341   0.779  0.0178 -0.2029  0.1768
 5140TIP3    H136835   3.034   2.326   0.685  0.5270 -1.4875  0.3952
 5140TIP3    H236836   3.002   2.433   0.788  2.4297  0.6363 -1.1062
 5141TIP3   OH236837   2.787   6.638   1.527 -0.0516 -0.0998 -0.2298
 5141TIP3    H136838   2.713   6.636   1.588  0.1180  0.7120  0.0239
 5141TIP3    H236839   2.753   6.602   1.445 -0.6621  0.0521 -0.0439
 5142TIP3   OH236840   6.646   2.929   1.241 -0.2875  0.3537  0.2618
 5142TIP3    H136841   6.564   2.900   1.279 -1.5108  2.3665 -0.6859
 5142TIP3    H236842   6.647   3.024   1.254  1.3143  0.5412 -0.8328
 5143TIP3   OH236843   5.285   0.428  12.049  0.8926 -0.0494  0.5499
 5143TIP3    H136844   5.318   0.385  12.128  1.2076 -0.1602  0.3576
 5143TIP3    H236845   5.208   0.377  12.024 -0.1353  0.8679  1.6455
 5144TIP3   OH236846   1.037   3.474   2.101  0.3101  0.0795  0.4376
 5144TIP3    H136847   1.107   3.411   2.121  0.7674 -0.7011 -3.0877
 5144TIP3    H236848   1.075   3.533   2.036 -1.4178  1.5410  0.6652
 5145TIP3   OH236849   0.055   2.010   4.390 -0.2531 -0.1836  0.1929
 5145TIP3    H136850   0.115   2.035   4.320  0.5347 -2.1672  0.0782
 5145TIP3    H236851  -0.020   1.972   4.345  0.1952 -1.3374  0.3725
 5146TIP3   OH236852   1.914   1.790   0.608 -0.3042  0.0275  0.4148
 5146TIP3    H136853   1.949   1.732   0.675 -1.4773 -1.8789 -0.5488
 5146TIP3    H236854   1.968   1.772   0.531 -0.8315  0.0177  0.0440
 5147TIP3   OH236855   1.841   4.349  12.830 -0.7628  0.2727  0.2499
 5147TIP3    H136856   1.802   4.432  12.856  0.8810  1.5832 -1.3021
 5147TIP3    H236857   1.835   4.348  12.735 -0.1676 -1.0923  0.2035
 5148TIP3   OH236858   5.542   5.954  11.865  0.2799 -0.7123  0.0564
 5148TIP3    H136859   5.485   5.894  11.817  0.3493 -0.7975  0.0789
 5148TIP3    H236860   5.605   5.985  11.800  0.7696 -1.3190  0.2266
 5149TIP3   OH236861   0.405   3.757  12.516  0.0323 -0.3662  0.4459
 5149TIP3    H136862   0.469   3.691  12.489  0.6426 -0.1409  1.3161
 5149TIP3    H236863   0.353   3.713  12.584  0.8525  0.2227  1.4924
 5150TIP3   OH236864   4.069   5.980  16.898 -0.7108  0.1840  0.4361
 5150TIP3    H136865   4.143   6.013  16.949 -0.2471 -0.0064 -0.1056
 5150TIP3    H236866   4.093   5.996  16.807 -1.4250  0.2962  0.2559
 5151TIP3   OH236867   0.754   0.032   5.196 -0.2520 -0.2940 -0.4312
 5151TIP3    H136868   0.775   0.125   5.206 -0.3337 -0.0918 -1.9957
 5151TIP3    H236869   0.687   0.029   5.128 -0.7832 -1.4565  0.1151
 5152TIP3   OH236870   1.508   5.529   1.651  0.0841  0.5292 -0.9403
 5152TIP3    H136871   1.568   5.510   1.723 -0.5420  1.1026 -0.2508
 5152TIP3    H236872   1.564   5.564   1.582  0.7881 -0.6586 -1.0071
 5153TIP3   OH236873   4.924   0.757  15.077  0.7523  0.2183 -0.1640
 5153TIP3    H136874   4.883   0.838  15.108 -0.2894 -0.0346 -0.8275
 5153TIP3    H236875   4.851   0.705  15.043  1.2013 -1.6304  1.5330
 5154TIP3   OH236876   1.932   0.156  16.416 -0.1856  0.9572 -0.1630
 5154TIP3    H136877   1.912   0.069  16.382  2.6127 -0.3441  1.1475
 5154TIP3    H236878   1.951   0.208  16.338 -0.2395 -0.1084 -0.9082
 5155TIP3   OH236879   3.242   6.440   3.750  0.4147  0.0489 -0.2861
 5155TIP3    H136880   3.184   6.479   3.816 -0.7931  2.1026 -2.3965
 5155TIP3    H236881   3.186   6.431   3.673  1.9696 -1.5577 -1.2858
 5156TIP3   OH236882   5.743   2.876  15.557  0.0552  0.1779  0.1859
 5156TIP3    H136883   5.812   2.835  15.610 -0.1897 -1.1711 -0.5023
 5156TIP3    H236884   5.697   2.803  15.517 -1.8208  1.0587  0.6486
 5157TIP3   OH236885   3.010   5.071  13.194 -0.2300  0.2578 -0.1210
 5157TIP3    H136886   3.013   5.122  13.113  0.4441  0.1946 -0.1384
 5157TIP3    H236887   3.102   5.056  13.216 -0.4206 -0.3554  0.2601
 5158TIP3   OH236888   2.454   6.413  15.071 -0.7532  0.2741 -0.1785
 5158TIP3    H136889   2.531   6.365  15.039  0.2022  2.8730 -2.0646
 5158TIP3    H236890   2.414   6.450  14.992 -3.0669  0.3110  0.9315
 5159TIP3   OH236891   2.895   1.938  10.917  0.1081  0.8916 -1.1167
 5159TIP3    H136892   2.925   1.847  10.927 -0.6392  0.7540  0.0640
 5159TIP3    H236893   2.857   1.941  10.829  1.3729  0.4384 -1.7082
 5160TIP3   OH236894   0.873   5.826   4.701 -0.1655  0.5329 -0.5329
 5160TIP3    H136895   0.917   5.742   4.713  1.2079  1.4721  1.6861
 5160TIP3    H236896   0.934   5.877   4.648 -0.5795  0.4325 -1.1088
 5161TIP3   OH236897   2.395   6.114   4.953  0.5737 -0.4761  0.1729
 5161TIP3    H136898   2.468   6.113   5.014  1.3829  0.3789 -0.7612
 5161TIP3    H236899   2.383   6.022   4.928  1.5582 -0.5757  0.0588
 5162TIP3   OH236900   5.908   5.691   4.808 -0.1713  0.0983 -0.1315
 5162TIP3    H136901   5.895   5.784   4.792  1.1715  0.0494 -1.7771
 5162TIP3    H236902   5.829   5.649   4.772 -1.0235  0.5921  1.0900
 5163TIP3   OH236903   6.594   2.266   4.440 -0.3733  0.2589 -0.0197
 5163TIP3    H136904   6.671   2.221   4.405 -0.1404  0.4897  0.1975
 5163TIP3    H236905   6.628   2.322   4.510 -0.4750  1.6838 -1.0539
 5164TIP3   OH236906   5.505   3.772  11.174 -0.0663 -0.0491  0.3487
 5164TIP3    H136907   5.502   3.848  11.116 -0.3404 -0.3371 -0.0138
 5164TIP3    H236908   5.595   3.738  11.166 -0.3930 -0.6940 -0.6879
 5165TIP3   OH236909   1.184   6.252  16.918  0.1887 -0.2695  0.8416
 5165TIP3    H136910   1.113   6.211  16.968  0.5320 -1.8724  0.0616
 5165TIP3    H236911   1.174   6.219  16.829  1.2837  0.2975  0.4851
 5166TIP3   OH236912   4.430   2.118  11.296 -0.0148  0.2907 -0.1972
 5166TIP3    H136913   4.432   2.063  11.373 -1.9113 -0.9242 -0.9513
 5166TIP3    H236914   4.510   2.171  11.302  0.7773 -1.0233  1.6334
 5167TIP3   OH236915   6.100   2.986   1.565 -0.5060 -0.0212 -0.2064
 5167TIP3    H136916   6.014   2.953   1.592 -0.3547  0.2327  0.6005
 5167TIP3    H236917   6.112   3.066   1.615  0.3570 -0.2320 -0.0638
 5168TIP3   OH236918   5.175   5.707  15.039  0.1818  0.2519  0.2782
 5168TIP3    H136919   5.086   5.710  15.073  0.8418  0.1680  2.1406
 5168TIP3    H236920   5.188   5.792  14.997 -0.2890  0.8609  1.3338
 5169TIP3   OH236921   5.459   5.283  17.146 -0.1212 -0.1930 -0.1104
 5169TIP3    H136922   5.519   5.308  17.216 -0.9285  0.2347  0.4501
 5169TIP3    H236923   5.470   5.188  17.138 -1.8109 -0.6948  2.3770
 5170TIP3   OH236924   2.989   0.484  14.482 -0.0334  0.3187 -0.2216
 5170TIP3    H136925   2.920   0.445  14.428  1.2426 -0.7387 -1.1635
 5170TIP3    H236926   3.069   0.471  14.431  0.8690  1.5175  0.8369
 5171TIP3   OH236927   1.399   3.112  12.591  0.0204  0.2257 -0.0554
 5171TIP3    H136928   1.348   3.069  12.523  0.2241 -0.9142  0.4852
 5171TIP3    H236929   1.449   3.041  12.633  0.3595  0.9807  0.8750
 5172TIP3   OH236930   0.470   2.968  16.478  0.4275 -0.1554  0.0296
 5172TIP3    H136931   0.435   2.908  16.543 -0.4098 -0.0161 -0.2763
 5172TIP3    H236932   0.448   2.928  16.394 -0.6591  0.8380 -0.1833
 5173TIP3   OH236933   3.278   2.299   5.522 -0.2391  0.3536 -0.4722
 5173TIP3    H136934   3.270   2.372   5.461  1.5537  0.6368 -0.4221
 5173TIP3    H236935   3.307   2.339   5.604  1.7438 -0.4845 -0.7239
 5174TIP3   OH236936   1.327   2.991  12.358 -0.1575  0.3295  0.2041
 5174TIP3    H136937   1.378   2.923  12.314 -0.1941  0.8413 -0.6489
 5174TIP3    H236938   1.306   3.054  12.290 -3.5316 -0.7468  0.0298
 5175TIP3   OH236939   3.201   1.423   2.735  0.0969 -0.1514 -0.3086
 5175TIP3    H136940   3.220   1.517   2.739  0.5974 -0.2561 -0.0924
 5175TIP3    H236941   3.208   1.393   2.826  0.9082 -0.5778 -0.5042
 5176TIP3   OH236942   1.350   5.119  16.361 -0.4890 -1.0855  0.1670
 5176TIP3    H136943   1.348   5.205  16.402  0.7987 -1.0182  0.1365
 5176TIP3    H236944   1.258   5.091  16.359 -0.6703 -0.8487  2.5308
 5177TIP3   OH236945   3.703   2.281   2.824 -0.4566  0.1509 -0.0700
 5177TIP3    H136946   3.710   2.327   2.740  2.3198  1.7212  0.8891
 5177TIP3    H236947   3.786   2.298   2.868 -1.4076 -1.4580  2.6144
 5178TIP3   OH236948   3.553   6.524   0.354  0.3955 -0.0213 -0.0802
 5178TIP3    H136949   3.643   6.497   0.373  1.1101  0.9550 -1.7871
 5178TIP3    H236950   3.532   6.479   0.272 -0.6061 -0.0792  0.2025
 5179TIP3   OH236951   2.325   4.141  11.274 -0.3044 -0.0184 -0.7965
 5179TIP3    H136952   2.420   4.154  11.280 -0.6390  2.4962  0.4228
 5179TIP3    H236953   2.314   4.073  11.208  2.3231 -0.1262 -1.2249
 5180TIP3   OH236954   5.865   1.773   3.205 -0.4129 -0.3781 -0.1926
 5180TIP3    H136955   5.833   1.778   3.115 -0.8539 -0.8845 -0.0747
 5180TIP3    H236956   5.794   1.730   3.253  0.1993 -0.9650  0.2048
 5181TIP3   OH236957   2.350   5.967   4.525  0.2493 -0.2682 -0.0705
 5181TIP3    H136958   2.324   5.884   4.484  1.4023 -0.7297  0.0831
 5181TIP3    H236959   2.443   5.955   4.544  0.3566  0.9635  0.2187
 5182TIP3   OH236960   6.097   2.835   4.604 -0.1193 -0.2136  0.0484
 5182TIP3    H136961   6.109   2.930   4.602  1.4291 -0.3879 -0.3399
 5182TIP3    H236962   6.170   2.804   4.658 -0.5520 -1.1988  0.0737
 5183TIP3   OH236963   0.183   5.944   4.389  0.2595  0.4712 -0.0819
 5183TIP3    H136964   0.229   5.972   4.468  0.7045 -0.7880  0.1343
 5183TIP3    H236965   0.192   5.848   4.389  0.1655  0.4427 -1.5933
 5184TIP3   OH236966   4.196   3.606   4.155  0.2690 -0.8744 -0.1177
 5184TIP3    H136967   4.156   3.525   4.185 -0.1859 -0.3942  0.6105
 5184TIP3    H236968   4.146   3.629   4.076 -1.6657  0.2500  1.3355
 5185TIP3   OH236969   0.495   4.093   4.980 -0.0318 -0.3825  0.1599
 5185TIP3    H136970   0.559   4.159   5.006 -0.4425  0.0980 -0.0348
 5185TIP3    H236971   0.463   4.056   5.062 -0.3318  0.1762  0.2992
 5186TIP3   OH236972   6.199   6.437   2.621  0.0809  0.3030  0.2477
 5186TIP3    H136973   6.125   6.488   2.651 -0.2374 -0.7929  1.4160
 5186TIP3    H236974   6.170   6.346   2.628  1.0736 -0.1004 -0.5352
 5187TIP3   OH236975   0.934   2.358  13.871 -0.4411  0.0291 -0.1730
 5187TIP3    H136976   0.978   2.275  13.888 -2.3595 -0.9754  0.1133
 5187TIP3    H236977   0.973   2.419  13.934  0.8653 -0.6749 -0.2684
 5188TIP3   OH236978   4.051   2.366   3.162  0.3705  0.0913  0.3232
 5188TIP3    H136979   4.125   2.336   3.215 -1.5870 -1.4583  2.4494
 5188TIP3    H236980   3.985   2.392   3.227 -1.1690  0.8116 -1.4535
 5189TIP3   OH236981   2.294   5.311   6.589  0.2798  0.3452 -0.3746
 5189TIP3    H136982   2.373   5.288   6.639  1.1286  1.8608 -0.9507
 5189TIP3    H236983   2.259   5.387   6.634 -1.2419 -0.6687  0.2287
 5190TIP3   OH236984   2.938   3.119   1.876  0.2714 -0.2235 -0.4256
 5190TIP3    H136985   2.892   3.190   1.831  0.8142 -0.3248 -1.1618
 5190TIP3    H236986   2.926   3.043   1.818  0.5122 -0.4912 -0.1239
 5191TIP3   OH236987   6.620   3.212   0.427 -0.2464 -0.3645 -0.2007
 5191TIP3    H136988   6.699   3.260   0.452  0.4125 -1.8947  0.8512
 5191TIP3    H236989   6.552   3.243   0.486 -0.0656 -0.0593 -0.1536
 5192TIP3   OH236990   0.820   2.048   4.367  0.5215  0.6085 -0.6345
 5192TIP3    H136991   0.734   2.073   4.333  0.0585  0.7464  0.5839
 5192TIP3    H236992   0.882   2.100   4.316 -0.2572  2.1196 -0.0829
 5193TIP3   OH236993   3.450   1.979   0.819  0.5341  0.2841 -0.0091
 5193TIP3    H136994   3.476   1.901   0.867  0.9635  0.5609  0.2160
 5193TIP3    H236995   3.363   1.959   0.785 -0.0471  0.3142  1.4056
 5194TIP3   OH236996   2.922   1.316   2.812  0.1411 -0.1649  0.8118
 5194TIP3    H136997   2.999   1.332   2.866 -1.8023  2.8532  3.0426
 5194TIP3    H236998   2.920   1.390   2.751  0.7042 -1.9857 -1.5337
 5195TIP3   OH236999   4.422   4.617  16.949 -1.0098 -0.0512  0.3971
 5195TIP3    H137000   4.368   4.677  17.001 -2.1500  0.1982 -1.0252
 5195TIP3    H237001   4.363   4.547  16.922 -0.2197 -0.6627  0.1847
 5196TIP3   OH237002   2.517   1.014  11.560  0.3893 -0.2670  0.7525
 5196TIP3    H137003   2.440   0.994  11.614 -2.5348 -2.4997 -3.6219
 5196TIP3    H237004   2.508   1.106  11.537  0.6449  0.2030  2.3972
 5197TIP3   OH237005   5.753   6.517   5.344  0.5172 -0.1417 -0.3258
 5197TIP3    H137006   5.831   6.555   5.304 -0.2624  1.6181 -0.2633
 5197TIP3    H237007   5.689   6.588   5.344 -0.7434 -1.2273  0.5939
 5198TIP3   OH237008   5.975   0.510  14.818 -0.2013 -0.4466 -0.7824
 5198TIP3    H137009   5.887   0.505  14.856 -0.0139 -1.6619 -0.4696
 5198TIP3    H237010   6.005   0.598  14.839 -1.4089  0.0543 -1.0565
 5199TIP3   OH237011   4.876   4.002  17.169  0.2615  0.8169 -0.6773
 5199TIP3    H137012   4.942   3.960  17.113  0.2962  0.5638 -0.4505
 5199TIP3    H237013   4.867   4.090  17.133  1.8343  1.3720  0.2013
 5200TIP3   OH237014   3.726   5.693  12.648 -0.0622  0.6533  0.4355
 5200TIP3    H137015   3.651   5.702  12.707 -1.3719 -2.0949 -0.6610
 5200TIP3    H237016   3.706   5.752  12.575 -1.2900 -0.1723  0.0745
 5201TIP3   OH237017   6.250   3.438  14.907  0.2798  0.0049 -0.2369
 5201TIP3    H137018   6.335   3.474  14.932  0.3847  0.0761 -0.6780
 5201TIP3    H237019   6.246   3.353  14.949 -0.1707  0.7213  1.2175
 5202TIP3   OH237020   6.752   6.512  13.486 -0.1171 -0.2451 -0.2721
 5202TIP3    H137021   6.756   6.463  13.404 -0.0439  0.8850 -0.9697
 5202TIP3    H237022   6.817   6.581  13.476  0.6680 -0.7363  1.1961
 5203TIP3   OH237023   0.723   5.994  16.306 -0.0028  0.5184 -0.4908
 5203TIP3    H137024   0.812   6.013  16.277  0.4364 -1.1244 -0.3121
 5203TIP3    H237025   0.668   6.053  16.255  1.1601  1.4360 -0.7314
 5204TIP3   OH237026   5.157   2.086   2.442  0.4877  0.3757  0.6053
 5204TIP3    H137027   5.180   2.041   2.361  2.4480  0.4678  1.0481
 5204TIP3    H237028   5.069   2.056   2.462  0.3280 -0.3831 -1.0562
 5205TIP3   OH237029   2.082   1.544  16.024  0.1733  0.5691  0.0903
 5205TIP3    H137030   2.004   1.491  16.040  0.4432  0.0224 -0.3763
 5205TIP3    H237031   2.049   1.634  16.019 -0.9050  0.1062 -2.9745
 5206TIP3   OH237032   5.489   0.410   2.296 -0.0084  0.4496 -0.1273
 5206TIP3    H137033   5.574   0.366   2.295 -0.4304 -0.3725 -1.1752
 5206TIP3    H237034   5.462   0.413   2.204 -1.7118 -0.5189  0.2958
 5207TIP3   OH237035   3.038   4.351  11.101  0.0640 -0.4046  0.1542
 5207TIP3    H137036   3.026   4.400  11.182  0.8823  0.7812 -0.4105
 5207TIP3    H237037   3.071   4.416  11.039 -2.1004 -0.8792 -1.6113
 5208TIP3   OH237038   3.086   3.630   2.258 -0.0650 -0.1629  0.2659
 5208TIP3    H137039   3.102   3.572   2.333 -0.2909 -0.8834 -0.2310
 5208TIP3    H237040   3.153   3.698   2.266 -0.0488 -0.2610  1.0856
 5209TIP3   OH237041   0.299   6.548   4.473  0.0270  0.5367  0.0658
 5209TIP3    H137042   0.388   6.576   4.451 -0.2068  1.9460  0.7919
 5209TIP3    H237043   0.302   6.532   4.567 -1.0582  3.0953  0.6180
 5210TIP3   OH237044   0.173   5.412   5.489 -0.4835 -0.3478 -0.0470
 5210TIP3    H137045   0.120   5.491   5.494  0.6369  0.5286 -1.2968
 5210TIP3    H237046   0.134   5.361   5.418  1.0170  0.9151 -1.9023
 5211TIP3   OH237047   5.200   1.565   0.046  0.2806 -0.1137  0.0070
 5211TIP3    H137048   5.208   1.660   0.049  0.8987 -0.1721  0.3743
 5211TIP3    H237049   5.289   1.534   0.026 -0.1674 -0.5565 -1.4986
 5212TIP3   OH237050   3.333   2.129   3.018  0.0903  0.7786  0.3677
 5212TIP3    H137051   3.357   2.165   2.933 -0.2815  0.6278  0.1986
 5212TIP3    H237052   3.239   2.110   3.011  0.3596 -0.6305  0.3106
 5213TIP3   OH237053   2.009   5.091  13.984  0.4341  0.2380  0.0212
 5213TIP3    H137054   2.078   5.038  14.025 -1.5073 -1.7992  0.8633
 5213TIP3    H237055   2.044   5.114  13.898  1.0624 -3.3725 -0.8618
 5214TIP3   OH237056   1.809   5.948  10.642 -0.0061 -0.4059 -0.6769
 5214TIP3    H137057   1.746   5.928  10.573 -1.0253 -2.3724  0.7359
 5214TIP3    H237058   1.832   5.863  10.680 -0.3307  0.6234  2.1044
 5215TIP3   OH237059   1.086   5.775   6.829  0.2367 -0.3160 -0.3151
 5215TIP3    H137060   1.172   5.761   6.869  0.4061 -0.5843 -0.7662
 5215TIP3    H237061   1.045   5.688   6.829 -0.2973 -0.0720  0.4863
 5216TIP3   OH237062   5.261   3.950   5.313 -0.2239 -0.6155  0.3459
 5216TIP3    H137063   5.314   3.871   5.300 -0.6102 -0.8555  0.2266
 5216TIP3    H237064   5.302   4.015   5.257 -1.5674 -1.4896 -1.7827
 5217TIP3   OH237065   6.469   0.016  15.938  0.4781  0.1637 -0.3608
 5217TIP3    H137066   6.492   0.109  15.926 -1.9259  0.8052 -0.5471
 5217TIP3    H237067   6.394   0.018  15.998 -0.7390 -1.5041 -1.7352
 5218TIP3   OH237068   3.987   0.688  16.090  0.2271  0.2726 -0.0348
 5218TIP3    H137069   3.940   0.606  16.075 -0.3472  0.4340  0.7825
 5218TIP3    H237070   3.955   0.748  16.022  1.1136 -0.3556 -1.0261
 5219TIP3   OH237071   0.665   3.237  16.968 -0.9230 -0.4720 -0.1672
 5219TIP3    H137072   0.649   3.216  16.876  2.9021  0.4230 -1.2122
 5219TIP3    H237073   0.704   3.158  17.005  1.1342  0.3546 -0.4576
 5220TIP3   OH237074   5.669   1.332  14.265  0.0929  0.3130  0.0201
 5220TIP3    H137075   5.755   1.340  14.223 -0.3908 -2.1370 -1.6558
 5220TIP3    H237076   5.679   1.258  14.325 -0.3115  1.3532  1.4165
 5221TIP3   OH237077   0.845   5.743  16.842 -0.1890  0.6599  0.2661
 5221TIP3    H137078   0.894   5.769  16.764  0.5501 -0.5479  0.3116
 5221TIP3    H237079   0.769   5.695  16.809 -0.3980  0.9794  0.2684
 5222TIP3   OH237080   0.992   0.924  15.106  0.6164  0.3262 -0.3695
 5222TIP3    H137081   1.002   0.967  15.020 -0.1130  1.7993  0.2425
 5222TIP3    H237082   1.045   0.978  15.165 -1.8923  1.6663  0.8039
 5223TIP3   OH237083   5.650   4.264   0.855  0.0878 -0.3289 -0.3331
 5223TIP3    H137084   5.554   4.265   0.851  0.1156 -0.8220 -2.0422
 5223TIP3    H237085   5.672   4.171   0.861  0.4571 -0.1567  1.4196
 5224TIP3   OH237086   1.964   2.629  13.484  0.1158  0.3167  0.7351
 5224TIP3    H137087   1.896   2.600  13.545 -0.2558 -1.4982 -0.4557
 5224TIP3    H237088   1.939   2.718  13.460 -0.9746  0.2266  1.4990
 5225TIP3   OH237089   1.693   6.188   0.596  0.0578 -0.7484 -0.2369
 5225TIP3    H137090   1.756   6.158   0.661  0.4872  0.0422 -0.2820
 5225TIP3    H237091   1.743   6.245   0.538 -0.4986 -0.8277 -0.8041
 5226TIP3   OH237092   1.789   6.649  10.454 -0.0747  0.6528  0.7838
 5226TIP3    H137093   1.797   6.595  10.533 -1.6111 -0.7428  0.0342
 5226TIP3    H237094   1.735   6.723  10.481 -0.6912  0.1231  1.0240
 5227TIP3   OH237095   0.743   2.431  11.292  0.2516 -0.2147  0.1194
 5227TIP3    H137096   0.727   2.444  11.199  1.0089  0.3968  0.0638
 5227TIP3    H237097   0.728   2.517  11.331  4.9663  0.9992 -0.1946
 5228TIP3   OH237098   6.507   2.932   0.612 -0.2431  0.8098 -0.1913
 5228TIP3    H137099   6.459   2.890   0.684 -2.0974  1.5661 -0.9062
 5228TIP3    H237100   6.504   3.026   0.634  1.0465  0.8736 -0.2156
 5229TIP3   OH237101   4.885   0.317   4.490  0.2510 -0.5124  0.1692
 5229TIP3    H137102   4.954   0.328   4.425  1.0096  0.8554  1.1619
 5229TIP3    H237103   4.846   0.404   4.498  1.6071 -0.0596  3.0651
 5230TIP3   OH237104   4.726   0.089   2.997 -0.5663 -0.2059  0.1874
 5230TIP3    H137105   4.689   0.129   3.075  0.5814  0.2636  0.5158
 5230TIP3    H237106   4.669   0.118   2.925 -0.3129  1.2617  0.5442
 5231TIP3   OH237107   4.688   2.181   3.642 -0.1660  0.5706  0.3641
 5231TIP3    H137108   4.778   2.201   3.669  0.0512  1.0512 -0.6450
 5231TIP3    H237109   4.698   2.125   3.565 -0.7661 -0.8211  1.2522
 5232TIP3   OH237110   0.986   4.117   4.478 -0.5208 -0.0148 -0.3884
 5232TIP3    H137111   0.960   4.112   4.570  0.3617  0.7541 -0.0903
 5232TIP3    H237112   1.070   4.071   4.474 -1.6906 -2.2600 -1.3039
 5233TIP3   OH237113   0.699   0.202  16.107 -0.1279 -0.2187  0.6197
 5233TIP3    H137114   0.776   0.174  16.057 -0.3881 -0.6779  0.4675
 5233TIP3    H237115   0.680   0.127  16.164 -0.7077 -0.2634  0.3635
 5234TIP3   OH237116   0.439   6.392   6.092  0.4987  0.4282 -0.1055
 5234TIP3    H137117   0.418   6.303   6.121 -1.0022  0.9984  0.7051
 5234TIP3    H237118   0.521   6.414   6.135  0.8602 -0.5405 -0.2862
 5235TIP3   OH237119   4.798   5.188   1.673 -0.3765  0.2274  0.5691
 5235TIP3    H137120   4.796   5.281   1.651 -0.1238  0.7926  2.7522
 5235TIP3    H237121   4.712   5.156   1.645 -0.5182  1.1301 -0.0952
 5236TIP3   OH237122   2.758   1.567  12.062  0.1484  0.6164 -0.4383
 5236TIP3    H137123   2.751   1.526  12.148  0.2418  0.1335 -0.6599
 5236TIP3    H237124   2.701   1.644  12.068 -0.1770  0.3544 -0.0835
 5237TIP3   OH237125   1.539   3.735  16.693  0.6805  0.2698  0.1169
 5237TIP3    H137126   1.558   3.641  16.702  0.0979  0.0674 -0.5830
 5237TIP3    H237127   1.533   3.748  16.598 -3.7319  0.0129  0.1486
 5238TIP3   OH237128   1.055   2.969  14.687 -0.5029  0.0374  0.2398
 5238TIP3    H137129   1.087   2.885  14.654 -0.4531 -0.4316  1.4356
 5238TIP3    H237130   0.969   2.949  14.723 -0.5451  0.5332  0.4199
 5239TIP3   OH237131   3.023   2.089   2.346 -0.4994 -0.0768  0.0469
 5239TIP3    H137132   3.066   2.132   2.419 -1.5135  0.8222  0.1311
 5239TIP3    H237133   2.980   2.013   2.386 -1.8671  0.9454  0.5883
 5240TIP3   OH237134   5.632   3.696   3.393 -0.7260 -0.0262 -0.3913
 5240TIP3    H137135   5.696   3.710   3.323 -0.6285 -0.0497 -0.3079
 5240TIP3    H237136   5.678   3.720   3.473 -0.7176 -0.3438 -0.2983
 5241TIP3   OH237137   6.561   0.924  13.327  0.1527 -0.1245  0.2020
 5241TIP3    H137138   6.487   0.969  13.286  0.0632  0.4682  0.9856
 5241TIP3    H237139   6.577   0.848  13.271 -1.5292 -0.6867  0.4340
 5242TIP3   OH237140   5.005   2.713   5.395  0.1688  0.4628  0.4308
 5242TIP3    H137141   5.030   2.798   5.359  1.3401  0.9545  2.2606
 5242TIP3    H237142   4.910   2.708   5.381  0.4862  0.6383 -2.4766
 5243TIP3   OH237143   5.401   0.751  11.101  0.2323  0.2858  0.1441
 5243TIP3    H137144   5.405   0.667  11.055  1.6914  1.4555 -2.0484
 5243TIP3    H237145   5.405   0.816  11.031 -2.9126  2.2598  1.6009
 5244TIP3   OH237146   6.769   4.560  12.338 -0.6766  0.2244  0.2588
 5244TIP3    H137147   6.768   4.561  12.433 -0.7525  1.1332  0.2555
 5244TIP3    H237148   6.767   4.467  12.315 -0.8595  0.0022  1.1350
 5245TIP3   OH237149   2.165   3.097   1.213 -0.3445 -0.1480  0.3284
 5245TIP3    H137150   2.235   3.120   1.274  1.0352 -0.3473 -1.1213
 5245TIP3    H237151   2.136   3.011   1.242 -0.8873  0.4626  1.6971
 5246TIP3   OH237152   4.679   6.223   3.242 -0.1969  0.6982 -0.2450
 5246TIP3    H137153   4.721   6.242   3.159 -0.7223  1.5598 -0.3202
 5246TIP3    H237154   4.657   6.309   3.278 -1.1050  0.2892  0.1966
 5247TIP3   OH237155   3.255   2.493   0.569 -0.0564  0.4428  0.9409
 5247TIP3    H137156   3.280   2.505   0.477 -0.7956  2.1738  0.9199
 5247TIP3    H237157   3.194   2.419   0.568  0.9603 -0.4221  0.2595
 5248TIP3   OH237158   0.427   3.795   0.657 -0.3271 -0.5383 -0.2796
 5248TIP3    H137159   0.444   3.740   0.581 -3.0792 -2.4741  0.3702
 5248TIP3    H237160   0.383   3.872   0.621 -0.6681 -0.9516 -0.7633
 5249TIP3   OH237161   2.291   4.009   2.842  0.7432 -0.4541 -0.4734
 5249TIP3    H137162   2.313   4.041   2.754  0.7205 -0.0611 -0.3412
 5249TIP3    H237163   2.303   3.915   2.837 -1.1222 -0.6916 -1.4560
 5250TIP3   OH237164   6.730   4.647  13.985  0.1051  0.0569  0.2834
 5250TIP3    H137165   6.758   4.691  13.905  0.6755  0.3081  0.6164
 5250TIP3    H237166   6.807   4.597  14.014 -0.0506  0.0767  0.7504
 5251TIP3   OH237167   3.517   2.650  12.048 -0.0052 -0.2021 -0.5553
 5251TIP3    H137168   3.467   2.604  12.115  0.6002  2.1009  1.6228
 5251TIP3    H237169   3.608   2.639  12.074  0.1792  1.6776 -0.2961
 5252TIP3   OH237170   0.806   3.938  15.407  0.4158 -0.5191  0.1768
 5252TIP3    H137171   0.859   4.012  15.380  0.9933 -0.6039  1.0473
 5252TIP3    H237172   0.798   3.884  15.328 -1.0297  1.0346 -0.8022
 5253TIP3   OH237173   3.241   4.739   4.308 -0.3937  0.5053  0.4873
 5253TIP3    H137174   3.163   4.723   4.361 -0.7476  1.5595  0.3093
 5253TIP3    H237175   3.250   4.660   4.255 -2.0006  0.7857 -0.2939
 5254TIP3   OH237176   5.596   3.390   3.026  0.4644  0.2202 -0.3373
 5254TIP3    H137177   5.577   3.296   3.029 -0.6648  0.4363 -0.4009
 5254TIP3    H237178   5.603   3.416   3.118  0.6240  0.1017 -0.3158
 5255TIP3   OH237179   1.581   6.386  14.953 -0.1064 -0.1815 -0.0340
 5255TIP3    H137180   1.509   6.328  14.976 -0.9172  0.7852 -0.0776
 5255TIP3    H237181   1.583   6.450  15.024  0.0733  0.3737 -0.5322
 5256TIP3   OH237182   4.199   3.213   1.065  0.4506  0.2692 -0.3349
 5256TIP3    H137183   4.193   3.305   1.040  2.2782  0.7727  0.9353
 5256TIP3    H237184   4.293   3.196   1.073  0.1030 -0.6157  3.3073
 5257TIP3   OH237185   4.085   2.818   3.782  0.1292  0.3462  0.7220
 5257TIP3    H137186   4.144   2.840   3.710  0.0754  0.2886  0.6608
 5257TIP3    H237187   4.030   2.896   3.792 -2.0443 -0.7630 -1.4226
 5258TIP3   OH237188   1.147   5.378   5.279  0.0394  0.1816  0.4008
 5258TIP3    H137189   1.242   5.379   5.279  0.0935 -1.7093  0.9329
 5258TIP3    H237190   1.123   5.403   5.190  1.0814 -0.7073 -0.1478
 5259TIP3   OH237191   5.715   1.302  16.774  0.0242 -0.4492 -0.3639
 5259TIP3    H137192   5.629   1.290  16.814 -0.8380 -1.1536 -2.2893
 5259TIP3    H237193   5.761   1.361  16.833 -1.4263 -0.8166  1.2155
 5260TIP3   OH237194   6.133   4.904   0.841  0.0561  0.2042 -0.5169
 5260TIP3    H137195   6.196   4.832   0.831  0.0631 -0.0368  0.9360
 5260TIP3    H237196   6.092   4.913   0.755  0.8102 -0.8347 -1.0036
 5261TIP3   OH237197   1.799   4.977  17.191 -0.4385  0.4113  0.2363
 5261TIP3    H137198   1.798   5.072  17.179  1.4761  0.4870  0.4042
 5261TIP3    H237199   1.883   4.949  17.156 -0.6758 -1.1469  0.8226
 5262TIP3   OH237200   1.736   2.715   1.258 -0.6231 -0.2188  0.5602
 5262TIP3    H137201   1.811   2.668   1.221 -1.2167 -0.3954 -0.4290
 5262TIP3    H237202   1.748   2.707   1.353  1.9131  1.7782  0.5255
 5263TIP3   OH237203   4.363   4.805   1.182 -0.1841 -0.2965  0.2726
 5263TIP3    H137204   4.409   4.755   1.250  0.1977 -0.7205 -0.2915
 5263TIP3    H237205   4.272   4.777   1.190 -0.1646 -0.2551  0.6852
 5264TIP3   OH237206   0.888   5.442   5.565  0.0252 -0.0099 -0.3426
 5264TIP3    H137207   0.861   5.531   5.542 -2.1145  0.5366  3.3156
 5264TIP3    H237208   0.812   5.388   5.545 -0.2423 -0.2309  1.1362
 5265TIP3   OH237209   0.531   4.531  17.089  0.3885 -0.1265 -0.0032
 5265TIP3    H137210   0.540   4.486  17.005 -0.8087 -2.9923  1.2337
 5265TIP3    H237211   0.620   4.541  17.121  0.7503 -1.4799 -0.4980
 5266TIP3   OH237212   5.010   5.141   4.689  0.2409  0.2132 -0.1863
 5266TIP3    H137213   5.088   5.096   4.723 -1.3171 -1.4478  1.4583
 5266TIP3    H237214   4.986   5.202   4.759 -0.8006 -0.4383  0.0477
 5267TIP3   OH237215   4.441   2.941  11.329  0.1727  0.3025 -0.0019
 5267TIP3    H137216   4.411   2.908  11.244  0.5103 -1.0051  0.3580
 5267TIP3    H237217   4.380   3.012  11.350 -0.6426 -0.1403 -0.7937
 5268TIP3   OH237218   2.923   5.018  15.687 -0.1435 -0.5652  0.3501
 5268TIP3    H137219   2.932   5.103  15.642 -0.4624  0.1250  1.5556
 5268TIP3    H237220   3.012   4.985  15.693 -0.1029 -0.7491 -0.9044
 5269TIP3   OH237221   2.254   1.321  11.671  0.0889  0.3593  0.1140
 5269TIP3    H137222   2.179   1.265  11.651 -0.1226  0.8445 -0.4989
 5269TIP3    H237223   2.236   1.356  11.758 -1.3778  1.9749 -0.7592
 5270TIP3   OH237224   3.852   2.650   3.601  0.1220 -0.3162 -0.4605
 5270TIP3    H137225   3.806   2.611   3.527  1.4682  0.0640 -1.5503
 5270TIP3    H237226   3.829   2.742   3.598  1.2079 -0.0446 -1.2631
 5271TIP3   OH237227   4.390   1.305   0.381  0.4828  0.9086 -0.1032
 5271TIP3    H137228   4.442   1.250   0.323 -0.6272  1.2732 -1.4890
 5271TIP3    H237229   4.328   1.350   0.324 -1.4026  0.4534  1.4538
 5272TIP3   OH237230   6.653   0.754   3.460 -0.5755  0.2657  0.5336
 5272TIP3    H137231   6.637   0.745   3.366  0.1294 -0.1934  0.4567
 5272TIP3    H237232   6.722   0.691   3.479 -0.7455  0.3268  1.3706
 5273TIP3   OH237233   2.182   3.852  16.617 -0.2148  0.3086 -0.1166
 5273TIP3    H137234   2.191   3.798  16.538  0.4588 -1.7008  1.2556
 5273TIP3    H237235   2.269   3.891  16.629 -0.9250  2.4961 -1.5800
 5274TIP3   OH237236   1.466   3.080   4.585 -0.6900  0.1204  0.1967
 5274TIP3    H137237   1.462   3.104   4.493  4.3566  1.7404  0.0490
 5274TIP3    H237238   1.512   2.996   4.586 -0.7496  0.0858  1.1790
 5275TIP3   OH237239   1.182   6.219  15.216  0.1892  0.3574  0.1034
 5275TIP3    H137240   1.089   6.228  15.196  0.5317  0.2355 -1.7834
 5275TIP3    H237241   1.188   6.139  15.268 -0.5914 -0.6881 -1.3479
 5276TIP3   OH237242   3.322   0.810  12.001  0.2941  0.4698  0.4965
 5276TIP3    H137243   3.254   0.769  12.053 -0.0547 -0.5592 -0.7243
 5276TIP3    H237244   3.279   0.886  11.961  0.1887  0.4762  0.6208
 5277TIP3   OH237245   4.296   5.473  11.942 -0.2461 -0.4540  0.6634
 5277TIP3    H137246   4.277   5.381  11.960  3.9096 -1.8515 -1.0551
 5277TIP3    H237247   4.253   5.490  11.858 -1.7576 -0.4777  1.3979
 5278TIP3   OH237248   4.860   3.956   3.347  0.4448 -0.0285  0.0337
 5278TIP3    H137249   4.831   4.030   3.402  1.5642  0.3003  0.1997
 5278TIP3    H237250   4.799   3.956   3.274  0.6015  1.2592 -0.1274
 5279TIP3   OH237251   5.302   2.789  11.265 -0.2599  0.1359  0.4151
 5279TIP3    H137252   5.253   2.774  11.346 -3.2076 -2.7883 -1.6303
 5279TIP3    H237253   5.271   2.874  11.233 -2.8233 -0.8241  0.1108
 5280TIP3   OH237254   6.337   2.697   6.217 -0.8732  0.0697 -0.2114
 5280TIP3    H137255   6.315   2.608   6.189 -0.3276 -0.3544  0.6735
 5280TIP3    H237256   6.331   2.695   6.312  2.6579 -0.0665  0.1407
 5281TIP3   OH237257   1.866   2.402  16.818  0.7362  0.2421 -0.3782
 5281TIP3    H137258   1.916   2.468  16.770  0.0623 -0.5281 -2.2582
 5281TIP3    H237259   1.920   2.323  16.814 -0.2333 -0.3931 -1.7721
 5282TIP3   OH237260   1.146   2.997  12.846  0.6705  0.2094 -0.1559
 5282TIP3    H137261   1.103   2.914  12.825 -0.2325  0.5992  0.1466
 5282TIP3    H237262   1.077   3.062  12.844  0.9961  0.6544  1.5802
 5283TIP3   OH237263   2.160   5.132  10.694  0.7869  0.4893  0.6425
 5283TIP3    H137264   2.214   5.160  10.768  0.8752  1.0130  0.3851
 5283TIP3    H237265   2.211   5.158  10.617  0.9051 -0.4595  0.3985
 5284TIP3   OH237266   1.303   2.142   4.927  1.1715  0.1165 -0.5750
 5284TIP3    H137267   1.231   2.130   4.988  0.1538 -0.6619 -1.8640
 5284TIP3    H237268   1.370   2.080   4.955  1.1431  0.4856  0.3325
 5285TIP3   OH237269   0.656   4.450  16.621  0.2728  0.4351 -0.2326
 5285TIP3    H137270   0.744   4.451  16.657  1.1150 -0.3275 -2.1763
 5285TIP3    H237271   0.630   4.358  16.624 -0.1379  0.5428 -0.4063
 5286TIP3   OH237272   1.390   0.757  16.258  0.6297 -0.3824 -0.2285
 5286TIP3    H137273   1.436   0.834  16.291 -0.5531  0.2792 -0.0364
 5286TIP3    H237274   1.418   0.748  16.167  0.4892  0.5129 -0.3666
 5287TIP3   OH237275   5.696   1.372  10.876  0.4613 -0.0613  0.3734
 5287TIP3    H137276   5.730   1.387  10.964 -3.7033 -1.6266  2.4976
 5287TIP3    H237277   5.754   1.305  10.839  1.2743 -0.7233  2.6869
 5288TIP3   OH237278   2.890   0.517  14.918 -1.0035  0.0275 -0.1194
 5288TIP3    H137279   2.975   0.477  14.940 -1.1500  0.0625  0.5140
 5288TIP3    H237280   2.825   0.452  14.946 -1.2244  0.4823  0.4431
 5289TIP3   OH237281   1.919   0.626  16.291  0.0255 -0.9071  0.4141
 5289TIP3    H137282   1.936   0.572  16.214  0.8418  0.2140 -0.2271
 5289TIP3    H237283   1.853   0.578  16.340 -1.1509 -1.2411 -1.4078
 5290TIP3   OH237284   6.208   6.075  11.882 -0.0461 -0.0622 -0.1422
 5290TIP3    H137285   6.262   6.148  11.851  0.2091  0.8750  2.2833
 5290TIP3    H237286   6.118   6.107  11.874 -0.0495 -0.2115 -0.7716
 5291TIP3   OH237287   5.651   0.709   2.206 -0.4043 -0.6049 -0.1248
 5291TIP3    H137288   5.727   0.665   2.166  0.0056 -0.7767  0.8053
 5291TIP3    H237289   5.578   0.690   2.147 -0.4581 -3.3485  0.6745
 5292TIP3   OH237290   5.616   3.833   3.682 -0.3952  0.1042  0.1951
 5292TIP3    H137291   5.559   3.890   3.734 -2.4875  0.0864 -1.9089
 5292TIP3    H237292   5.703   3.873   3.689 -1.2571  1.9623  1.0145
 5293TIP3   OH237293   5.563   5.872   2.701 -0.0137 -0.6112 -0.4823
 5293TIP3    H137294   5.545   5.803   2.637  0.4507 -1.4642  0.2960
 5293TIP3    H237295   5.488   5.868   2.762 -0.7691  0.6030 -1.2878
 5294TIP3   OH237296   4.060   1.621   3.954  0.4216 -0.0413  0.6494
 5294TIP3    H137297   4.133   1.579   3.999 -0.5946 -2.9332 -0.2148
 5294TIP3    H237298   4.094   1.641   3.867  0.6769  0.2171  0.8062
 5295TIP3   OH237299   0.097   5.266  14.281 -0.3270  0.6700  0.0133
 5295TIP3    H137300   0.076   5.357  14.300 -0.2356  0.2651  2.2549
 5295TIP3    H237301   0.079   5.257  14.187 -0.1485  3.0190 -0.3124
 5296TIP3   OH237302   1.330   0.199   2.962  0.1348 -0.5496  0.4750
 5296TIP3    H137303   1.343   0.104   2.964 -0.7665 -0.6586  1.4434
 5296TIP3    H237304   1.246   0.211   2.919  1.5074 -0.0075 -2.3386
 5297TIP3   OH237305   2.676   4.039   2.530 -0.2877  0.1345 -0.5387
 5297TIP3    H137306   2.718   4.057   2.446  0.9420 -0.1935 -0.0064
 5297TIP3    H237307   2.719   4.099   2.592  1.1952 -1.8920  0.5007
 5298TIP3   OH237308   2.136   6.603   5.023  0.2095  0.1241 -0.0855
 5298TIP3    H137309   2.183   6.668   5.076 -1.2754  0.9035  0.3281
 5298TIP3    H237310   2.184   6.522   5.038  1.0137  0.7447  0.8776
 5299TIP3   OH237311   4.127   3.348  10.818 -0.4575  0.0836 -0.1442
 5299TIP3    H137312   4.035   3.356  10.794 -1.0953  0.4803  2.1635
 5299TIP3    H237313   4.131   3.382  10.907  2.2778  1.9091 -0.8435
 5300TIP3   OH237314   5.786   0.164  15.055 -0.0578 -0.0705 -0.1437
 5300TIP3    H137315   5.708   0.198  15.012 -1.4145 -1.5974  0.9497
 5300TIP3    H237316   5.856   0.176  14.992 -1.1769  1.3299 -1.1756
 5301TIP3   OH237317   2.624   2.524   2.669 -0.1718  0.4087 -0.0540
 5301TIP3    H137318   2.571   2.568   2.603 -0.8594  1.9644  1.4790
 5301TIP3    H237319   2.562   2.496   2.736  0.6955  0.2660  0.7072
 5302TIP3   OH237320   0.760   1.136  15.189  0.2658  0.4920 -0.1559
 5302TIP3    H137321   0.696   1.158  15.256 -0.7701 -0.6358 -0.7440
 5302TIP3    H237322   0.728   1.055  15.150  0.5379  1.3899 -2.3837
 5303TIP3   OH237323   5.202   3.450   1.866 -0.4727 -0.0827 -0.1716
 5303TIP3    H137324   5.135   3.435   1.933 -1.0824  0.7126 -0.5924
 5303TIP3    H237325   5.155   3.489   1.792  0.6933  2.1469  0.1704
 5304TIP3   OH237326   5.949   3.637   1.927 -0.9241 -0.3067 -0.0344
 5304TIP3    H137327   5.933   3.548   1.958 -0.4824 -0.0994  0.8202
 5304TIP3    H237328   6.035   3.660   1.962 -1.1239  0.5344 -0.0675
 5305TIP3   OH237329   4.236   2.986   4.620  0.1385  0.1046 -0.2338
 5305TIP3    H137330   4.243   3.077   4.651 -0.4625  0.1962 -0.3485
 5305TIP3    H237331   4.273   2.988   4.532 -1.5777  0.6597 -0.9909
 5306TIP3   OH237332   0.206   5.903  15.054  0.0287 -0.1261  0.4499
 5306TIP3    H137333   0.261   5.935  15.125  1.1136  0.7369 -0.7375
 5306TIP3    H237334   0.180   5.981  15.006 -3.9359 -0.2097  2.0229
 5307TIP3   OH237335   5.559   5.715  12.932 -0.4261  0.2913  0.2263
 5307TIP3    H137336   5.572   5.726  13.026 -0.3051  1.1252  0.1196
 5307TIP3    H237337   5.648   5.710  12.896 -0.4666 -1.1549  0.2651
 5308TIP3   OH237338   4.089   0.652   4.897  0.3269  0.1649  0.2898
 5308TIP3    H137339   4.046   0.726   4.940  1.8954  0.4242  1.5031
 5308TIP3    H237340   4.024   0.583   4.898 -0.5168  0.9415  0.8875
 5309TIP3   OH237341   1.527   6.036  11.310  0.5052  0.1541 -0.3203
 5309TIP3    H137342   1.543   5.944  11.290  0.6860 -0.4185  2.1033
 5309TIP3    H237343   1.431   6.043  11.313  0.4885 -0.2095  0.3583
 5310TIP3   OH237344   3.830   2.621   1.127 -0.2852 -0.2887 -1.0286
 5310TIP3    H137345   3.836   2.655   1.037 -2.1612  0.9332 -0.7487
 5310TIP3    H237346   3.916   2.639   1.165  0.0208  0.6308 -2.1017
 5311TIP3   OH237347   5.959   6.439  16.592  0.1646 -0.3075 -0.2036
 5311TIP3    H137348   6.029   6.493  16.556  2.2826 -1.5757  1.7386
 5311TIP3    H237349   5.959   6.361  16.535 -0.6435  0.2676 -1.0180
 5312TIP3   OH237350   4.800   5.344  12.374  0.1438 -0.3343 -0.2588
 5312TIP3    H137351   4.744   5.307  12.307 -0.0440 -2.9038  1.1881
 5312TIP3    H237352   4.762   5.429  12.393 -2.4263 -1.3865 -0.3377
 5313TIP3   OH237353   1.026   6.488  12.772  0.2890 -0.1140  0.6043
 5313TIP3    H137354   0.936   6.519  12.759  0.0224 -1.1123 -0.0412
 5313TIP3    H237355   1.073   6.523  12.696 -0.0272 -1.2992 -0.1611
 5314TIP3   OH237356   1.628   0.270  15.802 -0.7661  0.3901 -0.0617
 5314TIP3    H137357   1.542   0.285  15.761  0.0722  2.9693 -1.1245
 5314TIP3    H237358   1.676   0.219  15.737 -1.0836  0.0254 -0.0148
 5315TIP3   OH237359   2.138   0.142  13.024 -0.5353 -0.3306  0.3688
 5315TIP3    H137360   2.048   0.143  13.057 -0.6829 -0.1320 -0.0244
 5315TIP3    H237361   2.135   0.196  12.945  0.2510  0.8980  1.1591
 5316TIP3   OH237362   2.170   2.479  14.718 -0.2107 -0.3770  0.3371
 5316TIP3    H137363   2.147   2.536  14.791 -2.1409 -1.1189  0.3705
 5316TIP3    H237364   2.218   2.407  14.759 -0.3094 -0.2273  0.7193
 5317TIP3   OH237365   6.563   6.599  13.682 -0.0560  0.3804  0.3074
 5317TIP3    H137366   6.629   6.570  13.620  1.1794 -1.5311  2.3819
 5317TIP3    H237367   6.597   6.683  13.715  0.5464  0.1735  0.2267
 5318TIP3   OH237368   2.986   3.630   5.406  0.4502 -0.1534  0.4788
 5318TIP3    H137369   2.919   3.694   5.428 -0.1064  0.0790 -1.6547
 5318TIP3    H237370   2.941   3.546   5.406  0.4811 -0.1702  0.4113
 5319TIP3   OH237371   0.768   0.874  14.199  0.1220  0.5485 -0.2193
 5319TIP3    H137372   0.860   0.882  14.174  0.2013  0.6269  0.0946
 5319TIP3    H237373   0.742   0.786  14.170  0.3134  0.5019 -0.2469
 5320TIP3   OH237374   4.093   2.451   6.327 -0.1256 -0.0531  0.1605
 5320TIP3    H137375   4.160   2.485   6.387  0.5349 -0.0260 -0.5736
 5320TIP3    H237376   4.143   2.414   6.254 -0.9245  0.1262 -0.4887
 5321TIP3   OH237377   5.657   2.000   3.006  0.7071  0.1816 -0.2368
 5321TIP3    H137378   5.709   2.053   2.946  2.7538  1.3915  2.4000
 5321TIP3    H237379   5.624   2.062   3.070 -0.9732 -1.1226  0.2224
 5322TIP3   OH237380   5.602   3.419   3.293  0.3350 -0.1948  0.9470
 5322TIP3    H137381   5.597   3.347   3.356  0.3564 -0.7069  0.3776
 5322TIP3    H237382   5.657   3.485   3.336  0.5831 -0.6572  1.3474
 5323TIP3   OH237383   5.785   5.744  14.279  0.0972 -0.2816 -0.2188
 5323TIP3    H137384   5.840   5.666  14.288 -0.5681 -0.8235 -0.7172
 5323TIP3    H237385   5.773   5.776  14.368 -2.0375 -2.4589  0.3784
 5324TIP3   OH237386   6.352   2.578   3.392  0.2362  0.2196  0.1020
 5324TIP3    H137387   6.348   2.634   3.314 -0.5060  0.0907  0.0436
 5324TIP3    H237388   6.291   2.619   3.454 -2.9519 -2.2777 -1.1106
 5325TIP3   OH237389   1.141   0.462  14.189 -0.1239 -0.5251  0.0027
 5325TIP3    H137390   1.154   0.371  14.161  1.4854 -0.1741 -0.4770
 5325TIP3    H237391   1.229   0.500  14.187 -0.7543  0.9949  0.3899
 5326TIP3   OH237392   5.668   4.305   4.576 -0.0401  0.1178  0.6837
 5326TIP3    H137393   5.585   4.334   4.538  0.6815  0.4004 -0.7581
 5326TIP3    H237394   5.677   4.357   4.656 -1.3553 -0.0988  1.0004
 5327TIP3   OH237395   0.669   0.026  12.368  0.1064  0.5775 -0.2585
 5327TIP3    H137396   0.656   0.050  12.460 -0.2975  0.2035 -0.2105
 5327TIP3    H237397   0.582   0.033  12.330  0.0126 -0.5383 -0.2969
 5328TIP3   OH237398   4.462   3.062   1.673 -0.0695 -0.2704 -0.2385
 5328TIP3    H137399   4.466   3.089   1.765 -0.1290  0.5667 -0.4729
 5328TIP3    H237400   4.533   3.110   1.631 -0.9995  0.5451 -0.9224
 5329TIP3   OH237401   5.181   2.357   2.486 -0.1640 -0.1989  0.0875
 5329TIP3    H137402   5.142   2.270   2.478  0.1124 -0.2330 -1.2822
 5329TIP3    H237403   5.152   2.403   2.407 -0.3609  0.9889  0.8271
 5330TIP3   OH237404   5.019   3.550   1.273  0.1754 -0.2777 -0.0907
 5330TIP3    H137405   5.024   3.630   1.325 -1.4186 -0.5839  0.5938
 5330TIP3    H237406   5.006   3.581   1.183 -0.0877  0.2222  0.1168
 5331TIP3   OH237407   5.639   6.650  12.205 -0.3614  0.3461  0.2409
 5331TIP3    H137408   5.700   6.667  12.276  2.4370 -1.3857 -1.5278
 5331TIP3    H237409   5.581   6.581  12.238  2.1587 -1.8995  0.3726
 5332TIP3   OH237410   3.658   2.839   3.503  0.1363  0.5627  0.8160
 5332TIP3    H137411   3.607   2.920   3.498  0.7864  0.9673  0.6068
 5332TIP3    H237412   3.593   2.769   3.499 -0.3354  1.0459 -0.4065
 5333TIP3   OH237413   3.368   5.705   2.941  0.3941 -0.8610  0.1443
 5333TIP3    H137414   3.292   5.757   2.914  1.3165  0.5662  0.1645
 5333TIP3    H237415   3.411   5.681   2.859 -0.1170 -1.7260  0.1302
 5334TIP3   OH237416   6.769   1.677   0.057 -0.1372 -0.0699  0.2811
 5334TIP3    H137417   6.782   1.668   0.151  3.1519 -0.8382 -0.1437
 5334TIP3    H237418   6.843   1.729   0.027 -0.6814 -0.4924 -1.9914
 5335TIP3   OH237419   1.193   3.031   1.859  0.1276  0.0233  0.3485
 5335TIP3    H137420   1.136   3.063   1.930  1.0582 -1.0747  1.6476
 5335TIP3    H237421   1.132   3.009   1.788 -0.8537  0.8954  0.8821
 5336TIP3   OH237422   4.369   5.458   4.024  0.5519  0.2086  0.1007
 5336TIP3    H137423   4.448   5.416   3.989  0.5972  1.0026 -0.8121
 5336TIP3    H237424   4.327   5.391   4.076  0.7991 -0.8661 -1.0361
 5337TIP3   OH237425   4.661   5.511  15.810  0.6012 -0.4864  0.0937
 5337TIP3    H137426   4.660   5.484  15.718  0.1466  0.5661 -0.2337
 5337TIP3    H237427   4.697   5.436  15.857  0.2883 -1.2659 -0.8710
 5338TIP3   OH237428   2.931   2.457  12.443  0.3169  0.3453 -0.0435
 5338TIP3    H137429   2.981   2.378  12.423  3.1464  1.6056  1.5254
 5338TIP3    H237430   2.970   2.525  12.389  0.9061  1.5424  1.8272
 5339TIP3   OH237431   1.021   0.355   2.986  0.0845  0.3251  0.0451
 5339TIP3    H137432   1.002   0.278   3.039 -1.8531 -0.8566 -2.2293
 5339TIP3    H237433   0.953   0.356   2.919  2.2230  1.8948 -2.2658
 5340TIP3   OH237434   4.561   3.166   3.621  0.1833 -0.1867  0.1635
 5340TIP3    H137435   4.594   3.092   3.673  0.4133  1.2733  2.2059
 5340TIP3    H237436   4.639   3.215   3.596 -0.0275 -0.1411 -0.4154
 5341TIP3   OH237437   4.446   5.293  12.480 -0.0070 -0.0864  0.0654
 5341TIP3    H137438   4.419   5.267  12.392 -0.0079 -0.9019  0.2982
 5341TIP3    H237439   4.537   5.265  12.487 -0.5433 -1.7622  0.9650
 5342TIP3   OH237440   3.289   2.484   4.805  0.2997 -0.2440 -0.2248
 5342TIP3    H137441   3.330   2.537   4.736 -0.4388  1.0235  0.2826
 5342TIP3    H237442   3.330   2.516   4.886 -1.1193  0.5321  0.2166
 5343TIP3   OH237443   6.461   0.222  13.972  0.2761  0.0189  0.4008
 5343TIP3    H137444   6.424   0.217  13.884  0.6670  0.8777  0.1817
 5343TIP3    H237445   6.518   0.146  13.979  1.7212  0.9440 -0.7951
 5344TIP3   OH237446   1.987   4.968   2.965 -0.1488 -0.1016 -0.2442
 5344TIP3    H137447   1.936   4.903   2.917  0.8586  0.3828 -2.1031
 5344TIP3    H237448   2.076   4.960   2.929  0.0166  2.2748 -0.5684
 5345TIP3   OH237449   2.212   6.112  16.657 -0.0326  0.5409 -0.3470
 5345TIP3    H137450   2.159   6.180  16.698  1.1082 -0.2180  2.5792
 5345TIP3    H237451   2.169   6.030  16.682 -0.9357  0.0080 -3.1654
 5346TIP3   OH237452   0.816   5.678  15.616  0.2514 -0.1146  0.3542
 5346TIP3    H137453   0.872   5.655  15.690  0.6002 -1.3873 -0.2867
 5346TIP3    H237454   0.742   5.618  15.623  0.5683 -0.6400 -0.6548
 5347TIP3   OH237455   0.161   1.930   1.212  0.3400 -0.2764  0.2356
 5347TIP3    H137456   0.161   2.016   1.170  0.3093 -0.0453  0.7084
 5347TIP3    H237457   0.254   1.911   1.226  0.3286 -0.1363  0.5053
 5348TIP3   OH237458   2.065   1.691   4.598 -0.5564 -0.4660  0.4611
 5348TIP3    H137459   1.993   1.743   4.561  0.1874 -2.4210 -4.5991
 5348TIP3    H237460   2.023   1.610   4.627 -0.8431 -0.0058  1.3501
 5349TIP3   OH237461   5.569   1.409   1.616  0.0939  0.8058  0.1773
 5349TIP3    H137462   5.511   1.448   1.682  1.3669  0.2966  1.6372
 5349TIP3    H237463   5.657   1.424   1.649  0.7099 -1.1591 -0.4306
 5350TIP3   OH237464   6.409   0.458   5.685  0.0058  0.2029 -0.1912
 5350TIP3    H137465   6.497   0.496   5.686  0.0564  0.0838  0.3348
 5350TIP3    H237466   6.424   0.364   5.700 -0.2963  0.3985  1.5606
 5351TIP3   OH237467   3.469   4.953   2.255  0.2454 -0.0946  0.0078
 5351TIP3    H137468   3.506   4.987   2.173 -0.2388 -0.6760 -0.4647
 5351TIP3    H237469   3.527   4.987   2.323  3.6487 -3.4933 -0.8591
 5352TIP3   OH237470   4.971   1.636   0.916 -0.3586 -0.3625 -0.4770
 5352TIP3    H137471   5.042   1.634   0.853  0.9648 -1.0556  0.9534
 5352TIP3    H237472   4.892   1.618   0.865  0.3286  1.4330 -2.2643
 5353TIP3   OH237473   2.367   5.123   4.357 -0.4466  0.2850 -0.2121
 5353TIP3    H137474   2.460   5.127   4.336 -0.7445  0.8380 -1.6061
 5353TIP3    H237475   2.335   5.045   4.310 -0.7992  0.4752 -0.2962
 5354TIP3   OH237476   0.012   3.006  13.962 -0.1246  0.4667  0.3579
 5354TIP3    H137477   0.072   3.067  14.005 -0.0881  0.6252  0.0784
 5354TIP3    H237478  -0.072   3.052  13.959 -0.1072  0.4877  0.1844
 5355TIP3   OH237479   2.165   6.406  12.512  0.3116  0.1526 -0.5098
 5355TIP3    H137480   2.117   6.455  12.445 -0.1123  1.1431  0.4795
 5355TIP3    H237481   2.105   6.402  12.586  0.4482 -1.6768 -0.4696
 5356TIP3   OH237482   3.178   0.573  11.790  0.5216  0.6530 -0.2022
 5356TIP3    H137483   3.139   0.607  11.871  0.5905  0.4555 -0.0875
 5356TIP3    H237484   3.114   0.594  11.722  0.6646  1.2310 -0.1713
 5357TIP3   OH237485   5.572   3.388   1.431 -0.6728  0.2396  0.2319
 5357TIP3    H137486   5.520   3.400   1.511  1.6713  2.2510  1.5782
 5357TIP3    H237487   5.557   3.469   1.381 -0.1631  0.0904 -0.1618
 5358TIP3   OH237488   4.481   4.762   2.599  0.7060 -0.4059  0.2267
 5358TIP3    H137489   4.527   4.798   2.524 -1.8632  0.6100 -0.9601
 5358TIP3    H237490   4.505   4.820   2.672  1.0183  0.2986 -0.4276
 5359TIP3   OH237491   5.436   2.334   2.647  0.2042 -0.3602 -0.0282
 5359TIP3    H137492   5.385   2.375   2.577  1.0103  0.7160  0.0051
 5359TIP3    H237493   5.436   2.241   2.624  1.1674  0.0639 -1.9380
 5360TIP3   OH237494   5.292   3.733  12.868 -0.1026  0.1043  0.0904
 5360TIP3    H137495   5.319   3.773  12.785 -3.4721 -0.3348 -1.3792
 5360TIP3    H237496   5.239   3.800  12.911  0.8930  0.0062  1.5484
 5361TIP3   OH237497   5.313   5.663  15.747  0.6289 -0.1980  0.2404
 5361TIP3    H137498   5.393   5.611  15.750  0.2871 -0.7067  0.6773
 5361TIP3    H237499   5.338   5.748  15.785  0.6342 -0.8159  1.6799
 5362TIP3   OH237500   4.159   1.856   4.735 -0.3776  0.0479  0.2522
 5362TIP3    H137501   4.128   1.903   4.657 -1.5366 -0.6582  0.2739
 5362TIP3    H237502   4.105   1.890   4.806 -1.0736 -1.1296  0.3060
 5363TIP3   OH237503   0.076   3.863   4.334 -0.8023 -0.3971 -0.1263
 5363TIP3    H137504   0.005   3.928   4.333 -0.7723 -0.3615 -1.6468
 5363TIP3    H237505   0.155   3.914   4.316 -0.5571 -0.6385  0.2515
 5364TIP3   OH237506   6.439   2.290  11.811  0.2530 -0.7392 -0.0687
 5364TIP3    H137507   6.420   2.384  11.818  0.1585 -0.7407 -0.3171
 5364TIP3    H237508   6.357   2.247  11.835 -0.1252 -0.7434 -1.3462
 5365TIP3   OH237509   5.413   3.625   1.260 -0.1314  0.3049  0.0107
 5365TIP3    H137510   5.329   3.608   1.217  0.3633  1.4640 -1.5050
 5365TIP3    H237511   5.431   3.717   1.240  2.2368 -0.3171 -1.0547
 5366TIP3   OH237512   3.733   1.668  15.310 -0.1396 -0.3461  0.2534
 5366TIP3    H137513   3.770   1.740  15.260 -0.1954 -0.3620  0.1890
 5366TIP3    H237514   3.741   1.592  15.252  0.4834 -0.5180  0.5565
 5367TIP3   OH237515   6.627   6.388  15.311  0.3941 -0.2805 -0.2527
 5367TIP3    H137516   6.716   6.374  15.344  0.5023  0.6241 -0.1392
 5367TIP3    H237517   6.632   6.363  15.219  1.7602  3.1404 -1.2755
 5368TIP3   OH237518   6.585   0.352  14.549 -0.2139 -0.2414 -0.3305
 5368TIP3    H137519   6.672   0.336  14.512 -0.7140 -0.7446 -1.3525
 5368TIP3    H237520   6.566   0.444  14.528 -0.2373 -0.3497 -0.7939
 5369TIP3   OH237521   0.910   2.132   3.358  0.5008  0.0108 -0.4362
 5369TIP3    H137522   0.880   2.121   3.448 -0.3914 -0.4639 -0.7776
 5369TIP3    H237523   1.005   2.120   3.363  0.3067 -1.4867  0.2356
 5370TIP3   OH237524   2.205   2.841  13.692  0.3736 -0.0620 -0.4465
 5370TIP3    H137525   2.265   2.800  13.630  1.3331 -1.3318  1.2198
 5370TIP3    H237526   2.219   2.935  13.680  2.2599 -0.3124 -0.5583
 5371TIP3   OH237527   4.692   2.038   0.180 -0.0332 -0.1065  0.2543
 5371TIP3    H137528   4.640   2.115   0.160  0.0095  0.2050  1.2808
 5371TIP3    H237529   4.701   2.039   0.275  2.1831  0.0815  0.1037
 5372TIP3   OH237530   0.972   2.879  13.057 -0.5637  0.4443  0.0774
 5372TIP3    H137531   1.003   2.944  13.120 -2.1503 -0.0400  1.4374
 5372TIP3    H237532   0.890   2.846  13.095  0.4335 -2.7686 -0.2672
 5373TIP3   OH237533   6.389   0.917   5.005  0.6988  0.0671  0.6240
 5373TIP3    H137534   6.371   0.823   4.995 -0.4141  0.2818  0.5406
 5373TIP3    H237535   6.427   0.924   5.093  0.7968 -0.4656  0.6281
 5374TIP3   OH237536   6.598   5.434   5.559  0.4661  0.0967  0.2275
 5374TIP3    H137537   6.572   5.343   5.571 -0.9051  0.4804  0.2803
 5374TIP3    H237538   6.554   5.462   5.479  1.5649  0.4809 -0.2682
 5375TIP3   OH237539   5.049   4.334  11.369  0.1934 -0.1460  0.4119
 5375TIP3    H137540   5.117   4.331  11.436  0.9548  0.4838 -0.3176
 5375TIP3    H237541   5.086   4.387  11.299 -0.3684 -1.2632 -0.7650
 5376TIP3   OH237542   0.257   3.289  12.657  0.0508 -0.0326  0.1739
 5376TIP3    H137543   0.163   3.297  12.667 -0.0329 -0.5248 -0.1794
 5376TIP3    H237544   0.271   3.282  12.563  0.7518  3.5195 -0.1221
 5377TIP3   OH237545   1.748   6.240   4.953 -0.1248 -0.2472  0.0189
 5377TIP3    H137546   1.830   6.226   4.905 -1.4855  1.0855 -2.9819
 5377TIP3    H237547   1.710   6.153   4.960  2.3564 -1.2509  3.3755
 5378TIP3   OH237548   0.038   4.775   5.571  0.2066  0.1930 -0.5088
 5378TIP3    H137549   0.074   4.760   5.658  0.5756 -0.0113 -0.6909
 5378TIP3    H237550  -0.040   4.829   5.585  0.8039  0.9917 -0.1287
 5379TIP3   OH237551   6.343   3.452   3.256  0.1558 -0.0753  0.0185
 5379TIP3    H137552   6.386   3.503   3.325  0.5948 -0.3726 -0.0320
 5379TIP3    H237553   6.319   3.370   3.298 -1.3367  0.5008  0.3320
 5380TIP3   OH237554   1.152   3.834  16.392  0.3550  0.5877  0.2956
 5380TIP3    H137555   1.158   3.784  16.474 -1.0693  1.3936  0.9217
 5380TIP3    H237556   1.104   3.777  16.332  1.1392  0.1201  0.0843
 5381TIP3   OH237557   2.608   0.406   2.071 -0.2220  0.2158  0.1398
 5381TIP3    H137558   2.566   0.492   2.067 -0.6326  0.0061 -0.1081
 5381TIP3    H237559   2.548   0.347   2.025  0.2904 -0.1120 -0.1244
 5382TIP3   OH237560   5.798   1.712   0.522 -0.1350 -0.8772  0.2228
 5382TIP3    H137561   5.862   1.739   0.588  0.7292 -1.5962 -0.2897
 5382TIP3    H237562   5.773   1.794   0.479 -1.6405 -0.2308  2.1977
 5383TIP3   OH237563   0.367   1.189  15.745  0.3911 -0.3132 -0.0646
 5383TIP3    H137564   0.445   1.148  15.782 -0.2763 -0.0534  1.7302
 5383TIP3    H237565   0.295   1.156  15.798 -0.2545  2.5474  1.0458
 5384TIP3   OH237566   2.591   3.925   3.076 -0.4358  0.3236 -0.2131
 5384TIP3    H137567   2.515   3.972   3.111 -2.6424 -0.7984 -3.1416
 5384TIP3    H237568   2.591   3.841   3.123  1.3001  1.5976  2.3465
 5385TIP3   OH237569   6.039   5.654  10.606 -0.0221 -0.0788 -0.1949
 5385TIP3    H137570   5.950   5.625  10.624 -1.3515  2.0799 -2.5044
 5385TIP3    H237571   6.073   5.589  10.544 -0.7912  0.1314 -0.8637
 5386TIP3   OH237572   2.523   1.911  14.656  0.1535 -0.3906  0.1906
 5386TIP3    H137573   2.602   1.949  14.693  0.5667  1.0195 -1.9617
 5386TIP3    H237574   2.548   1.884  14.568 -1.2904 -1.6980  0.1416
 5387TIP3   OH237575   0.037   2.081   3.321 -0.7555  0.1322 -0.2731
 5387TIP3    H137576   0.034   2.176   3.307 -0.7632  0.3955  1.3769
 5387TIP3    H237577  -0.035   2.063   3.382 -1.4956 -1.1218 -1.4570
 5388TIP3   OH237578   1.886   4.154  16.063 -0.4005  0.3612 -0.1604
 5388TIP3    H137579   1.846   4.114  15.985 -0.5708  1.3676 -0.6142
 5388TIP3    H237580   1.949   4.089  16.094  0.8965  0.5565 -2.1359
 5389TIP3   OH237581   4.595   4.413  15.320 -0.1130  0.0145  0.8334
 5389TIP3    H137582   4.628   4.427  15.408 -0.1331  2.1422  0.5478
 5389TIP3    H237583   4.673   4.414  15.264 -0.2081 -0.0580  0.6978
 5390TIP3   OH237584   2.138   4.088  16.401  0.3654 -0.2209  0.1793
 5390TIP3    H137585   2.052   4.048  16.414  0.0471  0.2901 -0.3114
 5390TIP3    H237586   2.181   4.082  16.486 -0.8672  1.2081  0.9513
 5391TIP3   OH237587   3.543   6.280  13.507  0.2435  0.4169  0.2846
 5391TIP3    H137588   3.460   6.244  13.537 -0.0673 -0.4094 -1.4717
 5391TIP3    H237589   3.524   6.371  13.485 -0.3127  0.1012 -0.5532
 5392TIP3   OH237590   0.447   4.573   5.747 -0.1901 -0.2891 -0.3122
 5392TIP3    H137591   0.419   4.558   5.837  1.4765 -0.7295  0.1815
 5392TIP3    H237592   0.516   4.640   5.754 -2.5825  2.5491 -1.7184
 5393TIP3   OH237593   2.738   5.520   0.237 -0.4254  0.5870 -0.2085
 5393TIP3    H137594   2.753   5.440   0.287 -1.7875 -0.1495 -0.9241
 5393TIP3    H237595   2.777   5.503   0.151  2.5734  2.1211  0.6868
 5394TIP3   OH237596   5.936   2.377   1.134 -0.0417  0.1979 -0.1971
 5394TIP3    H137597   5.883   2.380   1.054  1.6853 -1.4196 -1.5273
 5394TIP3    H237598   6.019   2.419   1.108  1.2318 -1.9781  0.0795
 5395TIP3   OH237599   3.103   6.279   4.927 -0.5925  0.0910  0.0155
 5395TIP3    H137600   3.096   6.327   4.844 -0.4448 -1.3378 -0.8416
 5395TIP3    H237601   3.197   6.278   4.946 -0.7681  2.5269  1.5287
 5396TIP3   OH237602   2.614   1.773  12.069  0.0316  0.2720  0.3164
 5396TIP3    H137603   2.654   1.856  12.095 -2.5150  1.9295 -0.6774
 5396TIP3    H237604   2.523   1.781  12.096 -0.7834 -1.2852 -1.6916
 5397TIP3   OH237605   5.421   4.595  14.306 -0.2661 -0.0687 -0.1001
 5397TIP3    H137606   5.458   4.606  14.393 -1.8442  1.9058  0.3800
 5397TIP3    H237607   5.370   4.514  14.312  1.6493 -1.3467 -0.0081
 5398TIP3   OH237608   4.959   1.091   4.444 -0.1160 -0.1795 -0.1208
 5398TIP3    H137609   4.945   1.178   4.482  0.2672  0.2389 -0.9013
 5398TIP3    H237610   4.874   1.068   4.406  0.1035  0.4254 -1.0183
 5399TIP3   OH237611   1.007   0.006  16.557  0.0398 -0.1846 -0.1375
 5399TIP3    H137612   0.976  -0.072  16.602 -0.1941 -0.0676 -0.0956
 5399TIP3    H237613   1.076  -0.025  16.499 -0.8669 -0.6023 -1.0128
 5400TIP3   OH237614   3.628   0.355  11.177 -0.0950 -0.0028 -0.1114
 5400TIP3    H137615   3.571   0.386  11.106 -1.6595 -0.9527  0.6687
 5400TIP3    H237616   3.680   0.285  11.137 -3.8952 -3.5594  0.4391
 5401TIP3   OH237617   3.423   5.921  15.836  0.0706  0.4219  0.3063
 5401TIP3    H137618   3.508   5.877  15.839 -0.1699 -0.1708 -0.8318
 5401TIP3    H237619   3.366   5.859  15.791 -1.2424  0.3900  1.9237
 5402TIP3   OH237620   3.890   6.640   1.997  0.3516  0.5043  0.4158
 5402TIP3    H137621   3.860   6.720   1.955  1.8071  1.0424  0.3600
 5402TIP3    H237622   3.958   6.668   2.058  0.3933 -0.6147  0.9259
 5403TIP3   OH237623   2.719   0.024  17.051  0.1245  0.0823  0.0082
 5403TIP3    H137624   2.742  -0.063  17.083 -0.1178 -0.1854 -0.5469
 5403TIP3    H237625   2.626   0.018  17.030  0.0677  0.5250  0.1253
 5404TIP3   OH237626   4.209   6.441  14.057 -0.0651  0.6078  0.0131
 5404TIP3    H137627   4.291   6.488  14.042  0.4902 -0.3217  0.0378
 5404TIP3    H237628   4.200   6.384  13.980 -1.8121  2.2348 -1.0647
 5405TIP3   OH237629   5.057   0.977   5.171  0.3999 -0.1028  0.1557
 5405TIP3    H137630   5.013   0.965   5.086  0.4989 -0.5528  0.1649
 5405TIP3    H237631   5.150   0.967   5.151  0.3794 -0.9451  0.4330
 5406TIP3   OH237632   1.297   1.457   0.915  0.0750  0.0790  0.2807
 5406TIP3    H137633   1.341   1.539   0.894  0.0038 -0.2230 -1.2089
 5406TIP3    H237634   1.253   1.473   0.998 -1.8400  2.3464 -1.0328
 5407TIP3   OH237635   1.073   4.029  14.136 -0.0047 -0.0613  0.1078
 5407TIP3    H137636   1.105   3.969  14.204  1.8687  0.5782 -0.1527
 5407TIP3    H237637   1.148   4.040  14.077 -1.2040  0.3831 -1.3824
 5408TIP3   OH237638   0.205   3.557  12.960  0.0331 -0.1583 -0.7555
 5408TIP3    H137639   0.143   3.615  12.915  2.1553  1.5178 -1.6952
 5408TIP3    H237640   0.177   3.559  13.051  0.4754  3.1091 -0.5807
 5409TIP3   OH237641   3.819   2.349   0.809  0.3065 -0.1630  0.0403
 5409TIP3    H137642   3.739   2.368   0.760  0.4805 -0.0726 -0.2096
 5409TIP3    H237643   3.842   2.432   0.851  1.4399  0.4065 -1.5907
 5410TIP3   OH237644   4.109   0.250   4.968 -0.5065 -0.2773  0.0648
 5410TIP3    H137645   4.028   0.284   4.930  0.1133  4.2847  2.1215
 5410TIP3    H237646   4.085   0.225   5.057  0.1570  0.4786  0.4718
 5411TIP3   OH237647   0.676   0.789   3.011  0.2479  0.0851  0.1872
 5411TIP3    H137648   0.675   0.708   2.959 -1.5222 -0.0343  0.3435
 5411TIP3    H237649   0.720   0.853   2.955  0.3518 -0.6061 -0.5456
 5412TIP3   OH237650   6.141   0.226  12.543  0.4700 -0.0940  1.1506
 5412TIP3    H137651   6.114   0.272  12.622 -1.3615 -3.0363  2.3910
 5412TIP3    H237652   6.133   0.133  12.565 -0.5960 -1.0690 -2.6396
 5413TIP3   OH237653   1.867   3.000  12.241  0.5705 -0.1593 -0.4062
 5413TIP3    H137654   1.785   3.000  12.291  0.1424  0.2344 -1.0982
 5413TIP3    H237655   1.876   2.909  12.211  0.0441 -0.0715 -0.8629
 5414TIP3   OH237656   6.102   6.101   0.767 -0.2915  0.1549  0.7096
 5414TIP3    H137657   6.043   6.080   0.840 -1.1741  0.1237  0.0007
 5414TIP3    H237658   6.148   6.020   0.749 -0.6271 -0.0477  0.7444
 5415TIP3   OH237659   4.911   4.784  15.630 -0.1830 -0.2492  0.0797
 5415TIP3    H137660   4.986   4.745  15.585 -0.2121 -1.5484  1.1048
 5415TIP3    H237661   4.848   4.713  15.637  0.0887 -0.3207  2.7398
 5416TIP3   OH237662   5.153   3.436   5.822  0.0674 -0.5743  0.2913
 5416TIP3    H137663   5.187   3.480   5.900 -0.8639  2.3080 -0.7972
 5416TIP3    H237664   5.209   3.467   5.751 -2.7313  1.9203 -1.0658
 5417TIP3   OH237665   1.829   3.682   3.543 -0.3949 -0.2126 -0.4560
 5417TIP3    H137666   1.828   3.587   3.545  1.0657 -0.3320 -2.5864
 5417TIP3    H237667   1.836   3.708   3.635  0.9018 -2.2061  0.0580
 5418TIP3   OH237668   6.635   6.669  11.624 -0.3431 -0.4525  0.1608
 5418TIP3    H137669   6.667   6.682  11.713  0.0121 -2.0804  0.3030
 5418TIP3    H237670   6.702   6.615  11.583  1.6829  3.5696 -2.4678
 5419TIP3   OH237671   3.962   4.222  14.635 -0.3214 -0.8666  0.2477
 5419TIP3    H137672   3.910   4.160  14.584 -2.8566  0.5289  0.9720
 5419TIP3    H237673   3.951   4.194  14.726 -0.6608  0.0249  0.4955
 5420TIP3   OH237674   6.296   5.048   5.156  0.1345  0.1180 -0.6254
 5420TIP3    H137675   6.258   4.961   5.157  2.3905 -0.9335 -0.7840
 5420TIP3    H237676   6.346   5.052   5.074  2.1607  0.5285  0.5475
 5421TIP3   OH237677   3.315   1.833  12.391  0.0994  0.3892  0.0628
 5421TIP3    H137678   3.348   1.845  12.480 -0.6991 -0.5304  0.4969
 5421TIP3    H237679   3.315   1.921  12.354 -1.4143  1.1059  1.6487
 5422TIP3   OH237680   1.222   0.246   5.317  0.4855 -0.5796 -0.1977
 5422TIP3    H137681   1.180   0.308   5.257  0.7648  1.3431  1.4699
 5422TIP3    H237682   1.151   0.187   5.344  0.0690 -0.6376 -1.3846
 5423TIP3   OH237683   1.539   0.349   3.472 -0.2361 -0.0526 -0.2711
 5423TIP3    H137684   1.604   0.285   3.445  0.0291 -0.3935  1.1181
 5423TIP3    H237685   1.458   0.299   3.482  0.0141 -0.2447  0.9990
 5424TIP3   OH237686   4.293   2.373   0.609 -0.3667  0.1648 -0.4577
 5424TIP3    H137687   4.286   2.394   0.515 -1.4679 -0.4350 -0.5316
 5424TIP3    H237688   4.310   2.457   0.651  1.0499  0.3232 -1.2624
 5425TIP3   OH237689   4.229   3.672   0.549 -0.5668 -0.4514 -0.2585
 5425TIP3    H137690   4.214   3.620   0.470  0.4395 -0.1638 -0.6637
 5425TIP3    H237691   4.180   3.627   0.617 -0.8670 -1.1190 -0.8956
 5426TIP3   OH237692   1.825   3.494  14.792  0.1595 -0.3060  0.6873
 5426TIP3    H137693   1.866   3.408  14.788 -1.1868 -1.0759  2.0493
 5426TIP3    H237694   1.766   3.496  14.716  1.0525 -0.0872 -0.0137
 5427TIP3   OH237695   4.008   3.706   3.245 -0.8925 -0.1335 -0.3214
 5427TIP3    H137696   4.017   3.616   3.213  1.7162 -0.0827  0.0786
 5427TIP3    H237697   3.944   3.699   3.316 -0.0062 -1.9063  0.3854
 5428TIP3   OH237698   0.827   1.025   3.378 -0.0020  0.4090  0.0105
 5428TIP3    H137699   0.775   1.104   3.394  0.5545  0.7785  0.0351
 5428TIP3    H237700   0.795   0.962   3.441  0.2798  0.9648  0.7241
 5429TIP3   OH237701   6.065   5.702  17.107 -0.3033 -0.2818  0.8366
 5429TIP3    H137702   6.099   5.740  17.188 -0.5773 -0.2922  0.9592
 5429TIP3    H237703   6.080   5.608  17.118 -0.7427 -0.3304  1.0749
 5430TIP3   OH237704   3.811   2.530  12.059 -0.5145 -0.4099  0.0716
 5430TIP3    H137705   3.870   2.605  12.046 -1.4915  0.6752  1.5965
 5430TIP3    H237706   3.842   2.488  12.139 -1.0894 -0.5342  0.2330
 5431TIP3   OH237707   0.117   0.169   4.408 -0.3936  0.2783 -0.2799
 5431TIP3    H137708   0.061   0.246   4.415 -0.5620  0.3668 -2.0635
 5431TIP3    H237709   0.068   0.100   4.453 -0.3293  1.1344  1.1583
 5432TIP3   OH237710   4.968   3.368  11.641  0.5561 -0.6134  0.3251
 5432TIP3    H137711   5.034   3.300  11.659 -0.2064 -1.3658  0.3281
 5432TIP3    H237712   4.967   3.375  11.545  1.3696  0.1424  0.3609
 5433TIP3   OH237713   0.208   4.266   1.435  0.3755  0.3681  0.2277
 5433TIP3    H137714   0.187   4.268   1.528 -0.9397  1.1428 -0.0679
 5433TIP3    H237715   0.253   4.349   1.418 -2.1718  1.7078 -0.4097
 5434TIP3   OH237716   3.619   4.180   3.665  0.0786 -0.4463 -0.1875
 5434TIP3    H137717   3.659   4.148   3.584  1.8034 -0.0219  0.4512
 5434TIP3    H237718   3.612   4.103   3.721 -0.4940 -0.6164 -0.4865
 5435TIP3   OH237719   3.700   3.152  14.952  0.5696  0.1808 -0.1787
 5435TIP3    H137720   3.756   3.107  14.888 -2.6718  0.2842 -3.3456
 5435TIP3    H237721   3.685   3.238  14.915 -1.5346  0.1995  0.5917
 5436TIP3   OH237722   4.848   0.591   6.477  0.1256  0.1505  0.3938
 5436TIP3    H137723   4.769   0.626   6.437  0.5304  1.7740  0.9089
 5436TIP3    H237724   4.893   0.545   6.406 -1.8304 -1.9266  0.3938
 5437TIP3   OH237725   6.340   1.860   3.864  0.3604 -0.1194 -0.2537
 5437TIP3    H137726   6.286   1.787   3.835 -1.5156  0.9037  0.4664
 5437TIP3    H237727   6.316   1.932   3.804 -2.4587  1.5966  2.6372
 5438TIP3   OH237728   0.557   2.582   5.295  0.8548 -0.5085 -0.0327
 5438TIP3    H137729   0.463   2.596   5.295  0.7848 -0.9015  0.7130
 5438TIP3    H237730   0.580   2.565   5.204  0.5429  1.6727 -0.5598
 5439TIP3   OH237731   4.760   3.283  16.321 -0.1389  0.1833  0.5288
 5439TIP3    H137732   4.684   3.233  16.351  0.6505 -1.7022 -0.4641
 5439TIP3    H237733   4.833   3.248  16.372  0.2354  1.2904  0.7714
 5440TIP3   OH237734   1.156   4.399   2.711  0.0171 -0.1133 -0.0059
 5440TIP3    H137735   1.073   4.409   2.666  0.3808  0.7542 -0.5140
 5440TIP3    H237736   1.161   4.306   2.732 -0.2958 -0.4930 -1.5030
 5441TIP3   OH237737   1.720   2.245  12.751 -0.3261  0.1820 -0.2216
 5441TIP3    H137738   1.791   2.181  12.759 -0.7360 -0.2333  0.2098
 5441TIP3    H237739   1.742   2.312  12.816 -0.5754 -0.1969  0.2677
 5442TIP3   OH237740   5.482   5.015  11.741  0.1328 -0.2714  0.1026
 5442TIP3    H137741   5.550   5.082  11.749 -0.6329  0.8831 -2.3413
 5442TIP3    H237742   5.402   5.064  11.722 -1.0276 -1.7344  0.9991
 5443TIP3   OH237743   3.923   5.371   0.106 -0.3961  0.4671  0.4612
 5443TIP3    H137744   3.996   5.430   0.089 -0.7535  0.4631 -1.3426
 5443TIP3    H237745   3.959   5.284   0.092 -0.9285  0.5041 -1.5071
 5444TIP3   OH237746   1.496   6.574  15.157 -0.1467 -0.0173 -0.0564
 5444TIP3    H137747   1.433   6.536  15.218  0.6911  0.2004  0.9743
 5444TIP3    H237748   1.531   6.651  15.202  0.1668  0.4117 -0.9955
 5445TIP3   OH237749   0.556   4.841  10.850 -0.4012  0.2750  0.1155
 5445TIP3    H137750   0.500   4.763  10.856  0.5721 -0.5421 -0.9716
 5445TIP3    H237751   0.644   4.806  10.834 -0.0687  1.6165 -1.1837
 5446TIP3   OH237752   6.514   2.345   3.348  0.0339  0.1615 -0.0266
 5446TIP3    H137753   6.483   2.338   3.258 -0.0061  0.4353 -0.0345
 5446TIP3    H237754   6.478   2.428   3.380 -0.0076  0.0356  0.2622
 5447TIP3   OH237755   5.204   1.408   2.402  0.3919  0.6881 -0.4248
 5447TIP3    H137756   5.253   1.436   2.324 -0.7152  0.6980 -1.1487
 5447TIP3    H237757   5.243   1.458   2.474  2.5753 -0.5913 -0.6546
 5448TIP3   OH237758   0.245   4.546  16.292  0.5442 -0.1949  0.1878
 5448TIP3    H137759   0.166   4.600  16.288  0.2489 -0.6691 -0.5279
 5448TIP3    H237760   0.314   4.602  16.256  0.1747 -0.3932 -0.8561
 5449TIP3   OH237761   3.894   2.440  14.580 -0.3451  0.4470  0.1804
 5449TIP3    H137762   3.833   2.479  14.643 -0.6038  2.7472 -1.3769
 5449TIP3    H237763   3.888   2.496  14.503  1.3700 -1.1633 -1.2132
 5450TIP3   OH237764   3.968   4.655   5.286  0.1594  0.2807 -0.3675
 5450TIP3    H137765   3.917   4.670   5.206 -2.8740  0.8797  1.5297
 5450TIP3    H237766   3.947   4.729   5.342  2.8862  0.3132  0.7428
 5451TIP3   OH237767   6.008   6.473  15.940  0.1475 -0.1093  0.3115
 5451TIP3    H137768   6.068   6.523  15.885  0.5351 -0.8839  0.0187
 5451TIP3    H237769   5.929   6.528  15.945  0.0057 -0.1358 -1.2135
 5452TIP3   OH237770   1.136   0.280  11.813 -0.1215 -0.1393  0.2914
 5452TIP3    H137771   1.184   0.362  11.819  0.9393 -0.7396  0.4054
 5452TIP3    H237772   1.061   0.291  11.871  1.1216  0.0213  1.9151
 5453TIP3   OH237773   4.048   2.789   2.446  0.3217 -0.0388 -0.5746
 5453TIP3    H137774   3.953   2.780   2.442  0.2641  0.5044 -0.5363
 5453TIP3    H237775   4.080   2.749   2.366  0.0524 -0.1265 -0.6383
 5454TIP3   OH237776   4.258   2.631   3.900  0.4979 -0.3444  0.3210
 5454TIP3    H137777   4.205   2.711   3.899  0.0233 -0.6339 -2.0670
 5454TIP3    H237778   4.267   2.611   3.993  0.4637  2.3482  1.0139
 5455TIP3   OH237779   3.822   4.700  16.574 -0.3035 -0.3619  0.0111
 5455TIP3    H137780   3.882   4.664  16.639  0.4453  1.6394  0.5158
 5455TIP3    H237781   3.848   4.791  16.565 -0.9664 -0.3301 -2.4667
 5456TIP3   OH237782   1.322   1.688  16.181 -0.1401 -0.3061 -0.0327
 5456TIP3    H137783   1.307   1.641  16.263 -0.3735 -0.3722 -0.1138
 5456TIP3    H237784   1.316   1.780  16.206 -1.3770 -0.3275 -0.1865
 5457TIP3   OH237785   3.746   3.610  15.747  0.4170 -0.2042 -0.0266
 5457TIP3    H137786   3.825   3.564  15.720  1.5261  1.0923  0.9275
 5457TIP3    H237787   3.697   3.545  15.797  1.4186 -0.7024  0.3347
 5458TIP3   OH237788   3.109   1.157   1.432 -0.3784  0.5971 -0.2778
 5458TIP3    H137789   3.019   1.188   1.438 -0.1960  0.9512  0.8738
 5458TIP3    H237790   3.149   1.213   1.365 -0.8751  0.7907 -0.4165
 5459TIP3   OH237791   6.217   4.105   4.841 -0.1812 -0.2354 -0.3656
 5459TIP3    H137792   6.245   4.014   4.838  1.4503  0.2074  0.4231
 5459TIP3    H237793   6.253   4.144   4.762  1.1844  0.2496  0.4660
 5460TIP3   OH237794   2.452   6.776  15.762 -0.0810 -0.4454 -0.7034
 5460TIP3    H137795   2.500   6.826  15.828  0.5326 -1.6095 -0.2323
 5460TIP3    H237796   2.459   6.829  15.682 -0.6708  0.8863  0.0981
 5461TIP3   OH237797   2.579   1.165   2.762 -0.4822 -0.5389 -0.2938
 5461TIP3    H137798   2.632   1.114   2.701 -1.5413 -0.5245 -1.2488
 5461TIP3    H237799   2.601   1.256   2.741 -0.4952 -0.5424 -0.3218
 5462TIP3   OH237800   4.736   2.654   3.258  0.0401  0.4773  0.7109
 5462TIP3    H137801   4.730   2.618   3.346 -0.9414 -2.0629 -0.2871
 5462TIP3    H237802   4.646   2.660   3.228  0.4044  0.1712 -0.5239
 5463TIP3   OH237803   0.637   0.374  16.554  0.2505  0.1634  0.1321
 5463TIP3    H137804   0.720   0.329  16.538  0.4281  0.5127  0.0612
 5463TIP3    H237805   0.571   0.319  16.513  0.2766 -0.8401  1.3669
 5464TIP3   OH237806   3.567   4.211  11.301 -0.3801 -0.1759  0.5979
 5464TIP3    H137807   3.508   4.266  11.354  1.3209  0.8473  1.4993
 5464TIP3    H237808   3.648   4.261  11.296  0.7399 -1.9624  0.1605
 5465TIP3   OH237809   6.398   4.480  12.754 -0.0523  0.3285  0.2578
 5465TIP3    H137810   6.359   4.558  12.795 -0.7651 -0.6693  1.5702
 5465TIP3    H237811   6.375   4.488  12.661 -1.3044  1.0048  0.5957
 5466TIP3   OH237812   4.573   2.018  16.156 -0.1555 -0.2726 -0.9051
 5466TIP3    H137813   4.568   2.022  16.061 -1.4052  0.7604 -0.8294
 5466TIP3    H237814   4.491   1.975  16.182  0.2968 -0.7915 -0.3009
 5467TIP3   OH237815   4.348   0.224  15.695 -0.0460 -0.4585  0.0503
 5467TIP3    H137816   4.428   0.264  15.730 -1.0879  0.4789  1.4639
 5467TIP3    H237817   4.338   0.260  15.607  1.0338 -0.5447 -0.1176
 5468TIP3   OH237818   2.556   3.211   6.077  0.1907 -0.1490  0.1067
 5468TIP3    H137819   2.651   3.220   6.077  0.2157  0.0100  1.7813
 5468TIP3    H237820   2.524   3.285   6.026  0.9407  0.4266  0.4631
 5469TIP3   OH237821   3.746   1.967  12.304 -0.1164 -0.6368 -0.1491
 5469TIP3    H137822   3.692   1.897  12.341 -0.9856  0.2325  0.2668
 5469TIP3    H237823   3.835   1.931  12.302 -0.7985 -2.3453 -1.4923
 5470TIP3   OH237824   0.258   6.727   0.378 -0.2906  0.0036 -0.1184
 5470TIP3    H137825   0.335   6.747   0.432 -0.9479  0.9482  0.5064
 5470TIP3    H237826   0.227   6.643   0.410  0.9167 -0.7589 -0.8926
 5471TIP3   OH237827   0.710   1.351  16.709 -0.0821  0.5455 -0.2471
 5471TIP3    H137828   0.725   1.259  16.690  2.7566  0.2557  2.6040
 5471TIP3    H237829   0.620   1.355  16.740 -0.1254 -1.3485 -0.0432
 5472TIP3   OH237830   1.701   0.265  12.597  1.1532 -0.2091 -0.3148
 5472TIP3    H137831   1.620   0.220  12.572  1.1502 -0.4319  0.0814
 5472TIP3    H237832   1.754   0.266  12.517  1.5275 -1.7255 -0.1041
 5473TIP3   OH237833   3.152   3.920  15.529  0.1478 -0.1248  0.4134
 5473TIP3    H137834   3.131   3.950  15.440 -0.0167 -0.8235  0.2091
 5473TIP3    H237835   3.077   3.946  15.582 -0.3559 -0.8461  0.0812
 5474TIP3   OH237836   3.468   6.302  11.152 -0.4762  0.4380 -0.5685
 5474TIP3    H137837   3.504   6.251  11.079 -0.2196 -0.7698  0.3765
 5474TIP3    H237838   3.521   6.382  11.154  2.5586 -1.4605  1.0568
 5475TIP3   OH237839   3.589   2.065   5.313  0.2222  0.3255 -0.1107
 5475TIP3    H137840   3.663   2.008   5.329  0.7300  1.4036  1.6192
 5475TIP3    H237841   3.541   2.067   5.396 -2.0919 -0.7451 -1.3030
 5476TIP3   OH237842   5.731   3.807  16.896 -0.3880  0.3485 -0.1317
 5476TIP3    H137843   5.721   3.844  16.808 -0.1917  3.4017  0.9998
 5476TIP3    H237844   5.676   3.729  16.895  0.4040 -0.3076 -3.2362
 5477TIP3   OH237845   6.290   1.774  12.166 -0.4641 -0.6321 -0.1171
 5477TIP3    H137846   6.236   1.809  12.095 -1.9159 -1.6820  0.4066
 5477TIP3    H237847   6.349   1.713  12.123 -2.2230 -2.2759 -0.3479
 5478TIP3   OH237848   3.374   1.242   5.492 -0.3032  0.0164 -0.4193
 5478TIP3    H137849   3.457   1.272   5.455 -0.8261  1.0987 -0.7789
 5478TIP3    H237850   3.339   1.181   5.427  1.5094 -2.7561  1.0238
 5479TIP3   OH237851   3.060   2.142   3.864 -0.7277 -0.5296 -0.2232
 5479TIP3    H137852   3.091   2.141   3.955 -1.4526 -2.1823  0.0401
 5479TIP3    H237853   3.117   2.081   3.818  1.3872  2.2349 -1.5916
 5480TIP3   OH237854   0.360   3.467   5.809  0.3347 -0.1062  0.7692
 5480TIP3    H137855   0.314   3.415   5.874 -2.8489  0.8495 -0.5577
 5480TIP3    H237856   0.384   3.404   5.741  2.6738 -0.9027  2.2139
 5481TIP3   OH237857   4.264   1.035   0.247 -0.3231 -0.5030 -0.0911
 5481TIP3    H137858   4.259   1.076   0.161  0.2769  1.1985  0.6271
 5481TIP3    H237859   4.322   0.960   0.235  1.4940  0.9370 -0.7606
 5482TIP3   OH237860   2.214   3.173  12.071 -0.1029  0.1194 -0.0564
 5482TIP3    H137861   2.277   3.143  12.006  0.4891 -0.9637  0.9920
 5482TIP3    H237862   2.194   3.096  12.124 -0.2966  1.0345  1.2750
 5483TIP3   OH237863   1.439   2.378  16.649 -0.3833 -0.1247 -0.2545
 5483TIP3    H137864   1.500   2.433  16.599  0.9959 -0.9371  0.4874
 5483TIP3    H237865   1.493   2.336  16.716 -1.3290 -2.5493 -0.9130
 5484TIP3   OH237866   1.062   0.422   5.163 -0.0534  0.2678  0.1202
 5484TIP3    H137867   1.065   0.468   5.080  0.5292 -1.5999 -0.9424
 5484TIP3    H237868   0.969   0.410   5.181 -0.2854  2.6469  0.9538
 5485TIP3   OH237869   3.462   4.625  15.587  0.3704  0.1394  0.3327
 5485TIP3    H137870   3.405   4.573  15.644 -3.2059  2.7003 -0.5198
 5485TIP3    H237871   3.492   4.697  15.643  0.8539  0.0629  0.1734
 5486TIP3   OH237872   2.554   5.856   3.369 -0.1412  0.1803 -0.5208
 5486TIP3    H137873   2.620   5.924   3.376  1.7308 -1.3002 -2.2781
 5486TIP3    H237874   2.604   5.774   3.374 -2.3696 -1.1944  2.4170
 5487TIP3   OH237875   3.915   4.191   5.572 -0.0776  0.6301  0.3747
 5487TIP3    H137876   3.911   4.236   5.488  0.8912  0.4123  0.1971
 5487TIP3    H237877   3.912   4.098   5.550  1.5894  0.5276  0.4503
 5488TIP3   OH237878   3.499   0.425  13.724  0.0633  0.6973 -0.3937
 5488TIP3    H137879   3.469   0.379  13.646  0.0238  0.6637 -0.3585
 5488TIP3    H237880   3.594   0.432  13.713  0.1187  0.2809 -0.2235
 5489TIP3   OH237881   6.177   5.961   0.392 -0.5800 -0.5883 -0.1104
 5489TIP3    H137882   6.261   5.917   0.382 -0.6373 -0.5765 -0.6512
 5489TIP3    H237883   6.200   6.050   0.419 -0.3872 -0.3909 -0.9075
 5490TIP3   OH237884   2.670   4.747  15.755 -0.2188  0.2193  0.1535
 5490TIP3    H137885   2.575   4.759  15.754 -0.1568  0.8638  0.9424
 5490TIP3    H237886   2.701   4.804  15.826  0.7839  0.2017 -0.2502
 5491TIP3   OH237887   2.573   4.264  12.697 -0.0171  0.0871 -0.3637
 5491TIP3    H137888   2.535   4.267  12.784  0.3681  0.4304 -0.2049
 5491TIP3    H237889   2.534   4.338  12.651  1.1300  0.9786  0.0803
 5492TIP3   OH237890   0.512   0.857   3.671  0.2745  0.2344  0.1192
 5492TIP3    H137891   0.448   0.927   3.683  0.6071  0.7353 -0.9301
 5492TIP3    H237892   0.597   0.901   3.676  0.4775  0.0264 -1.1424
 5493TIP3   OH237893   2.425   0.853   0.656  0.6198 -0.0585 -0.8894
 5493TIP3    H137894   2.468   0.796   0.592 -2.1743 -4.9217  1.0525
 5493TIP3    H237895   2.332   0.846   0.635 -0.0070  2.7162  0.4731
 5494TIP3   OH237896   4.213   6.589  15.214  0.0216  0.1468  0.9007
 5494TIP3    H137897   4.262   6.588  15.296 -1.0596  0.8046  1.5962
 5494TIP3    H237898   4.163   6.507  15.215 -0.0650  0.1992  0.9570
 5495TIP3   OH237899   6.003   0.491  12.459 -0.0132  0.4107 -0.1994
 5495TIP3    H137900   6.099   0.494  12.457  0.1007 -1.7616 -0.2820
 5495TIP3    H237901   5.976   0.579  12.431  1.9366  1.0984 -0.1050
 5496TIP3   OH237902   3.233   6.063  13.810 -0.1879  0.5087  0.1487
 5496TIP3    H137903   3.324   6.087  13.826  0.5648 -2.0693  0.1084
 5496TIP3    H237904   3.210   6.006  13.884 -2.0526  1.6823  0.5519
 5497TIP3   OH237905   1.065   4.467   5.498  0.6574 -0.3098  0.2632
 5497TIP3    H137906   1.115   4.542   5.532 -0.2028 -0.3507  1.7219
 5497TIP3    H237907   1.108   4.445   5.415 -0.1161  2.8861 -1.1318
 5498TIP3   OH237908   5.187   1.446  11.712 -0.1147  0.2621 -0.5860
 5498TIP3    H137909   5.130   1.411  11.642 -1.1651 -0.8023  0.7400
 5498TIP3    H237910   5.133   1.512  11.755  0.0080 -0.0448  0.0478
 5499TIP3   OH237911   0.832   2.917  13.758  0.0360 -0.2451  0.2430
 5499TIP3    H137912   0.925   2.895  13.747  0.1168  0.2419 -0.0399
 5499TIP3    H237913   0.791   2.891  13.676 -0.4298 -2.2411  1.0502
 5500TIP3   OH237914   5.711   5.019   2.366 -0.2734  0.1396 -0.1473
 5500TIP3    H137915   5.787   5.049   2.415 -0.4837  0.6529 -0.1301
 5500TIP3    H237916   5.715   4.924   2.371  0.0747  0.1768  0.2991
 5501TIP3   OH237917   1.262   4.861   6.452 -0.7969  0.2425 -0.0519
 5501TIP3    H137918   1.170   4.837   6.467 -0.6640  0.3701  0.9858
 5501TIP3    H237919   1.259   4.955   6.436 -0.6876  0.5516  1.5903
 5502TIP3   OH237920   0.651   2.311  12.321 -0.4272  0.1769  0.0663
 5502TIP3    H137921   0.664   2.380  12.386 -1.1144  0.3276  0.0517
 5502TIP3    H237922   0.651   2.357  12.237  2.0764 -0.1929 -0.2243
 5503TIP3   OH237923   5.211   4.830  13.972  0.4798 -0.0425  0.0329
 5503TIP3    H137924   5.294   4.828  14.020  0.6395 -0.3708 -0.2574
 5503TIP3    H237925   5.211   4.915  13.928  0.5506  0.0594  0.2251
 5504TIP3   OH237926   2.428   0.382  15.780  0.0038  0.4410  0.3156
 5504TIP3    H137927   2.496   0.315  15.779 -1.0925 -0.7109  0.9220
 5504TIP3    H237928   2.360   0.349  15.721 -0.2333  1.3679  0.0471
 5505TIP3   OH237929   0.367   3.904   4.843  0.1818 -0.1101 -0.2692
 5505TIP3    H137930   0.417   3.962   4.901 -0.9634  0.4482  0.1823
 5505TIP3    H237931   0.277   3.911   4.874 -0.0014 -2.1584 -0.1996
 5506TIP3   OH237932   0.016   1.169  11.670  0.3270 -0.3086 -0.5260
 5506TIP3    H137933   0.104   1.177  11.634  0.0751 -0.3429 -1.1592
 5506TIP3    H237934  -0.033   1.242  11.632  0.3827  0.4230  0.7532
 5507TIP3   OH237935   5.550   2.930   2.347  0.4610 -0.1135 -0.0204
 5507TIP3    H137936   5.608   2.919   2.272  0.6139  0.3898  0.0202
 5507TIP3    H237937   5.566   3.019   2.377 -1.8449  0.8060 -1.2830
 5508TIP3   OH237938   0.667   1.544  11.099  0.1851  0.0149 -0.0787
 5508TIP3    H137939   0.640   1.635  11.084  0.1069 -0.0538 -0.3718
 5508TIP3    H237940   0.639   1.498  11.019 -1.6071 -0.6644  0.8719
 5509TIP3   OH237941   4.243   2.127  11.118  0.2941 -0.0706  0.4345
 5509TIP3    H137942   4.304   2.142  11.190  0.3390 -1.8800  0.8110
 5509TIP3    H237943   4.239   2.032  11.108 -2.3666 -0.0235  0.3309
 5510TIP3   OH237944   1.634   5.550  14.072 -0.1400 -0.1101  0.3956
 5510TIP3    H137945   1.639   5.488  14.144  1.0911 -0.8533 -0.2900
 5510TIP3    H237946   1.592   5.627  14.109 -0.8076 -0.9906  1.5222
 5511TIP3   OH237947   0.120   3.250  14.472 -0.0728 -0.1090  0.0415
 5511TIP3    H137948   0.127   3.327  14.529  2.8874 -0.2185  0.0094
 5511TIP3    H237949   0.186   3.190  14.506  0.2685 -1.0756 -2.1750
 5512TIP3   OH237950   2.845   2.881   5.146  0.9756  0.3327 -0.1740
 5512TIP3    H137951   2.791   2.931   5.086  0.1392 -2.5290 -2.0001
 5512TIP3    H237952   2.788   2.810   5.177  1.9908  0.5360  2.4980
 5513TIP3   OH237953   2.641   0.712  11.715 -0.0987 -0.3319  0.2566
 5513TIP3    H137954   2.602   0.783  11.767  0.4004 -0.7359  1.2093
 5513TIP3    H237955   2.602   0.722  11.628  0.3394  1.4329  0.2181
 5514TIP3   OH237956   5.144   0.111  15.390  0.2704  0.4359 -0.2218
 5514TIP3    H137957   5.087   0.181  15.358 -0.8304 -0.3652 -0.0856
 5514TIP3    H237958   5.112   0.093  15.479 -0.2078 -0.9777 -0.6480
 5515TIP3   OH237959   1.641   6.560   3.504 -0.2553 -0.4315  0.4316
 5515TIP3    H137960   1.626   6.471   3.536  1.0046 -0.8743 -0.1412
 5515TIP3    H237961   1.682   6.547   3.418  0.6949  0.6927  0.7035
 5516TIP3   OH237962   6.150   2.186  12.997  0.3051  0.0974  0.0396
 5516TIP3    H137963   6.085   2.216  12.934  1.1397  0.7660 -0.5288
 5516TIP3    H237964   6.207   2.262  13.011 -0.2467  0.1887  2.1289
 5517TIP3   OH237965   0.603   4.800   3.311  0.2878  0.2383  0.3886
 5517TIP3    H137966   0.656   4.825   3.387 -0.0205  0.6933  0.4592
 5517TIP3    H237967   0.577   4.883   3.272 -0.9529  0.0456  0.7560
 5518TIP3   OH237968   0.317   1.685  11.316 -0.1407 -0.5886  0.3252
 5518TIP3    H137969   0.292   1.730  11.397  0.4268 -0.2584  0.3175
 5518TIP3    H237970   0.247   1.707  11.254  0.8695  1.5690 -0.1432
 5519TIP3   OH237971   2.226   6.081  11.569  0.4619  0.5242 -0.5452
 5519TIP3    H137972   2.273   6.151  11.523  1.2857 -0.7500 -1.7123
 5519TIP3    H237973   2.273   6.001  11.546 -2.2098 -0.8356 -1.7023
 5520TIP3   OH237974   2.671   5.130   6.504 -0.9902 -0.1875 -0.1455
 5520TIP3    H137975   2.762   5.139   6.531 -1.0902  0.9882 -0.1396
 5520TIP3    H237976   2.650   5.213   6.461 -1.9875 -0.5303 -0.3567
 5521TIP3   OH237977   5.476   2.926  15.417 -0.0556 -0.0787 -0.0242
 5521TIP3    H137978   5.394   2.916  15.464 -0.1729 -1.7109 -0.5034
 5521TIP3    H237979   5.528   2.850  15.443  1.9637  1.6922  1.4768
 5522TIP3   OH237980   3.842   0.815   5.503 -0.2370  1.0558  0.3326
 5522TIP3    H137981   3.778   0.849   5.439 -0.9793  0.4300  0.7236
 5522TIP3    H237982   3.909   0.773   5.449 -0.8672  0.5120 -0.0495
 5523TIP3   OH237983   4.290   5.011  14.822  0.2245 -0.2765 -0.3378
 5523TIP3    H137984   4.195   5.011  14.836  0.2863 -0.2139  0.0891
 5523TIP3    H237985   4.322   4.939  14.876  0.4125 -0.3608 -0.5587
 5524TIP3   OH237986   2.386   0.303   5.090 -0.9051 -0.2178  0.2583
 5524TIP3    H137987   2.308   0.258   5.121 -0.6914 -0.4126  0.5198
 5524TIP3    H237988   2.403   0.371   5.155  0.5529 -1.7365  1.5627
 5525TIP3   OH237989   0.140   1.922  13.164  0.4354 -0.1380 -0.2051
 5525TIP3    H137990   0.198   1.971  13.106  0.9228 -0.0080  0.3693
 5525TIP3    H237991   0.080   1.876  13.106  0.2018  0.8553 -0.7712
 5526TIP3   OH237992   6.395   0.711  11.987 -0.0374  0.4592  0.0309
 5526TIP3    H137993   6.344   0.779  11.944 -0.0035  0.6427  0.2798
 5526TIP3    H237994   6.455   0.679  11.920 -1.1730 -0.4801 -0.5735
 5527TIP3   OH237995   3.276   5.250  13.710  0.1884 -0.3352  0.0838
 5527TIP3    H137996   3.218   5.239  13.635  0.2329 -0.5055  0.0724
 5527TIP3    H237997   3.350   5.300  13.676 -0.4249  0.7815  0.3485
 5528TIP3   OH237998   5.031   5.958   5.667  0.1969 -0.0224 -0.6307
 5528TIP3    H137999   5.012   5.901   5.741  2.2275  1.4054  1.1013
 5528TIP3    H238000   4.995   6.043   5.692  2.0105  0.8000 -0.6463
 5529TIP3   OH238001   1.199   3.072   1.335 -0.1207 -0.1282  0.1285
 5529TIP3    H138002   1.252   3.079   1.415 -0.1133  2.8114 -0.0377
 5529TIP3    H238003   1.263   3.069   1.264 -0.1197 -2.9993  0.1395
 5530TIP3   OH238004   4.616   5.287  16.163 -0.1112  0.5466  0.1643
 5530TIP3    H138005   4.645   5.199  16.184 -1.9235  0.1662  1.3136
 5530TIP3    H238006   4.691   5.343  16.184  1.1125 -0.6916 -0.7217
 5531TIP3   OH238007   0.104   1.909   0.630 -0.4112  0.3044  0.5471
 5531TIP3    H138008   0.017   1.931   0.664 -0.2125  2.7512 -0.3395
 5531TIP3    H238009   0.165   1.952   0.690  0.0430  1.3767 -0.6214
 5532TIP3   OH238010   1.072   2.224   4.492  0.0725  0.0486  0.2246
 5532TIP3    H138011   1.138   2.225   4.561 -0.3525  1.1077  0.6449
 5532TIP3    H238012   1.100   2.154   4.433  0.7913 -0.4562  1.1277
 5533TIP3   OH238013   4.151   2.016   3.213 -0.2466  0.3234 -0.0162
 5533TIP3    H138014   4.072   2.033   3.162  0.2131  1.8522 -0.2491
 5533TIP3    H238015   4.148   2.079   3.285  0.3064 -0.2364  0.5179
 5534TIP3   OH238016   3.482   2.539  10.114 -0.3673 -0.3086  0.1545
 5534TIP3    H138017   3.464   2.455  10.156  0.5851 -1.1040 -0.9894
 5534TIP3    H238018   3.525   2.591  10.182  1.0353 -1.5329  0.2388
 5535TIP3   OH238019   3.629   6.201  14.116  0.7803 -0.1061  0.2772
 5535TIP3    H138020   3.690   6.158  14.176 -0.1133 -2.5568 -0.4809
 5535TIP3    H238021   3.543   6.169  14.141  0.1921  0.3325 -1.0958
 5536TIP3   OH238022   3.528   6.284   1.097  0.3819 -0.0769 -0.7533
 5536TIP3    H138023   3.541   6.340   1.173 -0.6114  0.5287 -1.0073
 5536TIP3    H238024   3.614   6.245   1.081  0.7508  0.2649  0.2917
 5537TIP3   OH238025   3.066   1.984   1.816 -0.5769  0.2401 -0.5861
 5537TIP3    H138026   3.128   1.932   1.868 -1.2660  2.1517  2.4202
 5537TIP3    H238027   2.985   1.981   1.866 -2.2213 -0.0656 -3.0961
 5538TIP3   OH238028   1.503   3.809   1.094 -0.0230  0.3866 -0.1795
 5538TIP3    H138029   1.563   3.857   1.037 -0.5081 -0.6997 -1.6822
 5538TIP3    H238030   1.559   3.742   1.135  0.2827  1.0165  0.4398
 5539TIP3   OH238031   1.974   4.402  16.122  0.1725  0.0731 -0.5295
 5539TIP3    H138032   1.956   4.310  16.103 -0.6999 -0.0466  0.7492
 5539TIP3    H238033   2.035   4.400  16.195  0.0773  0.5124 -0.4381
 5540TIP3   OH238034   3.611   3.408   4.368  0.1027  0.1776 -0.6099
 5540TIP3    H138035   3.702   3.385   4.389 -0.7792 -0.7700  2.7397
 5540TIP3    H238036   3.616   3.498   4.336  2.0605  1.0608  1.8593
 5541TIP3   OH238037   2.547   1.988  16.960  0.6632 -0.0218 -0.2418
 5541TIP3    H138038   2.622   2.046  16.954  0.9369 -0.4649 -1.3014
 5541TIP3    H238039   2.571   1.911  16.908 -0.4140 -0.2902 -0.3725
 5542TIP3   OH238040   1.055   6.354   6.311  0.1289  0.8121  0.2318
 5542TIP3    H138041   0.967   6.381   6.338 -0.1442  1.4500 -1.2291
 5542TIP3    H238042   1.092   6.431   6.268  0.2589 -0.3572 -1.8441
 5543TIP3   OH238043   1.490   0.514  12.618 -0.3160 -0.5341  0.4235
 5543TIP3    H138044   1.441   0.519  12.536  1.6175  0.0564 -0.7538
 5543TIP3    H238045   1.565   0.458  12.598  1.2095  1.1144  1.1806
 5544TIP3   OH238046   5.887   3.879   2.387 -0.6460  0.0433 -0.6603
 5544TIP3    H138047   5.816   3.836   2.435 -2.3471  2.1416 -1.1595
 5544TIP3    H238048   5.913   3.815   2.321 -1.5463 -1.0502 -0.0027
 5545TIP3   OH238049   1.676   5.833   0.468 -0.1070  0.1783  0.7827
 5545TIP3    H138050   1.741   5.902   0.480 -0.9551  1.1926 -0.1871
 5545TIP3    H238051   1.594   5.880   0.450 -0.9799 -1.0685  1.3419
 5546TIP3   OH238052   0.107   2.201  12.231 -0.2954 -0.1934 -0.2213
 5546TIP3    H138053   0.178   2.265  12.227 -1.0983  0.8575  1.3416
 5546TIP3    H238054   0.070   2.200  12.142 -0.0684  1.2865 -0.3493
 5547TIP3   OH238055   3.419   1.168   4.080 -0.5067  1.0418 -0.6235
 5547TIP3    H138056   3.424   1.170   3.984 -1.5344 -0.4956 -0.7450
 5547TIP3    H238057   3.429   1.075   4.103  1.0369  1.5267  0.8694
 5548TIP3   OH238058   3.161   2.827   0.237  0.6423 -0.3419  0.3344
 5548TIP3    H138059   3.249   2.821   0.275  0.7513 -2.3966 -0.0736
 5548TIP3    H238060   3.177   2.854   0.146  0.8360 -0.4121  0.3455
 5549TIP3   OH238061   4.920   1.484   1.301  0.2545  0.5278  0.4816
 5549TIP3    H138062   4.936   1.439   1.384 -1.9068  1.9109  1.7327
 5549TIP3    H238063   4.863   1.424   1.252  0.2108  0.4015  0.6845
 5550TIP3   OH238064   2.740   2.318  13.434  0.1741 -0.1560 -0.3426
 5550TIP3    H138065   2.783   2.370  13.502  0.8568  1.5633 -2.0114
 5550TIP3    H238066   2.673   2.376  13.398  1.1812 -0.2485 -2.4948
 5551TIP3   OH238067   4.448   5.758   4.315  0.4114 -0.3692  0.1429
 5551TIP3    H138068   4.500   5.821   4.364  0.6960 -0.2506 -0.3004
 5551TIP3    H238069   4.375   5.809   4.279  1.0620 -0.1196 -0.8576
 5552TIP3   OH238070   2.871   5.977  16.696 -0.1657  0.7999  0.2694
 5552TIP3    H138071   2.899   6.053  16.645 -1.1892  0.5302 -0.7424
 5552TIP3    H238072   2.796   5.941  16.648  0.8033 -1.3668  0.2423
 5553TIP3   OH238073   0.059   0.873   5.761  0.6055  0.0353  0.6143
 5553TIP3    H138074  -0.008   0.806   5.748  0.7152 -0.1149  0.8015
 5553TIP3    H238075   0.036   0.914   5.844 -0.9327  1.9900 -0.7082
 5554TIP3   OH238076   1.681   5.148   3.787 -0.4567  0.6803  0.0120
 5554TIP3    H138077   1.625   5.088   3.837  0.5499  0.8032  1.3328
 5554TIP3    H238078   1.631   5.229   3.783 -0.8978  0.4174  0.1274
 5555TIP3   OH238079   3.659   5.235  14.898  0.3277 -0.5771  0.1150
 5555TIP3    H138080   3.608   5.279  14.966  1.0299 -2.8003  2.2228
 5555TIP3    H238081   3.680   5.305  14.836 -2.7597  1.0100  0.6132
 5556TIP3   OH238082   3.215   4.179  13.222 -0.1625 -0.5808 -0.3993
 5556TIP3    H138083   3.264   4.258  13.199 -0.7604 -0.5115 -1.5155
 5556TIP3    H238084   3.163   4.204  13.298  2.0314 -0.8713  1.3208
 5557TIP3   OH238085   2.921   0.164   3.388  0.7254  0.5102  0.5830
 5557TIP3    H138086   2.914   0.260   3.387  0.7280  0.5114  0.7018
 5557TIP3    H238087   2.885   0.137   3.304  1.7658  0.6936  0.0540
 5558TIP3   OH238088   0.557   4.261  11.601 -0.8765 -0.1898  0.1478
 5558TIP3    H138089   0.615   4.254  11.525 -0.0019  1.6617  0.5953
 5558TIP3    H238090   0.600   4.210  11.669  0.7410  1.8695  0.7377
 5559TIP3   OH238091   0.034   2.535  16.780  0.4626  0.0136  0.2697
 5559TIP3    H138092  -0.042   2.500  16.826  0.8090 -0.6794  0.3211
 5559TIP3    H238093   0.050   2.473  16.709 -0.8322  1.6714 -1.6237
 5560TIP3   OH238094   1.547   3.808  14.143  0.2879  0.2402 -0.0466
 5560TIP3    H138095   1.548   3.720  14.104 -2.1637  0.2271 -0.2422
 5560TIP3    H238096   1.497   3.797  14.224 -0.6845  1.5929 -0.4389
 5561TIP3   OH238097   5.615   4.564  17.055  0.5284 -0.3764 -0.1319
 5561TIP3    H138098   5.572   4.542  17.137  0.1750  0.1159 -0.1839
 5561TIP3    H238099   5.706   4.540  17.068  0.2624 -1.3679  0.0043
 5562TIP3   OH238100   3.247   3.454  13.403  0.6762  0.1543 -0.0452
 5562TIP3    H138101   3.341   3.441  13.401  0.8036  1.0314  0.1334
 5562TIP3    H238102   3.219   3.419  13.488  0.8030 -0.3001 -0.1880
 5563TIP3   OH238103   0.652   5.811   3.086 -1.0998  0.0309 -0.0513
 5563TIP3    H138104   0.734   5.803   3.135 -0.0132  0.1468 -1.7783
 5563TIP3    H238105   0.583   5.800   3.152  0.2838  0.9519  1.6270
 5564TIP3   OH238106   2.295   1.539  15.601  0.6701 -0.0299  0.0473
 5564TIP3    H138107   2.335   1.469  15.654  0.7909  2.0900  3.0210
 5564TIP3    H238108   2.321   1.620  15.645 -1.8220  1.7863 -1.5520
 5565TIP3   OH238109   3.112   3.634   2.668  0.4567  0.6773  0.3300
 5565TIP3    H138110   3.208   3.641   2.669  0.7075 -1.0252 -2.0222
 5565TIP3    H238111   3.095   3.542   2.651 -1.7145  0.5892  2.4164
 5566TIP3   OH238112   1.271   4.615  15.391 -0.7694 -0.6048  0.3523
 5566TIP3    H138113   1.280   4.523  15.418 -0.9275 -1.0498 -1.0207
 5566TIP3    H238114   1.345   4.659  15.431 -0.8695 -1.2703  1.2978
 5567TIP3   OH238115   4.373   0.220   1.561  0.0437 -0.0576 -0.3085
 5567TIP3    H138116   4.366   0.260   1.474 -2.6629 -0.5903 -0.4373
 5567TIP3    H238117   4.282   0.206   1.587  0.6825  1.5892  3.3526
 5568TIP3   OH238118   1.335   4.359  14.914  0.1713 -0.4371  0.0515
 5568TIP3    H138119   1.375   4.297  14.975 -0.3044 -0.8211 -0.0178
 5568TIP3    H238120   1.290   4.303  14.850 -1.4908 -0.0278  0.8032
 5569TIP3   OH238121   3.967   1.587  15.919 -0.8293  0.2557  0.2152
 5569TIP3    H138122   3.877   1.568  15.893 -1.6090  0.3200  2.6391
 5569TIP3    H238123   4.004   1.501  15.942 -0.7436  0.3942  0.5954
 5570TIP3   OH238124   4.920   5.695   1.352 -0.3927 -0.5540  0.0852
 5570TIP3    H138125   4.904   5.608   1.314  0.4348  0.2440 -2.2755
 5570TIP3    H238126   4.899   5.685   1.445 -1.7559 -2.8795 -0.3969
 5571TIP3   OH238127   4.916   2.795  15.786 -0.1985 -0.0389  0.3788
 5571TIP3    H138128   4.933   2.889  15.797  0.4683 -0.2703  1.5103
 5571TIP3    H238129   5.001   2.753  15.800 -0.4054 -0.8004 -0.5167
 5572TIP3   OH238130   1.454   0.541   2.663 -0.5141  0.3223  0.0555
 5572TIP3    H138131   1.506   0.516   2.739 -1.1924 -0.8242  0.1622
 5572TIP3    H238132   1.478   0.632   2.648 -0.3487  0.5768  1.6286
 5573TIP3   OH238133   4.335   6.334  14.687  0.0952 -0.0198 -0.1454
 5573TIP3    H138134   4.311   6.415  14.732 -0.6424 -0.8737  1.0682
 5573TIP3    H238135   4.257   6.279  14.695  1.0504 -1.3535  0.2779
 5574TIP3   OH238136   5.392   4.706  15.492  0.0758 -0.4660  0.0958
 5574TIP3    H138137   5.303   4.736  15.478 -0.4838 -1.3219  1.6428
 5574TIP3    H238138   5.432   4.773  15.547  0.1673 -0.4517  0.0142
 5575TIP3   OH238139   1.407   0.165  11.492  0.2553 -0.1308 -0.3609
 5575TIP3    H138140   1.370   0.252  11.508  1.0849  0.2261 -0.3648
 5575TIP3    H238141   1.349   0.106  11.541 -0.1329  0.4462 -0.1041
 5576TIP3   OH238142   0.114   2.385   5.516  0.1562 -0.4848  0.3949
 5576TIP3    H138143   0.129   2.480   5.518 -0.0727 -0.4575  1.2970
 5576TIP3    H238144   0.069   2.366   5.599 -0.2945 -1.3016 -0.0246
 5577TIP3   OH238145   4.716   5.922   4.833 -0.3437 -0.4533 -0.2902
 5577TIP3    H138146   4.734   5.862   4.761 -0.8811 -0.5006 -0.3906
 5577TIP3    H238147   4.724   5.870   4.912  2.2380  0.0318 -0.1453
 5578TIP3   OH238148   6.344   2.002   4.960  0.0449 -0.8174  0.0191
 5578TIP3    H138149   6.297   2.085   4.973 -0.4841 -1.0835 -0.1567
 5578TIP3    H238150   6.429   2.028   4.926 -0.5880 -0.3942 -1.3159
 5579TIP3   OH238151   0.139   5.059   2.549  0.5723 -0.0036 -0.2510
 5579TIP3    H138152   0.228   5.028   2.566  0.9906  0.7876 -0.9055
 5579TIP3    H238153   0.151   5.139   2.497 -0.5713 -0.7518 -1.7269
 5580TIP3   OH238154   4.606   0.823   5.482 -0.7945  0.1559 -0.0025
 5580TIP3    H138155   4.642   0.738   5.506  0.9972  0.8801  0.0232
 5580TIP3    H238156   4.609   0.874   5.562  1.3345  1.2749 -0.7195
 5581TIP3   OH238157   1.346   6.513   3.643  0.0728 -0.3534 -0.0748
 5581TIP3    H138158   1.343   6.493   3.550  0.1191  0.6689 -0.3131
 5581TIP3    H238159   1.319   6.605   3.649  2.5671  0.4246  0.6447
 5582TIP3   OH238160   3.587   0.025   0.786  0.0252  0.1734  0.1764
 5582TIP3    H138161   3.610  -0.061   0.820 -1.0435  0.1958  0.9995
 5582TIP3    H238162   3.555   0.008   0.697 -1.7542 -0.5367  0.8970
 5583TIP3   OH238163   2.049   0.641  16.717  0.1557  0.1408 -0.0156
 5583TIP3    H138164   2.113   0.655  16.786  0.6160  0.8688 -0.5853
 5583TIP3    H238165   2.025   0.548  16.724  1.1906 -0.1074  0.2637
 5584TIP3   OH238166   1.267   5.451  16.303 -0.4303  0.0332  0.1781
 5584TIP3    H138167   1.254   5.396  16.226  0.4476 -0.9454  0.6983
 5584TIP3    H238168   1.357   5.483  16.295 -1.1179  1.9774 -0.4497
 5585TIP3   OH238169   6.221   1.113   2.872  0.2979  0.0055  0.0606
 5585TIP3    H138170   6.299   1.081   2.825  0.5511  1.2178 -0.3889
 5585TIP3    H238171   6.166   1.036   2.883  0.9094 -0.5959 -0.9312
 5586TIP3   OH238172   4.866   4.492   4.826  0.4603  0.5373 -0.0743
 5586TIP3    H138173   4.940   4.481   4.885 -0.9164  3.7004  2.5388
 5586TIP3    H238174   4.791   4.460   4.876 -0.3860  0.2845 -1.4444
 5587TIP3   OH238175   2.064   0.116   5.693 -0.3946  0.0050  0.6514
 5587TIP3    H138176   2.125   0.188   5.680 -0.6931  0.1907  0.2535
 5587TIP3    H238177   2.040   0.121   5.785  0.3745 -0.2211  0.8695
 5588TIP3   OH238178   0.893   4.194  16.265 -0.1039  0.1142  0.0425
 5588TIP3    H138179   0.937   4.209  16.349  0.5362 -0.9541 -0.0843
 5588TIP3    H238180   0.940   4.250  16.204  0.8199 -0.6795 -0.0019
 5589TIP3   OH238181   4.294   5.735   4.590  0.0752 -0.4192 -0.3668
 5589TIP3    H138182   4.230   5.752   4.659 -1.3263 -0.5403 -1.5951
 5589TIP3    H238183   4.376   5.720   4.637 -0.7999 -0.3616  1.2565
 5590TIP3   OH238184   2.540   3.550  16.862  0.2667  0.3918  0.0274
 5590TIP3    H138185   2.602   3.542  16.934  0.7938  0.5138 -0.4093
 5590TIP3    H238186   2.456   3.567  16.904  0.0136 -2.2835  0.7744
 5591TIP3   OH238187   1.953   1.415  15.428 -0.4290  0.5958 -0.4681
 5591TIP3    H138188   2.041   1.423  15.392  0.4138  1.3564  1.5851
 5591TIP3    H238189   1.940   1.497  15.477 -1.7500 -0.0529  0.3165
 5592TIP3   OH238190   0.656   3.488   1.998 -0.6016 -0.0393  0.4762
 5592TIP3    H138191   0.572   3.467   1.957 -1.4761  3.1797  0.4212
 5592TIP3    H238192   0.637   3.490   2.092 -0.1196 -1.0543  0.6101
 5593TIP3   OH238193   3.481   4.075  13.293 -0.3173 -0.2886 -0.3209
 5593TIP3    H138194   3.524   4.051  13.211  0.7405  0.9904 -0.1653
 5593TIP3    H238195   3.408   4.131  13.267 -0.7170 -0.8596 -0.4515
 5594TIP3   OH238196   2.995   0.531   4.258 -0.4842 -0.1479  0.1504
 5594TIP3    H138197   3.020   0.594   4.324  0.7091 -0.3386 -0.0970
 5594TIP3    H238198   2.917   0.568   4.217 -0.1155  0.8969  0.3750
 5595TIP3   OH238199   1.468   1.507  12.309  0.3812 -0.6008 -0.1285
 5595TIP3    H138200   1.533   1.541  12.247  0.9577 -2.7841 -0.8043
 5595TIP3    H238201   1.487   1.554  12.390  1.5071  0.2495 -0.8402
 5596TIP3   OH238202   3.671   0.242  15.378 -0.2441 -0.0311  0.1366
 5596TIP3    H138203   3.751   0.283  15.408  1.0392 -0.1798 -2.7853
 5596TIP3    H238204   3.695   0.151  15.361 -0.9085  0.0129 -1.1575
 5597TIP3   OH238205   2.767   4.686  16.545  0.1272  0.1858  1.1280
 5597TIP3    H138206   2.785   4.776  16.516  0.6395 -0.8538 -2.1264
 5597TIP3    H238207   2.852   4.651  16.570  0.0080  0.3843  1.8508
 5598TIP3   OH238208   3.285   5.556  17.148  0.1328  0.4345  0.2564
 5598TIP3    H138209   3.237   5.636  17.126 -0.7736 -0.1521  0.0323
 5598TIP3    H238210   3.351   5.584  17.211 -0.5142  1.2797  0.5777
 5599TIP3   OH238211   4.521   2.372  15.349  0.1523  0.5058 -0.6168
 5599TIP3    H138212   4.598   2.388  15.403  0.2046 -0.0059 -0.5349
 5599TIP3    H238213   4.452   2.349  15.412  0.2749 -0.3298 -0.7722
 5600TIP3   OH238214   0.169   6.440  16.512  0.2731  0.3668  0.3434
 5600TIP3    H138215   0.156   6.496  16.589  0.5696  0.6865  0.1647
 5600TIP3    H238216   0.254   6.467  16.477 -0.8559  1.8291 -1.4136
 5601TIP3   OH238217   1.994   2.461   4.008 -0.2994 -0.2266  0.0696
 5601TIP3    H138218   1.987   2.395   3.939 -0.6891  0.4804 -0.5847
 5601TIP3    H238219   2.068   2.433   4.061 -0.5971 -1.3045 -0.0662
 5602TIP3   OH238220   4.903   1.498   5.340 -1.0059 -0.7155  0.0889
 5602TIP3    H138221   4.929   1.456   5.258 -0.5764 -0.0618 -0.1176
 5602TIP3    H238222   4.886   1.425   5.400  0.4270 -1.1836 -0.0466
 5603TIP3   OH238223   1.585   3.472  16.775 -0.1965  0.2669 -0.2762
 5603TIP3    H138224   1.570   3.504  16.864  0.7904 -1.1069  0.4273
 5603TIP3    H238225   1.589   3.376  16.785  0.5868  0.1282 -1.6991
 5604TIP3   OH238226   5.289   5.148  15.357  0.0650 -0.1714 -0.2268
 5604TIP3    H138227   5.241   5.094  15.295 -0.0372 -0.5602  0.1876
 5604TIP3    H238228   5.380   5.144  15.327 -0.3369  1.9258 -2.0207
 5605TIP3   OH238229   2.612   1.230  11.859  0.1436 -0.0435  0.3162
 5605TIP3    H138230   2.580   1.140  11.847 -0.7545  0.5147 -2.0158
 5605TIP3    H238231   2.540   1.275  11.902 -0.0255 -0.0989  0.0970
 5606TIP3   OH238232   0.760   3.858   0.592 -0.1591 -0.2601  0.4124
 5606TIP3    H138233   0.787   3.805   0.517 -3.2961 -2.7123  0.8174
 5606TIP3    H238234   0.693   3.916   0.558 -0.5769 -0.3755  1.0263
 5607TIP3   OH238235   5.010   3.204  13.946 -0.0036 -0.2216  0.1063
 5607TIP3    H138236   4.966   3.121  13.925  0.0116 -0.3236  0.4675
 5607TIP3    H238237   5.100   3.179  13.966 -0.2772 -0.2748  1.3571
 5608TIP3   OH238238   4.085   4.551   4.167  0.2041 -0.2411  0.3540
 5608TIP3    H138239   4.054   4.476   4.218 -1.0589  0.5750  0.8359
 5608TIP3    H238240   4.062   4.530   4.077  0.2154 -0.6031  0.4331
 5609TIP3   OH238241   3.773   2.328  16.185 -0.3429 -0.2879 -0.1706
 5609TIP3    H138242   3.835   2.395  16.156  0.4396 -1.0924 -0.3925
 5609TIP3    H238243   3.788   2.254  16.125 -0.4495 -1.0577  0.7346
 5610TIP3   OH238244   3.548   2.299  11.562  0.5585 -0.8768 -0.5492
 5610TIP3    H138245   3.497   2.342  11.493 -1.5540 -0.6437  1.0500
 5610TIP3    H238246   3.581   2.372  11.616  1.3177 -1.0989 -0.6972
 5611TIP3   OH238247   1.553   6.297   2.040 -0.1501  0.1432  0.3929
 5611TIP3    H138248   1.587   6.365   2.098  4.7832 -1.8881  0.3830
 5611TIP3    H238249   1.492   6.247   2.093 -1.4225  2.5606  1.3607
 5612TIP3   OH238250   4.079   0.232   1.609 -0.5819  0.6110  0.4967
 5612TIP3    H138251   3.989   0.221   1.578 -0.5675 -1.6917  1.0805
 5612TIP3    H238252   4.101   0.323   1.588 -3.2642  1.4444  0.9749
 5613TIP3   OH238253   4.978   3.754   2.354  0.7438 -0.1541  0.3297
 5613TIP3    H138254   4.995   3.733   2.262  0.3473 -0.1471  0.2539
 5613TIP3    H238255   4.970   3.669   2.397  0.5284 -0.1575  0.2827
 5614TIP3   OH238256   1.083   2.669  16.798 -0.5079  0.0932 -0.1425
 5614TIP3    H138257   1.117   2.589  16.759 -1.5459  0.2081 -1.3545
 5614TIP3    H238258   1.158   2.728  16.801  0.6491 -1.3402  2.1229
 5615TIP3   OH238259   6.362   6.543   0.470 -0.5888  0.5925 -0.1463
 5615TIP3    H138260   6.309   6.623   0.477  0.5780  1.3070  1.0944
 5615TIP3    H238261   6.381   6.519   0.561 -0.4893 -0.8132 -0.5166
 5616TIP3   OH238262   6.088   2.766   5.075 -0.5541 -0.0807  0.0130
 5616TIP3    H138263   6.011   2.805   5.116 -1.9610 -1.2076 -1.4316
 5616TIP3    H238264   6.056   2.686   5.034  1.3221 -0.3922 -0.9740
 5617TIP3   OH238265   5.500   3.845  15.811  0.4252 -0.0499  0.3247
 5617TIP3    H138266   5.591   3.818  15.801  0.7892  0.1608  2.5710
 5617TIP3    H238267   5.505   3.939  15.832 -0.3009 -0.0666  0.6017
 5618TIP3   OH238268   4.744   5.404  12.955 -0.3157  0.0851  0.3456
 5618TIP3    H138269   4.789   5.357  12.885 -1.5099 -2.1291  0.9758
 5618TIP3    H238270   4.756   5.348  13.032 -0.8084  1.4145  1.4211
 5619TIP3   OH238271   3.408   3.729   1.427 -0.0228 -0.1254  0.1009
 5619TIP3    H138272   3.425   3.638   1.450 -1.1632 -0.1035  1.1639
 5619TIP3    H238273   3.445   3.740   1.339  0.9550 -1.3400  0.3409
 5620TIP3   OH238274   3.489   5.694  15.014  0.1993 -0.0680 -0.3765
 5620TIP3    H138275   3.529   5.614  15.048  1.7563  0.4952 -0.8192
 5620TIP3    H238276   3.488   5.682  14.919  1.2220  0.7576 -0.5132
 5621TIP3   OH238277   5.421   1.450   5.005 -0.3900 -0.1342  0.5195
 5621TIP3    H138278   5.470   1.511   5.059 -1.7585  1.6673 -0.1740
 5621TIP3    H238279   5.466   1.450   4.921 -0.2979 -0.2213  0.5680
 5622TIP3   OH238280   1.269   5.138   4.225 -0.5687 -0.0993 -0.3006
 5622TIP3    H138281   1.331   5.105   4.160 -0.1723 -0.6465  0.3481
 5622TIP3    H238282   1.300   5.103   4.309  0.4811  2.7460  0.6043
 5623TIP3   OH238283   3.025   2.897  12.149  0.0976 -0.2492  0.0500
 5623TIP3    H138284   3.098   2.838  12.133  0.0398 -0.2408 -0.2432
 5623TIP3    H238285   3.032   2.919  12.242  1.7459  1.4785 -0.4203
 5624TIP3   OH238286   5.718   0.110   2.370 -0.1426  0.1633 -0.0130
 5624TIP3    H138287   5.784   0.135   2.306 -0.8429  0.6772 -0.5543
 5624TIP3    H238288   5.739   0.161   2.448  0.6997 -0.4482  0.1696
 5625TIP3   OH238289   2.248   0.198   3.610  0.5786 -0.1859  0.3165
 5625TIP3    H138290   2.209   0.142   3.542  1.1335 -0.4350  0.2013
 5625TIP3    H238291   2.340   0.205   3.585  0.1867  2.3102 -0.7365
 5626TIP3   OH238292   5.726   0.702  16.827  0.1924 -0.0470  0.2267
 5626TIP3    H138293   5.776   0.627  16.794  2.6136  0.8043  1.6937
 5626TIP3    H238294   5.638   0.667  16.844 -0.1180 -1.3856 -3.3724
 5627TIP3   OH238295   3.795   0.346   2.990  0.8615  0.1433 -0.3145
 5627TIP3    H138296   3.882   0.354   2.950  1.4197 -0.2875  0.7653
 5627TIP3    H238297   3.799   0.264   3.039  0.4472  0.9537  1.1382
 5628TIP3   OH238298   4.247   3.401   2.646 -0.2621 -0.2942 -0.2905
 5628TIP3    H138299   4.328   3.415   2.694  0.1389 -0.6281 -0.8616
 5628TIP3    H238300   4.273   3.356   2.566 -0.8178  0.9470 -1.1956
 5629TIP3   OH238301   5.150   2.046   4.375  0.1113 -0.6989  0.0053
 5629TIP3    H138302   5.094   2.012   4.306 -1.0212 -0.0802  0.5781
 5629TIP3    H238303   5.165   1.971   4.433  0.8470 -1.1511 -0.7499
 5630TIP3   OH238304   5.240   1.434  16.121 -0.0352  0.1865 -0.1450
 5630TIP3    H138305   5.328   1.410  16.150  0.4850  1.7717 -0.3257
 5630TIP3    H238306   5.249   1.523  16.086 -1.8690  0.6935  0.5480
 5631TIP3   OH238307   1.070   1.666   1.716 -0.1065  0.5841 -0.0259
 5631TIP3    H138308   0.999   1.728   1.701  0.2367  0.8616 -0.5557
 5631TIP3    H238309   1.148   1.712   1.686 -0.0086 -0.5734 -1.6792
 5632TIP3   OH238310   5.053   3.179   3.081  0.1553  0.3022  0.0726
 5632TIP3    H138311   4.971   3.131   3.091  0.6091 -0.4906  0.0696
 5632TIP3    H238312   5.072   3.211   3.169 -0.3432  0.8172  0.0023
 5633TIP3   OH238313   1.148   0.554   2.723  0.3711 -0.3246  0.5942
 5633TIP3    H138314   1.065   0.567   2.678  0.7572  0.4973  0.1101
 5633TIP3    H238315   1.214   0.564   2.655  0.8955 -0.4198  1.0863
 5634TIP3   OH238316   5.828   3.343  12.609 -0.2016  0.4737  0.5484
 5634TIP3    H138317   5.867   3.256  12.600 -0.1140  0.5137  0.5418
 5634TIP3    H238318   5.901   3.403  12.597 -0.5727  0.6018 -1.4045
 5635TIP3   OH238319   2.098   4.944   6.322  0.0188 -0.4302 -0.3054
 5635TIP3    H138320   2.022   4.887   6.333  0.0913 -0.3445  0.8130
 5635TIP3    H238321   2.103   4.993   6.404  2.3963 -1.8081  0.4638
 5636TIP3   OH238322   1.566   5.822   3.183  0.3216 -0.5825 -0.1389
 5636TIP3    H138323   1.605   5.742   3.220  1.2363 -0.1445 -0.1129
 5636TIP3    H238324   1.522   5.863   3.257  1.1538 -0.2987  0.2068
 5637TIP3   OH238325   5.611   2.023   0.259  0.0433  0.0553 -0.5357
 5637TIP3    H138326   5.569   2.071   0.188 -0.5413 -0.7591 -0.7487
 5637TIP3    H238327   5.541   1.969   0.297  0.9928 -1.7643 -1.2634
 5638TIP3   OH238328   1.301   4.566  14.488 -0.2288  0.7548 -0.7219
 5638TIP3    H138329   1.224   4.516  14.463 -0.3518  1.2698 -1.3946
 5638TIP3    H238330   1.268   4.655  14.502 -0.0558  0.6349  0.6677
 5639TIP3   OH238331   5.092   1.931  14.912  0.1065 -0.4853  0.2878
 5639TIP3    H138332   5.094   1.911  15.006 -1.2902 -1.4017  0.1510
 5639TIP3    H238333   5.118   1.850  14.870 -0.7311 -0.5385 -0.1470
 5640TIP3   OH238334   4.961   6.574   4.998  0.3939  0.0575 -0.2077
 5640TIP3    H138335   4.926   6.565   4.909  1.7404 -1.7772 -0.6081
 5640TIP3    H238336   5.008   6.492   5.014  0.3855  0.4371  2.1254
 5641TIP3   OH238337   5.356   4.188  15.002  0.8448 -0.3700 -0.2554
 5641TIP3    H138338   5.363   4.283  15.013 -1.0503 -0.2091 -0.0959
 5641TIP3    H238339   5.338   4.155  15.090 -2.0893 -0.4373 -0.7938
 5642TIP3   OH238340   6.296   6.499  11.874 -0.3046  0.0723 -0.7128
 5642TIP3    H138341   6.239   6.560  11.921 -0.6333 -1.6815  1.3275
 5642TIP3    H238342   6.324   6.436  11.941  0.2796 -1.8125 -2.6204
 5643TIP3   OH238343   4.236   0.542  15.698  0.5123 -0.5299  0.3101
 5643TIP3    H138344   4.293   0.548  15.775 -1.4616  0.7148  1.7650
 5643TIP3    H238345   4.177   0.469  15.717  0.8366 -1.0750 -0.6737
 5644TIP3   OH238346   3.390   1.737  14.413  0.2084 -0.1443  0.1500
 5644TIP3    H138347   3.406   1.661  14.358 -1.3562  0.1012 -0.6952
 5644TIP3    H238348   3.296   1.735  14.432  0.2922  1.0834  0.8541
 5645TIP3   OH238349   0.505   0.153   1.003  0.0967 -0.2082 -0.1482
 5645TIP3    H138350   0.465   0.237   1.026 -0.3789 -0.3806 -0.3362
 5645TIP3    H238351   0.598   0.165   1.022  0.0965  0.4997 -0.5790
 5646TIP3   OH238352   4.939   5.915   3.476 -0.6181 -0.0947  0.3673
 5646TIP3    H138353   4.872   5.885   3.414  1.4272 -0.9558 -1.5785
 5646TIP3    H238354   4.904   5.995   3.513 -1.8431  0.6580 -2.2133
 5647TIP3   OH238355   4.045   5.378  12.470  0.0920  0.4012  0.0166
 5647TIP3    H138356   3.950   5.365  12.463 -0.0113  0.2910  1.3244
 5647TIP3    H238357   4.066   5.348  12.558  1.3981  0.1561 -0.3602
 5648TIP3   OH238358   0.460   2.288  14.096 -0.1670  0.0554  0.1131
 5648TIP3    H138359   0.553   2.277  14.077 -0.2245  0.2935 -0.3213
 5648TIP3    H238360   0.449   2.255  14.185  0.1294 -0.9824 -0.2194
 5649TIP3   OH238361   6.690   6.722   2.131 -0.1505  0.9882 -0.7204
 5649TIP3    H138362   6.670   6.814   2.150  3.4693  2.2228 -1.9302
 5649TIP3    H238363   6.677   6.714   2.037  1.3799  0.9033 -0.9547
 5650TIP3   OH238364   1.052   2.586  13.343  0.8782  0.0902 -0.4366
 5650TIP3    H138365   1.104   2.665  13.356 -0.0325  0.4883  1.0452
 5650TIP3    H238366   1.080   2.553  13.258 -0.6138  3.4818 -2.4713
 5651TIP3   OH238367   4.122   2.195   3.442  0.3075  0.2069  0.3061
 5651TIP3    H138368   4.065   2.205   3.518  0.0277 -0.1712  0.1501
 5651TIP3    H238369   4.209   2.178   3.479 -0.4444 -3.7942  0.6295
 5652TIP3   OH238370   5.090   6.493   1.468 -0.8805  0.2321 -0.5410
 5652TIP3    H138371   5.092   6.474   1.375 -0.5110  1.2051 -0.7394
 5652TIP3    H238372   5.111   6.586   1.475 -0.2536  0.0374  0.5467
 5653TIP3   OH238373   5.479   3.069   0.312 -0.3250  0.3051 -0.3750
 5653TIP3    H138374   5.418   3.018   0.367  1.1097 -0.8745  0.2003
 5653TIP3    H238375   5.452   3.160   0.324 -0.1595  0.0965  2.2629
 5654TIP3   OH238376   1.388   4.631  13.432  0.3319  0.0989  0.2681
 5654TIP3    H138377   1.473   4.621  13.474  0.8880  2.1917 -0.2415
 5654TIP3    H238378   1.407   4.626  13.338  0.3349  2.7540  0.0422
 5655TIP3   OH238379   2.248   1.400  10.413  0.1934  0.4022 -1.2213
 5655TIP3    H138380   2.270   1.487  10.445 -0.7133  0.3143 -0.3150
 5655TIP3    H238381   2.161   1.382  10.449  0.0723 -0.5969 -1.9586
 5656TIP3   OH238382   5.159   5.817   1.982 -0.5864 -0.4932 -0.0091
 5656TIP3    H138383   5.091   5.882   1.996 -0.7810 -0.9204  1.1157
 5656TIP3    H238384   5.235   5.850   2.029 -0.6581 -1.0231  0.4898
 5657TIP3   OH238385   4.350   6.493  15.436 -0.0797  0.1349 -0.3834
 5657TIP3    H138386   4.313   6.468  15.520 -0.9502 -0.5225 -0.9515
 5657TIP3    H238387   4.390   6.579  15.453 -1.5623  0.7164  0.3398
 5658TIP3   OH238388   0.586   5.532  16.874 -0.3599 -0.0163  0.5153
 5658TIP3    H138389   0.654   5.486  16.825 -1.2175 -0.1416 -0.6241
 5658TIP3    H238390   0.510   5.473  16.871 -0.2683 -0.3097  2.5818
 5659TIP3   OH238391   3.648   2.228   3.117 -0.5027  0.1088  0.6309
 5659TIP3    H138392   3.700   2.303   3.146  0.5310 -0.2187 -0.3122
 5659TIP3    H238393   3.625   2.249   3.026 -0.9598 -0.3254  0.6436
 5660TIP3   OH238394   5.807   1.033   0.664  0.4841 -0.1094 -0.4661
 5660TIP3    H138395   5.791   1.060   0.755  1.9231  1.5307 -0.6388
 5660TIP3    H238396   5.777   0.943   0.661  0.1331 -0.1269  1.5748
 5661TIP3   OH238397   0.924   4.352   2.288  0.1169  0.1979 -0.5555
 5661TIP3    H138398   0.862   4.279   2.289  0.8232 -0.4633 -1.6792
 5661TIP3    H238399   1.001   4.317   2.242  0.8416  1.3649 -0.2775
 5662TIP3   OH238400   6.185   5.359   5.547 -0.6917 -0.6290 -0.1702
 5662TIP3    H138401   6.236   5.366   5.628  1.0600  1.6102 -1.3441
 5662TIP3    H238402   6.121   5.430   5.554 -0.6515 -0.5439 -0.6583
 5663TIP3   OH238403   2.477   0.608   0.112  0.0224 -0.1109  0.5111
 5663TIP3    H138404   2.448   0.520   0.090 -1.3811  0.8048 -1.4886
 5663TIP3    H238405   2.403   0.648   0.159 -0.5810  0.9626 -1.2559
 5664TIP3   OH238406   3.579   2.772  13.887 -0.2131  0.0547  0.9671
 5664TIP3    H138407   3.546   2.844  13.941 -0.7450 -0.0723  0.8178
 5664TIP3    H238408   3.673   2.788  13.880 -0.1454  0.0885  1.9045
 5665TIP3   OH238409   0.831   1.110  13.750  0.2874 -0.4948 -0.0390
 5665TIP3    H138410   0.888   1.142  13.820 -0.3673 -0.4735  0.5016
 5665TIP3    H238411   0.839   1.175  13.681 -1.7220  1.4294  1.3907
 5666TIP3   OH238412   6.620   1.836  14.279 -0.1344 -0.2396 -0.4704
 5666TIP3    H138413   6.530   1.853  14.252 -0.7704 -1.0341  1.0058
 5666TIP3    H238414   6.623   1.864  14.370 -0.1936 -4.1739  0.9202
 5667TIP3   OH238415   3.334   6.506  12.396  0.9074  0.6263  0.2986
 5667TIP3    H138416   3.399   6.462  12.341 -0.5706 -0.0467 -0.9993
 5667TIP3    H238417   3.362   6.597  12.397  1.8244  0.3678 -0.2921
 5668TIP3   OH238418   2.620   6.514  14.169 -0.1984  0.1521 -0.3985
 5668TIP3    H138419   2.712   6.538  14.176  0.7103 -3.0692  0.5047
 5668TIP3    H238420   2.602   6.515  14.075  0.9159  0.2614 -0.6260
 5669TIP3   OH238421   3.641   4.467   3.476  0.6022  0.0546  0.7504
 5669TIP3    H138422   3.705   4.537   3.486  1.7232 -1.1425  2.6166
 5669TIP3    H238423   3.694   4.388   3.464 -0.5620 -0.7710  0.8801
 5670TIP3   OH238424   0.391   0.030  13.315  0.3717 -0.0039 -0.1102
 5670TIP3    H138425   0.394   0.104  13.377  2.3393  1.1316 -1.4365
 5670TIP3    H238426   0.306   0.038  13.273 -0.6393 -0.2686  1.7631
 5671TIP3   OH238427   2.842   0.641   5.565 -0.4682  0.4599 -0.2128
 5671TIP3    H138428   2.854   0.703   5.637  0.7569 -0.2261  0.1994
 5671TIP3    H238429   2.828   0.696   5.488  0.0115  1.2429  0.2470
 5672TIP3   OH238430   4.065   0.283  16.339 -0.2605 -0.1576  0.4998
 5672TIP3    H138431   4.144   0.317  16.299  0.2772 -1.7051  0.1672
 5672TIP3    H238432   4.095   0.207  16.390 -1.4408 -0.4316  0.8180
 5673TIP3   OH238433   2.399   1.224   5.783 -0.0201  0.0207  0.0464
 5673TIP3    H138434   2.350   1.306   5.773 -1.2611 -0.3210  2.4690
 5673TIP3    H238435   2.491   1.249   5.771 -0.4912  1.4416 -0.8002
 5674TIP3   OH238436   0.701   3.724   3.572  0.8178 -0.1260  0.2793
 5674TIP3    H138437   0.781   3.679   3.546  0.0829 -1.0710 -0.4327
 5674TIP3    H238438   0.718   3.817   3.553  1.6668 -0.3372 -0.0232
 5675TIP3   OH238439   2.951   5.062  11.256 -0.3927  0.9588  0.2470
 5675TIP3    H138440   2.921   5.152  11.271 -0.7158  0.7995  0.5556
 5675TIP3    H238441   3.035   5.072  11.212 -1.0453  1.4175 -0.9501
 5676TIP3   OH238442   5.295   0.034  11.699 -0.0848  0.3715 -0.4762
 5676TIP3    H138443   5.380   0.044  11.656  0.0427 -1.9880 -0.9000
 5676TIP3    H238444   5.252   0.119  11.686  2.2289  1.7155 -0.0822
 5677TIP3   OH238445   1.586   1.087   3.740 -0.5609 -0.5781 -0.7854
 5677TIP3    H138446   1.591   1.096   3.836  0.7998  0.5480 -0.9279
 5677TIP3    H238447   1.625   1.002   3.722  1.1336  0.0832 -0.4478
 5678TIP3   OH238448   4.103   5.562   5.160 -0.7746 -0.5026 -0.2347
 5678TIP3    H138449   4.021   5.541   5.205 -1.2343  2.8974  0.8197
 5678TIP3    H238450   4.167   5.501   5.196 -2.0890 -0.8641  1.6224
 5679TIP3   OH238451   5.902   5.771   4.388 -0.4032  0.0767  0.5409
 5679TIP3    H138452   5.955   5.693   4.369  1.0389  0.9639  0.7746
 5679TIP3    H238453   5.836   5.772   4.319  0.4081 -0.5969 -0.2739
 5680TIP3   OH238454   1.752   1.731  12.695 -0.9459 -0.3162 -0.1920
 5680TIP3    H138455   1.683   1.743  12.760  0.5237 -0.8785  1.5424
 5680TIP3    H238456   1.767   1.636  12.692 -0.8661 -0.2888 -1.2468
 5681TIP3   OH238457   4.612   0.786  17.155 -0.2641 -0.4057 -0.7556
 5681TIP3    H138458   4.612   0.692  17.138 -1.1296 -0.4447 -0.5850
 5681TIP3    H238459   4.590   0.825  17.071  0.9935 -0.2880 -1.0595
 5682TIP3   OH238460   0.313   2.360   0.198 -0.1980  0.5647  0.0600
 5682TIP3    H138461   0.244   2.344   0.133  1.1855 -0.3729 -1.2524
 5682TIP3    H238462   0.390   2.317   0.162  1.5593  3.0314  0.6170
 5683TIP3   OH238463   6.659   0.812   0.474 -0.0343  0.0510 -0.0261
 5683TIP3    H138464   6.651   0.880   0.541  1.9489  1.4447 -1.0931
 5683TIP3    H238465   6.722   0.749   0.510 -0.1401 -0.0166  0.0413
 5684TIP3   OH238466   5.959   3.811   4.206 -0.1583  0.3067  0.2236
 5684TIP3    H138467   5.980   3.777   4.119 -0.5361  0.6888 -0.0178
 5684TIP3    H238468   5.979   3.904   4.201  1.0068  0.1117  0.9253
 5685TIP3   OH238469   4.462   0.548  13.808  0.0241 -0.1030  0.1163
 5685TIP3    H138470   4.445   0.537  13.902 -0.8616  0.1507 -0.0052
 5685TIP3    H238471   4.548   0.509  13.795 -0.9435 -2.5888  0.5552
 5686TIP3   OH238472   2.941   0.837  11.194  0.4857  0.3543 -0.0130
 5686TIP3    H138473   2.997   0.775  11.146 -1.5308 -0.0490 -2.0464
 5686TIP3    H238474   2.910   0.898  11.127 -2.3796 -0.1411  0.7268
 5687TIP3   OH238475   0.866   5.543  10.758  0.6660 -0.6084  0.0744
 5687TIP3    H138476   0.943   5.598  10.771 -0.4554  1.2203 -0.6036
 5687TIP3    H238477   0.869   5.519  10.665 -0.4116  0.9219 -0.4114
 5688TIP3   OH238478   2.897   3.471   1.657  0.1277 -0.2053  0.3777
 5688TIP3    H138479   2.864   3.452   1.569 -2.5351 -0.2072  1.2897
 5688TIP3    H238480   2.819   3.466   1.713  1.1068  3.0230  2.2471
 5689TIP3   OH238481   3.825   6.440  14.447 -0.0096 -0.5244  0.1627
 5689TIP3    H138482   3.901   6.424  14.390 -0.0800 -1.1916  0.2529
 5689TIP3    H238483   3.799   6.530  14.427  0.3458 -0.5437 -0.4152
 5690TIP3   OH238484   5.673   2.665   4.453  0.2871  0.0461  0.5951
 5690TIP3    H138485   5.683   2.574   4.480 -0.1588 -0.0979  0.2802
 5690TIP3    H238486   5.752   2.709   4.486  2.9626 -1.3686 -3.2463
 5691TIP3   OH238487   1.902   2.241   4.379  0.4894 -0.3732 -0.2662
 5691TIP3    H138488   1.857   2.174   4.329  1.1079 -0.4611 -0.7207
 5691TIP3    H238489   1.890   2.321   4.328  1.9156 -0.6413 -1.0724
 5692TIP3   OH238490   3.083   6.492  11.235  0.3041  0.0615  0.1101
 5692TIP3    H138491   3.047   6.562  11.289 -1.4661 -0.5527 -0.2046
 5692TIP3    H238492   3.044   6.411  11.270  3.3680 -0.9993  1.3711
 5693TIP3   OH238493   5.621   4.887   2.995  0.4065 -0.1693 -0.3094
 5693TIP3    H138494   5.558   4.957   2.981  0.6685  0.3236  0.8651
 5693TIP3    H238495   5.623   4.839   2.912 -1.4956 -0.1972 -0.3805
 5694TIP3   OH238496   0.405   4.049   3.330 -0.0859 -0.1201 -0.3613
 5694TIP3    H138497   0.429   4.139   3.351  0.9236 -0.6827  1.1396
 5694TIP3    H238498   0.323   4.035   3.378  0.8614 -0.6101  1.1778
 5695TIP3   OH238499   1.168   1.432   5.197  0.1898 -0.1938 -0.3187
 5695TIP3    H138500   1.105   1.503   5.194 -1.0597 -1.2736 -0.2584
 5695TIP3    H238501   1.240   1.467   5.249 -0.1641  1.1847 -0.6935
 5696TIP3   OH238502   0.662   5.848   2.803 -0.2632 -0.0300 -0.1088
 5696TIP3    H138503   0.656   5.820   2.895 -0.2696  0.4094  0.0238
 5696TIP3    H238504   0.573   5.836   2.769 -0.4487  0.5426  0.1562
 5697TIP3   OH238505   4.180   5.708  15.365 -0.0255  0.0584 -0.4997
 5697TIP3    H138506   4.218   5.624  15.392  0.1874  0.3781  0.2330
 5697TIP3    H238507   4.206   5.768  15.435 -0.9399  0.5348 -0.5674
 5698TIP3   OH238508   3.704   0.646  14.809  0.0779  0.3507  0.0488
 5698TIP3    H138509   3.638   0.587  14.846  0.2184  0.1826  0.0344
 5698TIP3    H238510   3.703   0.722  14.867 -0.2512  0.4233 -0.0533
 5699TIP3   OH238511   0.914   4.582  12.385  0.1964  0.4256  0.0434
 5699TIP3    H138512   0.910   4.645  12.456  0.2188  0.9850 -0.4423
 5699TIP3    H238513   0.850   4.613  12.321  0.7400  0.3923 -0.5354
 5700TIP3   OH238514   1.774   2.715  13.757  0.1737 -0.0195 -0.4901
 5700TIP3    H138515   1.857   2.737  13.799  0.3102 -1.9117  0.3163
 5700TIP3    H238516   1.785   2.624  13.727 -1.8973 -0.6583  0.4820
 5701TIP3   OH238517   4.211   6.740  11.051 -0.2904 -0.8682  0.4798
 5701TIP3    H138518   4.248   6.720  11.137  0.6133 -1.8723 -0.1046
 5701TIP3    H238519   4.117   6.745  11.065 -0.2378 -1.9382  1.3708
 5702TIP3   OH238520   6.712   0.218  15.896  0.8977  0.4443  0.3310
 5702TIP3    H138521   6.772   0.288  15.870  0.9674 -0.0600 -0.9279
 5702TIP3    H238522   6.761   0.137  15.881 -0.5360 -0.0796 -2.2377
 5703TIP3   OH238523   0.354   4.259   3.542 -0.1095 -0.0136  0.0164
 5703TIP3    H138524   0.349   4.330   3.478 -1.5252 -0.2417 -0.1603
 5703TIP3    H238525   0.276   4.270   3.596  0.4360 -0.5470  0.9477
 5704TIP3   OH238526   5.337   5.900  12.543 -0.0883 -0.1650 -0.0351
 5704TIP3    H138527   5.281   5.882  12.618 -0.1216 -1.1529 -0.2882
 5704TIP3    H238528   5.426   5.891  12.576 -0.0238  1.7973  0.4682
 5705TIP3   OH238529   2.559   3.920   0.993 -0.1475 -0.1553 -0.5918
 5705TIP3    H138530   2.530   3.845   1.045 -0.5733 -0.5695 -1.3995
 5705TIP3    H238531   2.479   3.969   0.975  0.2729  1.1188  0.8526
 5706TIP3   OH238532   2.604   6.125   5.108  0.4667 -0.0520  0.3120
 5706TIP3    H138533   2.686   6.136   5.060  1.4649  1.6776  2.2589
 5706TIP3    H238534   2.625   6.062   5.177 -0.7412 -1.9275 -0.9366
 5707TIP3   OH238535   2.876   0.867  14.531 -0.7228  0.5491 -0.1600
 5707TIP3    H138536   2.839   0.955  14.538 -1.4455  0.1919  0.7974
 5707TIP3    H238537   2.804   0.814  14.496 -1.2262 -0.1789  1.8326
 5708TIP3   OH238538   6.662   6.516  15.690  0.3264  0.6160 -0.6094
 5708TIP3    H138539   6.642   6.422  15.682 -0.0582  0.7595 -1.4679
 5708TIP3    H238540   6.576   6.558  15.693  0.4977  0.9133  0.2000
 5709TIP3   OH238541   0.178   2.794   6.379 -0.2663  0.9856  0.2400
 5709TIP3    H138542   0.132   2.834   6.453 -2.9239 -0.2379 -0.6196
 5709TIP3    H238543   0.161   2.700   6.389  0.7193  0.6473 -1.0295
 5710TIP3   OH238544   6.522   4.290  17.078 -0.3923 -0.2475  0.7273
 5710TIP3    H138545   6.548   4.363  17.134  1.2114  0.0390 -0.3039
 5710TIP3    H238546   6.560   4.212  17.119 -0.4569 -0.2354  0.8088
 5711TIP3   OH238547   0.417   4.395   0.097  0.7584 -0.4770  0.4484
 5711TIP3    H138548   0.363   4.323   0.067 -2.4588  1.5973  0.7589
 5711TIP3    H238549   0.440   4.443   0.017 -0.2296  0.1289  0.5130
 5712TIP3   OH238550   6.578   3.609   3.834 -0.5903  0.0371 -0.0206
 5712TIP3    H138551   6.540   3.695   3.851 -1.0712  0.0789 -1.2155
 5712TIP3    H238552   6.520   3.570   3.768 -0.3826 -1.2041  0.5002
 5713TIP3   OH238553   6.778   4.162  17.148  0.1511 -0.6322  0.1429
 5713TIP3    H138554   6.830   4.242  17.152  0.0240 -0.5842  1.3879
 5713TIP3    H238555   6.748   4.148  17.238 -2.9183 -0.0664 -0.6630
 5714TIP3   OH238556   3.129   6.685  12.998  0.2229 -0.1462 -0.0670
 5714TIP3    H138557   3.182   6.753  12.955  2.1299 -1.1225  0.5928
 5714TIP3    H238558   3.194   6.622  13.029 -1.3998 -1.5396  0.6019
 5715TIP3   OH238559   4.637   6.581   3.954  0.6002 -0.0854  0.3202
 5715TIP3    H138560   4.658   6.610   3.865 -0.5909 -1.4957 -0.4760
 5715TIP3    H238561   4.666   6.490   3.957  2.1207  0.3887  1.9613
 5716TIP3   OH238562   5.814   2.348   5.269  0.4092  0.2764  0.2507
 5716TIP3    H138563   5.800   2.417   5.334  0.0422 -1.6295  2.2957
 5716TIP3    H238564   5.727   2.332   5.233  0.5406  1.0409 -0.4270
 5717TIP3   OH238565   3.034   5.726   3.230  0.0467 -0.2370 -0.3890
 5717TIP3    H138566   3.087   5.734   3.309 -2.2497 -1.2820  1.3753
 5717TIP3    H238567   2.946   5.752   3.257 -0.8670 -0.8566 -2.5324
 5718TIP3   OH238568   1.788   3.773   0.369 -0.3590 -0.0636 -0.4462
 5718TIP3    H138569   1.877   3.754   0.338 -0.5322  0.5341 -1.3380
 5718TIP3    H238570   1.733   3.709   0.324 -0.3532 -0.6751  0.3877
 5719TIP3   OH238571   1.836   0.106  12.381  0.3004 -0.7395 -0.4367
 5719TIP3    H138572   1.900   0.125  12.312  0.6099  0.7851  0.2534
 5719TIP3    H238573   1.874   0.033  12.429  0.9460 -0.6245 -0.7608
 5720TIP3   OH238574   3.733   6.327  10.340 -0.4302 -0.1210 -0.3931
 5720TIP3    H138575   3.809   6.279  10.374 -0.7172 -0.6306 -0.4542
 5720TIP3    H238576   3.764   6.365  10.258 -0.5872 -1.3554 -1.0447
 5721TIP3   OH238577   3.188   0.398   0.598 -0.4255  0.0841  0.4422
 5721TIP3    H138578   3.252   0.373   0.532 -1.0464 -0.3535 -0.0079
 5721TIP3    H238579   3.183   0.322   0.656 -2.4884 -1.0119 -1.0594
 5722TIP3   OH238580   1.709   3.806   0.639  0.3881 -0.1666 -0.1448
 5722TIP3    H138581   1.792   3.810   0.687  0.0527 -0.8039  0.5025
 5722TIP3    H238582   1.735   3.808   0.546  1.1520 -0.7577  0.0480
 5723TIP3   OH238583   5.416   0.146   3.749  0.0597 -0.3475 -0.1649
 5723TIP3    H138584   5.455   0.180   3.668  0.3818 -2.1314 -0.7999
 5723TIP3    H238585   5.327   0.182   3.749  0.7805  1.5249 -0.1120
 5724TIP3   OH238586   0.250   1.559  16.862  0.2259  0.0383  0.6937
 5724TIP3    H138587   0.285   1.613  16.792 -1.4292 -0.2884 -0.4471
 5724TIP3    H238588   0.155   1.568  16.854 -0.0349 -1.0719  2.0606
 5725TIP3   OH238589   0.681   2.981  11.193  0.4110  0.1214  0.1730
 5725TIP3    H138590   0.773   3.008  11.196 -0.0927  1.9137  1.8146
 5725TIP3    H238591   0.633   3.062  11.173 -0.7735 -1.0101 -1.9010
 5726TIP3   OH238592   3.566   3.903   1.644 -0.4626 -0.5771  0.5190
 5726TIP3    H138593   3.537   3.874   1.558  1.7272 -1.3310 -0.0322
 5726TIP3    H238594   3.601   3.991   1.629 -1.1906 -0.2210  0.8916
 5727TIP3   OH238595   3.097   1.802   6.049  0.5632 -0.0385  0.2103
 5727TIP3    H138596   3.163   1.872   6.050 -0.1552  0.6623 -0.2794
 5727TIP3    H238597   3.143   1.726   6.014  0.8561  0.7232 -1.1195
 5728TIP3   OH238598   0.038   1.636  13.935  0.1353  0.1628 -0.2628
 5728TIP3    H138599   0.025   1.657  13.842 -2.1565  2.8261  0.5212
 5728TIP3    H238600   0.013   1.544  13.942  0.6532 -0.1851 -2.3051
 5729TIP3   OH238601   2.222   5.808  13.758 -0.2563 -0.1222 -0.2557
 5729TIP3    H138602   2.198   5.873  13.692  0.5212  0.5297  0.0845
 5729TIP3    H238603   2.293   5.758  13.718 -1.0662 -1.0035 -0.6428
 5730TIP3   OH238604   0.862   5.043   5.823  0.2970 -0.6392 -0.0324
 5730TIP3    H138605   0.922   5.022   5.894  3.2166  0.8639 -1.8533
 5730TIP3    H238606   0.904   5.004   5.745 -0.4104  1.4977 -1.5642
 5731TIP3   OH238607   3.313   5.564   1.178 -0.4718 -0.5241 -0.1518
 5731TIP3    H138608   3.366   5.633   1.138 -0.1627  1.3105  3.1046
 5731TIP3    H238609   3.281   5.513   1.103  1.0315  1.8220 -2.6042
 5732TIP3   OH238610   6.445   2.336  14.565  0.4538  0.4432 -0.3133
 5732TIP3    H138611   6.405   2.369  14.646 -1.5089 -0.8490 -0.6681
 5732TIP3    H238612   6.381   2.359  14.497  1.0247 -0.4267 -1.1555
 5733TIP3   OH238613   2.655   6.074   5.941 -0.1176  0.1667  0.0148
 5733TIP3    H138614   2.566   6.085   5.975 -0.0028  1.6357 -0.1214
 5733TIP3    H238615   2.643   6.021   5.862 -0.6224 -1.3797  1.0883
 5734TIP3   OH238616   6.424   0.464  16.062  0.2225  0.4900 -0.3501
 5734TIP3    H138617   6.378   0.509  15.991 -0.1392  0.4956 -0.1150
 5734TIP3    H238618   6.401   0.514  16.140  0.2805  0.2311 -0.1676
 5735TIP3   OH238619   6.134   2.298   2.566 -0.3564  0.2361  0.7521
 5735TIP3    H138620   6.147   2.392   2.581  0.0311  0.3899 -0.4175
 5735TIP3    H238621   6.222   2.261   2.568 -0.1850  0.3806 -1.6411
 5736TIP3   OH238622   5.693   2.079  12.756 -0.5888  0.2679  0.1668
 5736TIP3    H138623   5.763   2.102  12.695 -0.3107  0.0913  0.4136
 5736TIP3    H238624   5.676   1.986  12.738 -0.1550  0.0806  0.7004
 5737TIP3   OH238625   0.002   2.346   3.716 -0.7616 -0.4365 -0.2096
 5737TIP3    H138626  -0.073   2.293   3.744 -1.3199 -0.3606 -1.5048
 5737TIP3    H238627  -0.033   2.435   3.708 -0.3956 -0.2974 -0.2726
 5738TIP3   OH238628   0.386   2.037  12.627 -0.2067 -0.1112  0.1240
 5738TIP3    H138629   0.301   2.039  12.584 -0.7861 -0.2265  1.2368
 5738TIP3    H238630   0.401   1.945  12.646  0.5103 -0.1789 -0.7062
 5739TIP3   OH238631   1.088   0.019   3.896 -0.1396 -0.7284  0.7727
 5739TIP3    H138632   1.136  -0.049   3.943  1.7489 -1.2095 -1.6171
 5739TIP3    H238633   1.153   0.088   3.882 -1.5761  0.8783  1.7305
 5740TIP3   OH238634   3.145   4.661   3.827 -0.2427  0.0983  0.0443
 5740TIP3    H138635   3.170   4.648   3.735 -0.7714  0.8121 -0.2168
 5740TIP3    H238636   3.143   4.573   3.864  0.9332 -0.1130 -0.3697
 5741TIP3   OH238637   6.065   0.060   0.928  0.4846  0.1674  0.0776
 5741TIP3    H138638   6.037   0.093   1.013 -0.5851  1.2394 -0.6583
 5741TIP3    H238639   6.156   0.087   0.921  0.0784  1.6154  0.1578
 5742TIP3   OH238640   5.127   2.088  12.780  0.6117  0.4765 -0.2354
 5742TIP3    H138641   5.200   2.039  12.744  1.0441  0.9588 -0.0232
 5742TIP3    H238642   5.049   2.042  12.748  0.9844  0.6303 -1.4088
 5743TIP3   OH238643   4.283   3.689   4.838 -0.0122  0.0968 -0.3767
 5743TIP3    H138644   4.342   3.699   4.763 -0.3717 -0.8940 -0.8047
 5743TIP3    H238645   4.320   3.616   4.888 -0.4373 -0.0104 -0.2169
 5744TIP3   OH238646   2.434   6.757   1.325  0.6199  0.0168 -0.4783
 5744TIP3    H138647   2.433   6.700   1.403 -0.2204 -0.2753 -0.6886
 5744TIP3    H238648   2.375   6.829   1.347  0.6250  0.0985 -0.7260
 5745TIP3   OH238649   4.852   4.762   3.655  0.4547 -0.3330  0.2773
 5745TIP3    H138650   4.945   4.739   3.658  0.2409 -1.4981 -0.8311
 5745TIP3    H238651   4.825   4.766   3.747  1.2106 -1.7588  0.5911
 5746TIP3   OH238652   5.532   1.588  14.644  0.6044 -0.0171  0.3765
 5746TIP3    H138653   5.562   1.634  14.722 -0.0920  0.5162  0.3322
 5746TIP3    H238654   5.595   1.517  14.633  1.6179  0.8304  0.5279
 5747TIP3   OH238655   2.321   4.844  13.831 -0.2052 -0.1816 -0.1573
 5747TIP3    H138656   2.347   4.792  13.755  0.4506 -0.7218  0.4274
 5747TIP3    H238657   2.400   4.891  13.856  0.1858 -1.5988  1.4378
 5748TIP3   OH238658   5.221   3.779  16.788  0.0016 -0.2292 -0.0306
 5748TIP3    H138659   5.262   3.694  16.776  0.0979 -0.2062  0.1277
 5748TIP3    H238660   5.193   3.806  16.701 -2.5175 -1.6531  0.2397
 5749TIP3   OH238661   2.242   1.420   4.774 -0.2149  0.5149  0.1359
 5749TIP3    H138662   2.160   1.428   4.726 -0.6938 -0.3589  0.7852
 5749TIP3    H238663   2.307   1.397   4.707 -1.0545 -1.6452 -0.0286
 5750TIP3   OH238664   5.059   0.033   4.970  0.5551 -0.1147  0.0321
 5750TIP3    H138665   5.020  -0.053   4.958  0.4389  0.0033 -0.4320
 5750TIP3    H238666   4.986   0.088   5.002 -0.1707  0.5704 -2.5873
 5751TIP3   OH238667   4.776   6.226  12.460  0.1223  0.3914 -0.3747
 5751TIP3    H138668   4.760   6.178  12.378 -0.5919  0.8459 -0.5196
 5751TIP3    H238669   4.767   6.160  12.529 -2.7434  0.5883 -0.4176
 5752TIP3   OH238670   4.858   3.917   2.525  0.3755  0.0378 -0.9349
 5752TIP3    H138671   4.914   3.860   2.472  1.1730 -0.8563  0.7614
 5752TIP3    H238672   4.771   3.879   2.517  0.6833 -0.7143 -0.7659
 5753TIP3   OH238673   2.610   5.467  12.500 -0.8295 -0.7786 -0.4726
 5753TIP3    H138674   2.650   5.431  12.579  1.6617  0.0434 -1.2404
 5753TIP3    H238675   2.609   5.562  12.515 -0.2687 -0.6088 -1.4156
 5754TIP3   OH238676   4.958   1.712  12.064  0.3038  0.3227  0.1139
 5754TIP3    H138677   4.931   1.631  12.019 -0.1855  0.2864  0.4631
 5754TIP3    H238678   5.027   1.748  12.008  0.9484 -0.6488  0.2618
 5755TIP3   OH238679   3.025   5.630   6.251  0.4236  0.0205 -0.0202
 5755TIP3    H138680   3.101   5.682   6.276  0.7287  0.4850 -1.8209
 5755TIP3    H238681   2.973   5.687   6.195 -0.6304 -0.7181  0.1633
 5756TIP3   OH238682   6.156   5.716  12.263 -0.7843 -0.3251  0.1644
 5756TIP3    H138683   6.203   5.670  12.333 -0.8564  0.0881  0.4842
 5756TIP3    H238684   6.175   5.665  12.184  2.0971  1.0737 -0.1656
 5757TIP3   OH238685   5.420   6.329   5.536  0.3996  0.1843 -1.0111
 5757TIP3    H138686   5.434   6.318   5.630  1.0616 -0.2206 -1.1552
 5757TIP3    H238687   5.399   6.241   5.504  0.9759  0.1762 -1.3767
 5758TIP3   OH238688   0.101   3.056  16.815 -0.6441  0.4019  0.4477
 5758TIP3    H138689   0.059   2.974  16.789  1.2092 -0.7683  0.9784
 5758TIP3    H238690   0.053   3.084  16.894  0.4821 -1.7287  1.9735
 5759TIP3   OH238691   3.583   6.383   5.264 -0.6614 -0.1037 -0.2112
 5759TIP3    H138692   3.616   6.296   5.287 -1.2828 -0.2650  0.0743
 5759TIP3    H238693   3.510   6.398   5.324 -0.2943  0.7950  0.0276
 5760TIP3   OH238694   4.669   4.266   0.975 -0.3099  0.2838 -0.1068
 5760TIP3    H138695   4.619   4.347   0.984 -0.7730 -0.1208  1.3065
 5760TIP3    H238696   4.606   4.203   0.939 -0.8952 -0.2495  1.7564
 5761TIP3   OH238697   4.178   1.108  14.662  0.0235  0.1802 -0.6741
 5761TIP3    H138698   4.160   1.090  14.755 -1.7298  0.7893 -0.8658
 5761TIP3    H238699   4.233   1.035  14.634 -2.2661 -1.8973 -0.0317
 5762TIP3   OH238700   0.092   3.326   3.587  0.4777 -0.2017  0.6853
 5762TIP3    H138701   0.164   3.265   3.571  0.0497 -0.4121 -0.5598
 5762TIP3    H238702   0.104   3.354   3.678  2.2051 -0.1170  0.4585
 5763TIP3   OH238703   6.052   5.980  13.872 -0.0318 -0.1763 -0.1893
 5763TIP3    H138704   6.039   5.958  13.964  0.9651  2.2100  0.5901
 5763TIP3    H238705   6.147   5.993  13.863 -0.1102 -0.3772 -1.5553
 5764TIP3   OH238706   4.036   4.521  13.557  0.6825 -0.6017  0.0934
 5764TIP3    H138707   3.953   4.486  13.590 -0.0911  0.1970 -0.9507
 5764TIP3    H238708   4.047   4.604  13.603 -0.0460  0.1755 -1.0834
 5765TIP3   OH238709   5.337   5.068   2.405  0.0978  0.4068 -0.0013
 5765TIP3    H138710   5.260   5.114   2.440 -0.0255  1.2841 -1.3654
 5765TIP3    H238711   5.402   5.136   2.393  0.6132 -0.1120 -0.1859
 5766TIP3   OH238712   0.215   3.404  17.072  0.1557 -0.4811 -0.0331
 5766TIP3    H138713   0.171   3.395  17.156  0.2348  0.6412  0.1491
 5766TIP3    H238714   0.306   3.423  17.095 -0.3337  2.7630 -0.2271
 5767TIP3   OH238715   3.274   2.485  15.782  0.2953 -0.2404  0.3584
 5767TIP3    H138716   3.179   2.493  15.787  0.3882  0.5234  1.1594
 5767TIP3    H238717   3.290   2.391  15.775 -0.4338 -0.6561  3.0123
 5768TIP3   OH238718   2.798   3.883  14.358 -0.2869  0.1379 -0.0324
 5768TIP3    H138719   2.803   3.875  14.453  1.9528 -2.1587 -0.2336
 5768TIP3    H238720   2.721   3.832  14.334 -0.0440 -0.4754  0.4708
 5769TIP3   OH238721   3.918   0.858   5.022  0.6067  0.1836 -0.0527
 5769TIP3    H138722   3.952   0.915   5.091  0.9893 -0.8725  0.6625
 5769TIP3    H238723   3.882   0.918   4.957 -0.5070  1.2047  1.4310
 5770TIP3   OH238724   6.401   6.554  12.639 -0.0716  0.0636 -0.2720
 5770TIP3    H138725   6.353   6.626  12.680 -1.7761 -1.2445  0.1804
 5770TIP3    H238726   6.361   6.545  12.552  1.2228  0.6537 -0.9557
 5771TIP3   OH238727   4.145   4.738   0.796  0.6173  0.0692 -0.8477
 5771TIP3    H138728   4.229   4.707   0.831  1.0205  0.6836 -1.2564
 5771TIP3    H238729   4.160   4.829   0.773 -0.4503  0.4744 -0.0168
 5772TIP3   OH238730   4.829   4.292   0.450  0.4240  0.1427  0.6079
 5772TIP3    H138731   4.742   4.306   0.488  0.4673 -0.3584  0.9028
 5772TIP3    H238732   4.821   4.211   0.400  0.8236 -0.1155  0.9554
 5773TIP3   OH238733   3.875   0.426  11.937  0.8472  0.2271  0.0229
 5773TIP3    H138734   3.872   0.522  11.940  0.2739  0.2356 -0.6854
 5773TIP3    H238735   3.865   0.404  11.845 -0.1632 -0.5523  0.3002
 5774TIP3   OH238736   3.192   0.364   6.639  0.1416  0.5105 -0.0791
 5774TIP3    H138737   3.158   0.307   6.709 -2.1336  0.4352 -1.1558
 5774TIP3    H238738   3.254   0.308   6.591 -0.0631 -0.1970  0.4557
 5775TIP3   OH238739   3.767   0.156  16.903 -0.1937 -0.2289 -0.0574
 5775TIP3    H138740   3.765   0.086  16.838 -0.1918 -1.2470  1.0053
 5775TIP3    H238741   3.806   0.230  16.857 -0.0533 -0.9705 -1.1698
 5776TIP3   OH238742   2.811   5.567  15.927 -0.9195 -0.2562 -0.1111
 5776TIP3    H138743   2.897   5.561  15.885 -0.6371  1.2080  0.1725
 5776TIP3    H238744   2.756   5.505  15.880  0.2149 -0.9930 -0.5022
 5777TIP3   OH238745   0.201   6.389   1.877  0.0320 -0.2668 -0.2684
 5777TIP3    H138746   0.194   6.478   1.911  1.6007 -0.4015  0.5119
 5777TIP3    H238747   0.290   6.384   1.841 -0.1493 -1.4132 -0.5970
 5778TIP3   OH238748   0.696   2.777   0.677 -0.1623 -0.8355 -0.2484
 5778TIP3    H138749   0.726   2.733   0.757 -0.2998 -0.0608  0.2339
 5778TIP3    H238750   0.763   2.843   0.659 -0.9780  0.1411  0.2028
 5779TIP3   OH238751   5.836   6.145   1.436  0.0090  0.6806 -0.1055
 5779TIP3    H138752   5.905   6.129   1.371 -0.1100  1.9009 -0.5643
 5779TIP3    H238753   5.876   6.123   1.520  0.4098 -0.2093 -0.5244
 5780TIP3   OH238754   4.947   6.357   4.728 -0.5974 -0.0719  0.1835
 5780TIP3    H138755   4.930   6.272   4.767 -0.4499 -0.4312 -0.5184
 5780TIP3    H238756   4.899   6.356   4.645 -0.1785  0.3280 -0.0703
 5781TIP3   OH238757   0.022   0.742   1.261  0.0729 -0.1653 -0.2037
 5781TIP3    H138758   0.084   0.717   1.329  0.0261 -1.2176 -0.5356
 5781TIP3    H238759   0.076   0.783   1.193  0.2461 -0.0307  0.0143
 5782TIP3   OH238760   5.854   6.140  14.988  0.1251  0.4543 -0.2092
 5782TIP3    H138761   5.866   6.126  14.894 -0.8320  4.4611 -1.1081
 5782TIP3    H238762   5.761   6.124  15.003  0.5275 -1.5413  0.4418
 5783TIP3   OH238763   5.434   5.047  14.191 -0.3547  0.3956  0.0251
 5783TIP3    H138764   5.442   5.043  14.095  0.6952 -1.2711  0.1259
 5783TIP3    H238765   5.520   5.077  14.221 -0.5046  0.3864  0.4680
 5784TIP3   OH238766   0.640   4.569   5.115 -0.2940 -0.3382 -0.1472
 5784TIP3    H138767   0.692   4.547   5.193  0.4907 -1.4245 -0.9551
 5784TIP3    H238768   0.704   4.607   5.054 -0.5176 -1.2608 -0.9793
 5785TIP3   OH238769   2.194   6.007  15.263 -0.3091 -0.0809  0.6296
 5785TIP3    H138770   2.115   6.014  15.318 -0.1112  1.3923  0.7731
 5785TIP3    H238771   2.203   6.093  15.223  2.2702  0.4359  2.0732
 5786TIP3   OH238772   6.312   0.916   1.544  0.3028  0.2750  0.3585
 5786TIP3    H138773   6.345   1.004   1.523 -1.0993  0.7541  0.0447
 5786TIP3    H238774   6.306   0.872   1.460  0.0448  0.2400  0.3937
 5787TIP3   OH238775   3.204   2.603  11.657 -0.0278  0.1662 -0.1899
 5787TIP3    H138776   3.145   2.528  11.654  0.9853 -0.6090 -1.1354
 5787TIP3    H238777   3.227   2.620  11.566  1.8030 -0.0214  0.2038
 5788TIP3   OH238778   4.563   0.812  14.944 -0.2576 -0.4478  0.0497
 5788TIP3    H138779   4.618   0.889  14.960 -0.0816 -0.4150 -0.6912
 5788TIP3    H238780   4.509   0.805  15.023  0.5160 -0.2364  0.6067
 5789TIP3   OH238781   5.069   1.119  11.161  0.0312  0.3158 -0.3907
 5789TIP3    H138782   5.164   1.123  11.153  0.1658  0.2830  0.9194
 5789TIP3    H238783   5.051   1.160  11.246 -1.0182 -0.6858 -0.1007
 5790TIP3   OH238784   1.503   0.732   2.061  0.1393  0.3230 -0.0870
 5790TIP3    H138785   1.523   0.811   2.009 -1.3028 -0.8592 -2.6581
 5790TIP3    H238786   1.550   0.745   2.143 -1.0702  4.4620  0.1656
 5791TIP3   OH238787   1.308   1.823   1.673  0.1444  0.5313  0.2344
 5791TIP3    H138788   1.346   1.853   1.756  0.3568  0.0902  0.2975
 5791TIP3    H238789   1.337   1.888   1.609 -1.1539  1.6552  0.7362
 5792TIP3   OH238790   3.888   0.510  14.023  0.0130  0.7920  0.1753
 5792TIP3    H138791   3.842   0.593  14.016 -1.6745  0.2497  3.1039
 5792TIP3    H238792   3.827   0.445  13.987 -0.1877  0.4473  1.1080
 5793TIP3   OH238793   3.369   2.666   4.594 -0.1689  0.4945  0.0125
 5793TIP3    H138794   3.456   2.662   4.634  0.0794  1.7863 -0.3465
 5793TIP3    H238795   3.345   2.758   4.600 -0.3446  0.6564 -2.2978
 5794TIP3   OH238796   3.337   4.097   1.303  0.7392 -0.3895 -0.1193
 5794TIP3    H138797   3.254   4.123   1.263  0.6610 -0.3144  0.0874
 5794TIP3    H238798   3.311   4.051   1.383  0.9130  0.6638  0.5629
 5795TIP3   OH238799   4.751   0.075   4.582 -0.1765  0.1907  0.2849
 5795TIP3    H138800   4.811   0.150   4.580 -1.0413  0.8988  0.1553
 5795TIP3    H238801   4.751   0.042   4.492 -1.9766  1.8622 -0.4213
 5796TIP3   OH238802   3.900   6.187  15.791  0.4309  0.3514  0.0717
 5796TIP3    H138803   3.877   6.263  15.738  0.1557 -0.7744 -1.5060
 5796TIP3    H238804   3.994   6.196  15.806  0.6846  0.2975 -1.3284
 5797TIP3   OH238805   6.217   1.608   4.404  0.4109  0.2754  0.3167
 5797TIP3    H138806   6.142   1.636   4.457 -0.1451  0.1416 -0.3939
 5797TIP3    H238807   6.276   1.683   4.406 -0.7137  1.2379 -0.9198
 5798TIP3   OH238808   5.538   2.055   0.665 -0.2456 -0.0795 -0.1682
 5798TIP3    H138809   5.555   2.026   0.754  0.5271  0.8672  0.0087
 5798TIP3    H238810   5.459   2.110   0.673 -0.4611 -0.3888 -0.1530
 5799TIP3   OH238811   5.109   0.708  10.927  0.2291  0.0043 -0.2434
 5799TIP3    H138812   5.148   0.786  10.889 -0.4387  0.6196  0.3085
 5799TIP3    H238813   5.164   0.636  10.896  2.4640  0.9084  1.3790
 5800TIP3   OH238814   2.306   1.718  14.101 -0.2285  0.0519 -0.3739
 5800TIP3    H138815   2.382   1.661  14.086  0.9095  0.8470  1.9869
 5800TIP3    H238816   2.326   1.798  14.053 -0.3569 -0.3271 -1.0787
 5801TIP3   OH238817   2.480   3.325  14.093  0.0823  0.7322 -0.3691
 5801TIP3    H138818   2.404   3.371  14.058 -0.2729  1.1603  0.9271
 5801TIP3    H238819   2.531   3.393  14.137  1.5002  0.5577 -1.6223
 5802TIP3   OH238820   0.795   5.385  11.391 -0.0286 -0.4298 -0.4864
 5802TIP3    H138821   0.777   5.382  11.297 -0.4343 -0.9707 -0.3895
 5802TIP3    H238822   0.889   5.368  11.398  0.1246  0.2297 -0.8328
 5803TIP3   OH238823   4.454   4.031  11.042 -0.2214 -0.0938 -0.1103
 5803TIP3    H138824   4.442   4.048  10.948  1.9248  0.1298 -0.3824
 5803TIP3    H238825   4.379   4.074  11.083  0.1545  2.0868 -1.5364
 5804TIP3   OH238826   4.035   1.181  12.390  0.0485 -0.1830  0.0439
 5804TIP3    H138827   4.000   1.232  12.318  1.1203  1.0230  0.3293
 5804TIP3    H238828   4.123   1.157  12.361  0.1058 -0.5642  0.5298
 5805TIP3   OH238829   1.457   3.758  14.869 -0.0543 -0.2209 -0.3109
 5805TIP3    H138830   1.389   3.753  14.936  1.2983  0.1881  1.1341
 5805TIP3    H238831   1.507   3.678  14.879  0.5851  0.1695 -0.3651
 5806TIP3   OH238832   2.001   0.535  15.675 -0.3687 -0.4029  0.2738
 5806TIP3    H138833   2.052   0.570  15.748 -1.4304  1.2517  0.2663
 5806TIP3    H238834   1.913   0.524  15.711 -0.9748  0.7211 -0.8137
 5807TIP3   OH238835   6.285   2.368   4.914 -0.0348  0.1105 -0.3685
 5807TIP3    H138836   6.217   2.301   4.902  1.2185 -2.1764  3.3531
 5807TIP3    H238837   6.364   2.330   4.876  1.0486 -1.5262  3.0858
 5808TIP3   OH238838   6.068   0.095  16.527 -0.2462 -0.3325 -0.7929
 5808TIP3    H138839   6.079   0.155  16.601 -1.9457  0.0850 -0.8262
 5808TIP3    H238840   6.113   0.139  16.455 -0.1979  0.1941 -0.4536
 5809TIP3   OH238841   0.462   6.264  13.042 -0.2669 -0.3193  0.3021
 5809TIP3    H138842   0.516   6.339  13.014  0.3546 -1.1244 -0.7367
 5809TIP3    H238843   0.373   6.299  13.045 -0.0467  0.3659 -0.6030
 5810TIP3   OH238844   3.429   1.219  11.776 -0.3306  0.1398 -0.0907
 5810TIP3    H138845   3.446   1.129  11.749 -0.8697 -0.5272  1.6520
 5810TIP3    H238846   3.334   1.230  11.767 -0.3279  0.3793  0.1590
 5811TIP3   OH238847   0.985   4.632   4.198 -0.3034 -0.5169 -0.1193
 5811TIP3    H138848   1.046   4.584   4.141  0.2314 -1.6404  1.3307
 5811TIP3    H238849   0.967   4.571   4.270 -1.5725  0.5653  0.5170
 5812TIP3   OH238850   2.464   1.332   4.052  0.0483  0.3020  0.3029
 5812TIP3    H138851   2.413   1.254   4.074 -0.8909  0.8647  0.1834
 5812TIP3    H238852   2.500   1.313   3.965 -0.4704  0.1257  0.1176
 5813TIP3   OH238853   4.866   1.767   5.773  0.2990 -0.5282 -0.2083
 5813TIP3    H138854   4.876   1.682   5.816  1.1833 -1.4264 -2.0462
 5813TIP3    H238855   4.886   1.749   5.681  0.0429  1.5960 -0.7255
 5814TIP3   OH238856   4.444   4.265  16.469  0.6339  0.3021 -0.1329
 5814TIP3    H138857   4.472   4.337  16.413 -2.9339 -0.3597 -3.1547
 5814TIP3    H238858   4.502   4.192  16.446  1.0485  0.8400 -0.7947
 5815TIP3   OH238859   6.595   0.600   2.773  0.0771 -0.1948  0.0665
 5815TIP3    H138860   6.549   0.577   2.693  0.3725 -0.9822  0.1105
 5815TIP3    H238861   6.527   0.633   2.831 -0.0528  0.9000 -0.6886
 5816TIP3   OH238862   6.560   4.217   0.288 -0.2280 -0.5290  0.4152
 5816TIP3    H138863   6.524   4.176   0.209 -2.0888  0.2669  0.8050
 5816TIP3    H238864   6.584   4.145   0.345  0.0626 -1.0969 -0.4099
 5817TIP3   OH238865   4.770   2.144   6.220 -0.2999  0.1138 -0.0617
 5817TIP3    H138866   4.779   2.064   6.169 -0.4382 -0.1224  0.2781
 5817TIP3    H238867   4.856   2.157   6.260 -0.3827 -0.0677  0.1760
 5818TIP3   OH238868   5.483   3.310  17.107 -0.7964  0.1581  0.3051
 5818TIP3    H138869   5.440   3.322  17.022 -1.4976  0.3410  0.6724
 5818TIP3    H238870   5.434   3.238  17.148 -0.2288 -0.1747  0.4053
 5819TIP3   OH238871   0.985   2.635   4.101 -0.2937  0.7156  0.1333
 5819TIP3    H138872   0.949   2.547   4.111 -1.3451  1.2165  0.9103
 5819TIP3    H238873   1.075   2.628   4.134  0.1154 -0.3803 -1.1601
 5820TIP3   OH238874   1.860   0.566   2.634 -0.1430  0.0436  0.0535
 5820TIP3    H138875   1.797   0.571   2.706  1.0997  1.6519  1.1083
 5820TIP3    H238876   1.918   0.494   2.657 -0.2415  0.0217  0.2335
 5821TIP3   OH238877   1.814   3.253  12.196  0.1076 -0.3847  0.1905
 5821TIP3    H138878   1.771   3.294  12.271 -1.4437 -0.3017 -0.7117
 5821TIP3    H238879   1.830   3.163  12.224  3.5469  0.6574  2.1986
 5822TIP3   OH238880   2.949   6.314   6.868 -0.0084  0.1737  0.2991
 5822TIP3    H138881   2.922   6.356   6.786  1.4128 -0.7066 -0.6765
 5822TIP3    H238882   2.889   6.348   6.934  0.2587  2.7047 -0.6612
 5823TIP3   OH238883   3.549   3.599   0.169  0.4123 -0.2091  0.1423
 5823TIP3    H138884   3.535   3.509   0.198  0.0305 -0.2772 -0.2428
 5823TIP3    H238885   3.520   3.599   0.078  0.8666  0.1881 -0.0036
 5824TIP3   OH238886   1.076   5.956  13.496 -0.1040  0.0946 -0.0756
 5824TIP3    H138887   1.074   5.983  13.588  1.2896 -0.5639  0.1788
 5824TIP3    H238888   1.080   6.037  13.446 -1.0247  0.4616  0.4283
 5825TIP3   OH238889   6.351   0.094   2.104  0.0613 -0.0391  0.5429
 5825TIP3    H138890   6.417   0.150   2.147  0.6287  0.2285 -0.6418
 5825TIP3    H238891   6.390   0.073   2.019 -0.9988 -0.6439  0.2031
 5826TIP3   OH238892   6.583   4.176  12.794 -0.0561 -0.3229 -0.1760
 5826TIP3    H138893   6.509   4.207  12.741  1.4283  2.7063 -0.7209
 5826TIP3    H238894   6.649   4.149  12.730  0.7482  0.8213  0.1344
 5827TIP3   OH238895   1.911   6.494  12.393  0.2678 -0.1417 -0.5208
 5827TIP3    H138896   1.903   6.571  12.449  1.7170  0.4775 -1.0904
 5827TIP3    H238897   1.981   6.517  12.331  1.0794 -2.0886 -0.4144
 5828TIP3   OH238898   4.784   2.799  16.745 -0.4378 -0.1691 -0.3640
 5828TIP3    H138899   4.749   2.711  16.762  0.8475 -0.6811 -0.3198
 5828TIP3    H238900   4.744   2.824  16.662 -0.6070 -0.8967 -0.5126
 5829TIP3   OH238901   1.669   0.368  14.318 -0.1925  0.0024 -0.3104
 5829TIP3    H138902   1.633   0.456  14.325  0.8337  0.4274 -0.2114
 5829TIP3    H238903   1.711   0.366  14.232  1.1200  0.1366  0.3099
 5830TIP3   OH238904   3.981   5.664  12.468 -0.3311 -0.1490  0.0566
 5830TIP3    H138905   3.943   5.687  12.553 -2.4956 -0.5183 -0.7534
 5830TIP3    H238906   3.939   5.582  12.444  0.8995 -0.5001 -0.9909
 5831TIP3   OH238907   1.870   0.171   1.494 -0.3958  0.9347 -0.4707
 5831TIP3    H138908   1.794   0.177   1.436  0.1336 -1.1270 -1.4630
 5831TIP3    H238909   1.909   0.086   1.474  1.2742  1.2580  1.1439
 5832TIP3   OH238910   6.547   2.457  16.504  0.3738  0.1798  0.5008
 5832TIP3    H138911   6.504   2.381  16.464  0.6611  0.4262 -0.2875
 5832TIP3    H238912   6.509   2.462  16.592 -1.2247  0.3853 -0.1626
 5833TIP3   OH238913   4.923   3.096   4.730 -0.1246  0.0136  0.0220
 5833TIP3    H138914   4.898   3.066   4.817  2.9422  1.0124  1.4246
 5833TIP3    H238915   4.979   3.027   4.695 -1.0995 -0.2514 -1.0539
 5834TIP3   OH238916   3.379   4.305  11.499  0.2464 -0.3985  0.6825
 5834TIP3    H138917   3.299   4.254  11.512  0.3709 -0.8182 -0.1303
 5834TIP3    H238918   3.441   4.269  11.561  1.1398 -3.0178 -1.5254
 5835TIP3   OH238919   2.054   3.879   4.844  0.2988  0.5699 -0.0802
 5835TIP3    H138920   2.143   3.852   4.825 -0.1390 -1.4637  0.5362
 5835TIP3    H238921   2.060   3.922   4.930  0.6913  0.5101 -0.0769
 5836TIP3   OH238922   2.548   0.991   1.194 -0.1732  0.1957  0.3906
 5836TIP3    H138923   2.552   0.957   1.104 -1.0377  0.1320  0.3684
 5836TIP3    H238924   2.562   1.085   1.184  1.4641 -0.0186  0.3751
 5837TIP3   OH238925   6.029   6.449   3.713 -0.1201  0.4435  0.1021
 5837TIP3    H138926   5.973   6.415   3.783 -0.1511  1.5802  0.6465
 5837TIP3    H238927   6.018   6.544   3.718  0.6385  0.5883 -0.8167
 5838TIP3   OH238928   3.690   2.241  11.115  0.0510  0.0712  0.0185
 5838TIP3    H138929   3.708   2.156  11.156  2.0653 -0.2884 -1.4207
 5838TIP3    H238930   3.663   2.219  11.025  0.7259  0.9183 -0.4099
 5839TIP3   OH238931   3.911   6.151  12.066  0.0395 -0.4597 -0.0650
 5839TIP3    H138932   3.928   6.154  11.972  0.8770 -3.3619 -0.1042
 5839TIP3    H238933   3.992   6.118  12.104 -0.1702  0.9810  1.7680
 5840TIP3   OH238934   1.463   0.144  13.947 -0.0101 -0.1592 -0.2190
 5840TIP3    H138935   1.502   0.101  13.872 -0.9925  0.3284 -1.0327
 5840TIP3    H238936   1.422   0.073  13.997  1.8934 -0.6850  0.6780
 5841TIP3   OH238937   6.660   0.653  13.706  0.0710 -0.6175 -0.0863
 5841TIP3    H138938   6.624   0.686  13.788 -0.2297  1.6904 -1.0440
 5841TIP3    H238939   6.739   0.606  13.731 -0.3591 -0.5196  1.5639
 5842TIP3   OH238940   2.168   6.637  12.789 -0.0839  0.3044 -0.1510
 5842TIP3    H138941   2.236   6.683  12.837  0.2984 -0.6058  0.2149
 5842TIP3    H238942   2.093   6.697  12.790  0.2279  0.7056  0.7508
 5843TIP3   OH238943   3.474   4.853   3.505 -0.1016  0.5325 -0.0722
 5843TIP3    H138944   3.409   4.915   3.540 -0.4145  0.2296 -0.1136
 5843TIP3    H238945   3.499   4.800   3.581 -2.4644 -1.6494 -0.6774
 5844TIP3   OH238946   0.516   4.379   5.548  0.2652  0.5278 -0.1210
 5844TIP3    H138947   0.608   4.356   5.557 -0.4628 -2.0095  2.1496
 5844TIP3    H238948   0.499   4.438   5.622  0.0207  0.8306 -0.4179
 5845TIP3   OH238949   5.476   0.302  15.768 -0.3434 -0.4517  0.5943
 5845TIP3    H138950   5.504   0.311  15.676  2.4276  0.7809  1.4521
 5845TIP3    H238951   5.397   0.357  15.774 -0.0202  0.2356 -0.8432
 5846TIP3   OH238952   6.222   5.961   1.800  0.0158 -0.3143  0.0377
 5846TIP3    H138953   6.173   5.881   1.783 -1.5949  0.5792  0.2799
 5846TIP3    H238954   6.262   5.948   1.886  1.1060 -1.4510 -0.5975
 5847TIP3   OH238955   5.960   6.370   2.165 -0.4185 -0.1042  0.5976
 5847TIP3    H138956   5.957   6.396   2.257 -0.2612 -2.6386  1.3960
 5847TIP3    H238957   6.005   6.443   2.121 -0.9193  1.3782  2.4036
 5848TIP3   OH238958   2.739   6.375   6.308 -0.5718 -0.3213 -0.8631
 5848TIP3    H138959   2.775   6.319   6.377  0.2677 -0.8110 -1.6647
 5848TIP3    H238960   2.644   6.364   6.315 -0.4682 -0.8691 -0.2061
 5849TIP3   OH238961   4.880   6.401   0.908 -0.1381 -0.1308  0.9500
 5849TIP3    H138962   4.904   6.398   0.816  1.5495  0.6163  1.3283
 5849TIP3    H238963   4.848   6.313   0.928  0.0910 -0.4817 -0.1956
 5850TIP3   OH238964   6.336   6.690   3.227  0.0438 -0.3392  0.1832
 5850TIP3    H138965   6.355   6.701   3.320  0.2590 -2.5154  0.4492
 5850TIP3    H238966   6.329   6.779   3.193 -1.3161  0.5415  2.5207
 5851TIP3   OH238967   0.072   4.255   5.683  0.5117 -0.1044  0.6258
 5851TIP3    H138968  -0.003   4.225   5.734  0.9574 -2.7824 -0.1430
 5851TIP3    H238969   0.148   4.231   5.735  0.9345 -1.9305 -0.7242
 5852TIP3   OH238970   5.898   5.654  15.525 -0.0693 -0.0974  0.1759
 5852TIP3    H138971   5.926   5.589  15.591 -1.1351  0.1370  0.8837
 5852TIP3    H238972   5.813   5.621  15.494  0.1038  0.1636 -0.5934
 5853TIP3   OH238973   2.375   5.005  11.180  0.1675 -0.5818  0.0422
 5853TIP3    H138974   2.308   4.953  11.134 -0.0702 -0.8755  0.7046
 5853TIP3    H238975   2.455   4.954  11.170  0.1753 -0.5073 -0.2809
 5854TIP3   OH238976   0.852   4.154   5.762 -0.5396 -0.2285  0.7671
 5854TIP3    H138977   0.840   4.065   5.796 -0.3294 -1.3325 -1.8306
 5854TIP3    H238978   0.933   4.184   5.805 -0.1470 -1.6191  1.0696
 5855TIP3   OH238979   6.554   2.537  16.846 -0.3517  0.1809  0.1642
 5855TIP3    H138980   6.508   2.615  16.815 -0.2839 -0.3520 -1.4028
 5855TIP3    H238981   6.486   2.471  16.853 -0.1934  0.0083  0.0827
 5856TIP3   OH238982   2.992   3.928  15.039  0.0830  0.1644 -0.0009
 5856TIP3    H138983   3.044   4.007  15.058 -0.6771  0.3121  1.7154
 5856TIP3    H238984   2.982   3.886  15.124 -0.8209 -0.9823 -0.6488
 5857TIP3   OH238985   5.750   1.645  13.292 -0.0464 -0.2336  0.0792
 5857TIP3    H138986   5.806   1.588  13.239  0.3380 -0.7448  0.9959
 5857TIP3    H238987   5.811   1.689  13.352 -0.6721 -1.5232  1.7539
 5858TIP3   OH238988   1.267   4.506   1.941  0.0328 -0.2159  0.1448
 5858TIP3    H138989   1.351   4.537   1.977 -1.1352  3.1726  0.3191
 5858TIP3    H238990   1.204   4.522   2.010 -1.3311  0.9206 -1.2853
 5859TIP3   OH238991   4.111   1.308  12.978  0.3165  0.3981 -0.5420
 5859TIP3    H138992   4.078   1.275  13.061 -0.3125 -0.4700 -1.1169
 5859TIP3    H238993   4.038   1.358  12.941 -0.8785 -2.4328 -2.3215
 5860TIP3   OH238994   0.613   0.569  11.416  0.3946  0.3521  0.0696
 5860TIP3    H138995   0.587   0.599  11.329 -0.3484 -1.2719 -0.2952
 5860TIP3    H238996   0.600   0.646  11.472 -0.5039  1.0089 -0.9904
 5861TIP3   OH238997   1.112   4.837   3.365 -0.0553 -0.6844 -0.2168
 5861TIP3    H138998   1.171   4.885   3.307  0.8848  1.0498  2.0473
 5861TIP3    H238999   1.082   4.902   3.428 -2.5059 -2.0800  0.2023
 5862TIP3   OH239000   2.610   1.123  11.043 -0.3718 -0.0865 -0.3028
 5862TIP3    H139001   2.625   1.152  11.134 -0.2425 -1.2060  0.0491
 5862TIP3    H239002   2.522   1.087  11.044  0.0849 -1.2401 -0.3068
 5863TIP3   OH239003   5.714   1.731  13.709 -0.2031  0.4467  0.1333
 5863TIP3    H139004   5.718   1.648  13.756 -1.1893  0.9033  1.0558
 5863TIP3    H239005   5.693   1.796  13.776  1.2479  1.5631 -0.4457
 5864TIP3   OH239006   4.246   4.528  11.037  0.6170  0.3414  0.1717
 5864TIP3    H139007   4.305   4.603  11.036 -0.3515  1.1931  1.9838
 5864TIP3    H239008   4.172   4.553  10.982 -0.0068  1.0321  1.2780
 5865TIP3   OH239009   1.247   3.929   4.429  0.4170 -0.0602  0.2761
 5865TIP3    H139010   1.291   3.860   4.479  1.5522 -0.8528 -1.6687
 5865TIP3    H239011   1.313   3.998   4.421  1.8034 -1.5690 -3.3071
 5866TIP3   OH239012   5.626   0.576   2.743 -0.5354  0.4473  0.3484
 5866TIP3    H139013   5.651   0.585   2.652 -1.6125 -0.6831 -0.0880
 5866TIP3    H239014   5.707   0.594   2.792 -0.2993  2.6048 -0.7190
 5867TIP3   OH239015   0.285   1.171   0.268 -0.1464  0.8441 -0.1713
 5867TIP3    H139016   0.297   1.076   0.266  0.0030  0.8707 -0.9616
 5867TIP3    H239017   0.255   1.193   0.180  1.0013  1.6717 -0.3737
 5868TIP3   OH239018   0.990   0.848   0.567 -0.3281 -0.1076 -0.4805
 5868TIP3    H139019   1.024   0.759   0.566 -1.0251 -0.3920  0.2869
 5868TIP3    H239020   0.973   0.868   0.474  0.4599 -0.5184 -0.7169
 5869TIP3   OH239021   4.886   4.852  13.308  0.0227 -0.2663 -0.2219
 5869TIP3    H139022   4.849   4.933  13.343  0.8857  0.7825 -1.6055
 5869TIP3    H239023   4.824   4.784  13.333  0.2049  0.4844  2.6382
 5870TIP3   OH239024   5.140   4.461  12.351 -0.7456 -0.4633 -0.2793
 5870TIP3    H139025   5.178   4.414  12.277  0.4762 -0.0357  0.0625
 5870TIP3    H239026   5.164   4.408  12.428  1.0870  0.9270  0.1636
 5871TIP3   OH239027   4.682   2.270   5.399  0.2481 -0.0432 -0.0185
 5871TIP3    H139028   4.597   2.246   5.362 -0.9984  1.3495  1.7824
 5871TIP3    H239029   4.726   2.318   5.329 -0.1395 -1.3084 -1.1939
 5872TIP3   OH239030   5.192   2.251  13.607  0.4463  0.0874 -0.0898
 5872TIP3    H139031   5.283   2.223  13.603  0.2214 -0.5144 -1.8094
 5872TIP3    H239032   5.143   2.172  13.629  0.2149  0.0734 -0.6276
 5873TIP3   OH239033   4.389   6.034   5.592  0.0153 -0.0314 -0.0962
 5873TIP3    H139034   4.408   6.104   5.654  1.7257  0.6113 -1.2564
 5873TIP3    H239035   4.294   6.036   5.581 -0.3250 -0.0403  2.2874
 5874TIP3   OH239036   3.334   6.174   0.135 -0.0516  0.3932  0.2032
 5874TIP3    H139037   3.393   6.247   0.153  0.1811  0.2390  0.0606
 5874TIP3    H239038   3.383   6.117   0.076 -0.8336  0.9744 -1.0813
 5875TIP3   OH239039   3.317   4.964   6.179 -0.3132  0.4194  0.3205
 5875TIP3    H139040   3.408   4.957   6.209  0.2774 -0.8974 -1.5866
 5875TIP3    H239041   3.267   4.910   6.240  0.1911  1.0206  1.2924
 5876TIP3   OH239042   4.208   5.083   1.233 -0.0375 -0.1998  0.1910
 5876TIP3    H139043   4.130   5.061   1.182  0.6158  1.4742 -1.6369
 5876TIP3    H239044   4.238   4.998   1.268 -1.8021 -1.0721 -0.2736
 5877TIP3   OH239045   6.703   5.381   2.109 -0.7167 -0.5260 -0.1176
 5877TIP3    H139046   6.748   5.392   2.193  0.7354  0.9194 -1.0328
 5877TIP3    H239047   6.765   5.331   2.055 -0.7687  0.3151 -0.9640
 5878TIP3   OH239048   0.737   4.259   1.875  0.3086 -0.5593  0.0944
 5878TIP3    H139049   0.785   4.178   1.858 -0.0032 -1.1207  1.7855
 5878TIP3    H239050   0.795   4.312   1.929  0.1114 -0.0557 -0.1676
 5879TIP3   OH239051   3.230   0.067  11.991  0.7612  0.4816  0.3424
 5879TIP3    H139052   3.228   0.162  12.001  0.5914  0.7841 -1.9990
 5879TIP3    H239053   3.154   0.047  11.936 -0.3956 -1.2950  2.4065
 5880TIP3   OH239054   4.337   4.090  12.712 -0.1978 -0.0721 -0.0249
 5880TIP3    H139055   4.418   4.103  12.761  1.0205 -0.0010 -1.9926
 5880TIP3    H239056   4.343   4.001  12.677 -1.7164 -0.6592  1.0687
 5881TIP3   OH239057   5.572   1.981  11.958 -0.2805  0.4658 -0.1535
 5881TIP3    H139058   5.538   1.942  11.877  0.3679 -3.1950  1.1276
 5881TIP3    H239059   5.494   2.011  12.005 -0.8707  0.5516 -1.1571
 5882TIP3   OH239060   6.226   0.030   0.537  0.5243  0.4297  0.0630
 5882TIP3    H139061   6.143   0.057   0.577  0.0477 -1.7661  0.6949
 5882TIP3    H239062   6.288   0.027   0.609  0.9584  1.2300 -0.2614
 5883TIP3   OH239063   0.432   5.766   3.909 -0.1133  0.0245  0.2691
 5883TIP3    H139064   0.399   5.774   3.820 -0.4370 -0.0668  0.3798
 5883TIP3    H239065   0.436   5.856   3.941  1.4795  0.2101 -0.3581
 5884TIP3   OH239066   5.561   6.160   0.696 -0.2887 -0.0273  0.0955
 5884TIP3    H139067   5.490   6.101   0.669  0.1125 -0.3663 -0.2511
 5884TIP3    H239068   5.602   6.186   0.613 -0.3872  0.6463  0.2562
 5885TIP3   OH239069   0.276   5.097   3.819  0.6095  0.2553  0.6165
 5885TIP3    H139070   0.337   5.145   3.875  1.2247  0.6343 -0.3506
 5885TIP3    H239071   0.200   5.081   3.875  1.0521  0.9474  1.4458
 5886TIP3   OH239072   3.710   1.380   4.795  0.3677  0.5258 -0.0489
 5886TIP3    H139073   3.685   1.471   4.778 -2.9267  0.0762  1.4627
 5886TIP3    H239074   3.659   1.330   4.731  1.2947 -0.3119 -0.1414
 5887TIP3   OH239075   5.997   3.822  17.011 -0.3685  0.0137 -0.5853
 5887TIP3    H139076   5.902   3.827  17.002 -0.3693  3.1174 -0.1089
 5887TIP3    H239077   6.031   3.835  16.923 -0.3225 -1.3497 -0.7974
 5888TIP3   OH239078   6.234   2.010   5.242  0.1885 -0.2632 -0.6610
 5888TIP3    H139079   6.319   2.029   5.204  0.6498 -1.6228 -0.3548
 5888TIP3    H239080   6.203   2.094   5.276  1.4730  0.2108 -0.6373
 5889TIP3   OH239081   5.008   5.136  16.178 -0.3609 -0.4392 -0.1739
 5889TIP3    H139082   4.947   5.075  16.221 -0.8733  1.4741  2.0100
 5889TIP3    H239083   4.955   5.178  16.110 -1.0620  0.0591  0.6525
 5890TIP3   OH239084   4.547   0.002   0.912  0.0826  0.0782 -0.0072
 5890TIP3    H139085   4.559  -0.009   0.818  0.9861 -1.0130  0.2182
 5890TIP3    H239086   4.612  -0.056   0.952 -0.7065  0.0413  1.2944
 5891TIP3   OH239087   2.038   5.287   2.718  0.0624  0.4844 -0.1194
 5891TIP3    H139088   2.093   5.221   2.759 -0.9197  0.0986  0.6328
 5891TIP3    H239089   1.973   5.308   2.785 -0.8248  0.7662 -1.0454
 5892TIP3   OH239090   6.048   1.343   3.699 -0.0775 -0.0392 -0.4088
 5892TIP3    H139091   6.007   1.258   3.682  0.4443 -0.4332  0.2743
 5892TIP3    H239092   6.081   1.336   3.789 -0.9317  1.2454  0.0335
 5893TIP3   OH239093   3.715   0.971   5.992 -0.2658 -0.3337 -0.0802
 5893TIP3    H139094   3.729   0.977   5.898 -1.1660 -1.4333 -0.3119
 5893TIP3    H239095   3.654   0.897   6.003  1.0823 -1.2864  1.4827
 5894TIP3   OH239096   4.236   6.747  16.825  0.8481 -0.1510 -0.5591
 5894TIP3    H139097   4.277   6.693  16.757  1.4093  1.3436 -1.4653
 5894TIP3    H239098   4.175   6.688  16.869  3.1907 -2.1942  0.1639
 5895TIP3   OH239099   0.722   0.778   6.265 -0.1749 -0.4421  0.2354
 5895TIP3    H139100   0.810   0.749   6.242  0.4766  0.4981  1.3872
 5895TIP3    H239101   0.687   0.708   6.320 -0.2740 -0.9525 -0.4659
 5896TIP3   OH239102   4.292   1.268  15.407  0.1991  0.3358  0.4768
 5896TIP3    H139103   4.341   1.206  15.353 -0.5878  0.0740  0.0419
 5896TIP3    H239104   4.280   1.222  15.490 -1.0381 -0.4279 -0.0985
 5897TIP3   OH239105   0.526   2.256  15.616  0.0528  0.0337 -0.7016
 5897TIP3    H139106   0.504   2.311  15.692  0.1427  1.0813 -1.4181
 5897TIP3    H239107   0.503   2.168  15.644  0.6321  0.3148  0.7700
 5898TIP3   OH239108   0.723   1.728  13.951 -0.3440 -0.5151 -0.2492
 5898TIP3    H139109   0.661   1.666  13.913 -1.4259  0.6035 -0.3404
 5898TIP3    H239110   0.700   1.812  13.913  1.7499 -0.1777 -0.9133
 5899TIP3   OH239111   4.869   2.835   0.561 -0.5723 -1.6918 -0.2468
 5899TIP3    H139112   4.911   2.754   0.592  0.7351 -1.0546 -0.3249
 5899TIP3    H239113   4.886   2.836   0.467  3.2077  0.7442  0.2772
 5900TIP3   OH239114   2.260   3.616   3.344  0.3047  0.6002  0.0547
 5900TIP3    H139115   2.319   3.545   3.368 -1.5114 -2.0542 -2.4742
 5900TIP3    H239116   2.272   3.627   3.249 -1.1840  1.9783 -0.0343
 5901TIP3   OH239117   4.980   2.006   0.564 -0.5681  0.0091  0.1381
 5901TIP3    H139118   4.997   2.045   0.478  0.0211  0.7875  0.5947
 5901TIP3    H239119   5.040   1.931   0.567 -2.6362 -1.8359 -1.2771
 5902TIP3   OH239120   3.067   5.963   6.756  0.1041 -0.5600  0.3365
 5902TIP3    H139121   2.986   5.983   6.804  0.3093 -1.0131  0.8739
 5902TIP3    H239122   3.137   5.998   6.811  0.3439 -1.0822  0.3622
 5903TIP3   OH239123   5.654   4.006  11.344 -0.1700 -0.1759 -0.4418
 5903TIP3    H139124   5.639   4.010  11.250 -0.0686 -1.1834 -0.5153
 5903TIP3    H239125   5.710   3.929  11.356 -1.0658 -0.7060  0.5365
 5904TIP3   OH239126   5.153   6.226  16.044  0.1797 -0.1860  0.2212
 5904TIP3    H139127   5.248   6.226  16.042  0.2322  0.6517  1.6459
 5904TIP3    H239128   5.129   6.139  16.011  1.3974 -0.1755 -0.7606
 5905TIP3   OH239129   2.976   5.092   6.282 -0.3730 -0.0265  0.2308
 5905TIP3    H139130   3.060   5.051   6.299 -1.1805 -1.4923  0.7922
 5905TIP3    H239131   2.992   5.186   6.293  1.0097 -0.3412  1.0275
 5906TIP3   OH239132   0.075   3.853   4.912 -0.5545  0.1366  0.1780
 5906TIP3    H139133   0.112   3.841   5.000 -1.3370  1.2332  0.6771
 5906TIP3    H239134   0.032   3.939   4.915 -0.8651  0.0541 -1.1847
 5907TIP3   OH239135   4.046   5.752  12.806 -0.1734  0.1179 -0.4002
 5907TIP3    H139136   4.114   5.693  12.774  1.1927  2.4792 -2.1740
 5907TIP3    H239137   4.077   5.779  12.892 -0.7482 -1.5741  0.3721
 5908TIP3   OH239138   3.327   4.791  16.544 -0.5975  0.4587 -0.0841
 5908TIP3    H139139   3.273   4.782  16.465  1.1511  2.0197 -1.5648
 5908TIP3    H239140   3.380   4.869  16.528  1.0642 -0.1680  1.8948
 5909TIP3   OH239141   1.298   3.708  12.342 -0.2215 -0.4847  0.0243
 5909TIP3    H139142   1.265   3.725  12.253 -2.4417  1.7652  1.1379
 5909TIP3    H239143   1.262   3.622  12.364  1.1940 -1.5489 -1.5277
 5910TIP3   OH239144   1.548   5.137   5.199  0.1335  0.6846  0.2484
 5910TIP3    H139145   1.583   5.211   5.150  0.0748 -0.2800 -1.3152
 5910TIP3    H239146   1.606   5.064   5.178 -2.0961 -0.7111 -1.6093
 5911TIP3   OH239147   4.699   0.071  15.656  0.3355  0.4082  0.3578
 5911TIP3    H139148   4.708   0.161  15.627  0.6467  0.2997  0.1145
 5911TIP3    H239149   4.617   0.041  15.616  0.9239  0.1568 -0.6991
 5912TIP3   OH239150   0.683   2.271  13.954 -0.8191 -0.1227  0.0996
 5912TIP3    H139151   0.614   2.310  13.900 -1.7305  0.7145  1.8006
 5912TIP3    H239152   0.761   2.323  13.934 -1.2187  0.3799 -0.1711
 5913TIP3   OH239153   1.998   3.161   5.780  0.1610 -0.1539 -0.4749
 5913TIP3    H139154   2.068   3.128   5.836  0.0022 -0.3198 -0.3760
 5913TIP3    H239155   1.922   3.168   5.838  0.7901  2.7423  0.1625
 5914TIP3   OH239156   1.893   5.757   5.968 -0.1052 -0.1978 -0.2452
 5914TIP3    H139157   1.883   5.781   6.060 -2.1238  1.2218 -0.7710
 5914TIP3    H239158   1.969   5.807   5.938  2.1879 -2.5365  1.1364
 5915TIP3   OH239159   1.674   1.994   3.271  0.5887 -0.0322  0.3732
 5915TIP3    H139160   1.682   2.086   3.248 -0.3519  0.1214  0.5897
 5915TIP3    H239161   1.612   1.993   3.344 -1.0284 -0.9817 -0.9151
 5916TIP3   OH239162   3.980   5.486   1.376  0.0696 -0.6559  0.4036
 5916TIP3    H139163   3.944   5.569   1.408  0.1100 -0.7063  0.5832
 5916TIP3    H239164   4.032   5.453   1.450  2.1803  0.3905 -0.5421
 5917TIP3   OH239165   4.843   2.104  10.992  0.6347 -0.1054  0.5037
 5917TIP3    H139166   4.874   2.053  10.917 -0.8337  1.6231 -1.3618
 5917TIP3    H239167   4.790   2.042  11.043  1.0030 -1.0956 -0.2797
 5918TIP3   OH239168   6.756   6.468   3.603 -0.1760 -0.1151 -0.2594
 5918TIP3    H139169   6.724   6.542   3.552 -0.0317 -0.4822 -0.9039
 5918TIP3    H239170   6.771   6.503   3.691 -0.8806  0.4150 -0.3478
 5919TIP3   OH239171   3.075   4.925   6.016  0.4258  0.0055 -0.1834
 5919TIP3    H139172   3.046   4.987   6.082 -1.2365 -0.8538 -0.0647
 5919TIP3    H239173   3.167   4.909   6.037  0.9887  2.5795 -0.3784
 5920TIP3   OH239174   0.244   2.511  15.681 -0.1129 -0.9545  0.1708
 5920TIP3    H139175   0.242   2.417  15.699  1.2723 -1.0399  0.0194
 5920TIP3    H239176   0.152   2.537  15.680 -0.4618 -1.7509  3.0312
 5921TIP3   OH239177   4.892   2.170  11.605  0.9558 -0.3713  0.7125
 5921TIP3    H139178   4.887   2.131  11.692 -2.2067 -1.7706  0.0531
 5921TIP3    H239179   4.879   2.096  11.545  0.2289  0.9289 -0.8145
 5922TIP3   OH239180   0.095   0.806   3.809  0.0460 -0.4058  0.7183
 5922TIP3    H139181   0.049   0.851   3.738 -1.4542 -0.6575  1.5041
 5922TIP3    H239182   0.141   0.876   3.856  2.2158 -0.3878 -1.2656
 5923TIP3   OH239183   5.634   5.801  12.297 -0.2301  1.0636  0.2481
 5923TIP3    H139184   5.565   5.802  12.231 -0.1901  0.7199  0.1969
 5923TIP3    H239185   5.632   5.888  12.337 -0.7398  1.0289  0.2967
 5924TIP3   OH239186   4.674   2.667   5.557  0.3778 -0.3964  0.2359
 5924TIP3    H139187   4.594   2.645   5.604  0.0019 -0.0786 -0.2513
 5924TIP3    H239188   4.697   2.754   5.589  1.7031 -1.3017  1.9439
 5925TIP3   OH239189   6.388   2.524  13.927 -0.0457  0.4574  0.7485
 5925TIP3    H139190   6.336   2.444  13.921 -0.2004  0.6971 -2.1205
 5925TIP3    H239191   6.323   2.593  13.944 -0.2702  0.3243  0.4530
 5926TIP3   OH239192   0.665   0.356   0.744 -0.1856  0.0533  0.6345
 5926TIP3    H139193   0.671   0.343   0.650  0.1602  2.8037  0.1891
 5926TIP3    H239194   0.571   0.365   0.761 -0.4173 -2.2673  0.9262
 5927TIP3   OH239195   4.869   0.494   5.045  0.2995 -0.1212  0.2448
 5927TIP3    H139196   4.945   0.499   5.103  1.2220  0.5893 -0.9850
 5927TIP3    H239197   4.864   0.580   5.004 -0.2508 -0.6441 -0.8233
 5928TIP3   OH239198   6.466   2.944   1.877 -0.3552 -0.4508 -0.1284
 5928TIP3    H139199   6.547   2.953   1.927 -1.1859 -0.3797  1.2793
 5928TIP3    H239200   6.452   2.849   1.872  0.3391 -0.5066 -1.2963
 5929TIP3   OH239201   2.569   1.576  16.392  0.0088 -0.0413  0.3392
 5929TIP3    H139202   2.664   1.571  16.383 -0.0288 -1.1528  0.3751
 5929TIP3    H239203   2.536   1.510  16.332 -0.7080 -0.1306  0.8185
 5930TIP3   OH239204   6.318   3.801   5.076 -0.1590  0.5123 -0.2802
 5930TIP3    H139205   6.349   3.764   5.158 -1.0468 -0.4726 -0.3671
 5930TIP3    H239206   6.223   3.786   5.077 -0.3725  1.7043 -0.8766
 5931TIP3   OH239207   5.748   1.697   5.673  0.3828  0.2407  0.6986
 5931TIP3    H139208   5.656   1.671   5.666  0.4622 -0.1019  0.9208
 5931TIP3    H239209   5.796   1.628   5.628  0.5594  0.2284  0.9044
 5932TIP3   OH239210   3.200   0.306   2.618 -0.4657 -0.0063  0.4695
 5932TIP3    H139211   3.287   0.342   2.605 -0.7528  0.7447  0.5857
 5932TIP3    H239212   3.210   0.244   2.690  0.1840 -0.7314 -0.2301
 5933TIP3   OH239213   0.294   5.601   0.578 -0.5102 -0.0085 -0.4697
 5933TIP3    H139214   0.284   5.657   0.655  0.2983  2.3227 -1.9493
 5933TIP3    H239215   0.220   5.623   0.522 -0.3092 -0.5986 -0.9748
 5934TIP3   OH239216   0.375   0.358  10.908 -0.0857  0.3363 -0.3535
 5934TIP3    H139217   0.377   0.275  10.861  1.4459  0.0675  0.1424
 5934TIP3    H239218   0.375   0.425  10.839 -4.7012  0.0961 -0.9333
 5935TIP3   OH239219   4.106   3.358   0.123 -0.1851  0.5418  0.1623
 5935TIP3    H139220   4.133   3.322   0.039 -0.0414  0.7795  0.1036
 5935TIP3    H239221   4.119   3.452   0.114 -0.4589  0.5988  0.3476
 5936TIP3   OH239222   2.591   6.105  12.581 -0.5298  0.3632 -0.2470
 5936TIP3    H139223   2.503   6.127  12.551 -1.1343 -0.4259  0.8429
 5936TIP3    H239224   2.648   6.122  12.506 -1.8539 -0.8624 -1.5850
 5937TIP3   OH239225   1.678   4.720   5.412 -0.3423  0.1569 -0.1735
 5937TIP3    H139226   1.719   4.642   5.450 -2.2109 -1.5791 -1.4913
 5937TIP3    H239227   1.642   4.767   5.486  1.2882  0.1011  0.7066
 5938TIP3   OH239228   1.325   5.397  12.916  0.3462  0.4255  0.2294
 5938TIP3    H139229   1.250   5.341  12.936 -0.1276  1.6669  2.2631
 5938TIP3    H239230   1.286   5.476  12.878  0.7379  0.5697  0.1271
 5939TIP3   OH239231   4.885   1.403  14.942  0.4062 -1.1130  0.3186
 5939TIP3    H139232   4.795   1.375  14.925  0.5527 -1.1640 -0.4062
 5939TIP3    H239233   4.890   1.491  14.905  1.4854 -2.2427 -2.4097
 5940TIP3   OH239234   5.182   3.005  13.380  0.4809  0.6627 -0.3748
 5940TIP3    H139235   5.217   3.094  13.370  2.1308  0.1857  0.8100
 5940TIP3    H239236   5.168   2.995  13.474  1.1153 -0.6125 -0.3963
 5941TIP3   OH239237   0.938   6.752  14.771  0.8469 -0.1235  0.2355
 5941TIP3    H139238   1.025   6.749  14.810  0.0912  1.2457  2.1918
 5941TIP3    H239239   0.895   6.672  14.801  0.6089  0.4382  1.4658
 5942TIP3   OH239240   5.007   0.826   0.091 -0.8907  0.0433 -0.1114
 5942TIP3    H139241   5.025   0.747   0.142  0.8657 -0.4378 -1.3883
 5942TIP3    H239242   5.076   0.828   0.025 -1.2973  2.2986 -0.5382
 5943TIP3   OH239243   3.818   0.290   4.039 -0.3994  0.3917 -0.3095
 5943TIP3    H139244   3.751   0.224   4.055  0.5066 -0.1096  1.6678
 5943TIP3    H239245   3.895   0.241   4.012  0.4481  0.5093  1.7174
 5944TIP3   OH239246   5.937   5.969  12.080  0.3116 -0.3859 -0.0416
 5944TIP3    H139247   5.877   5.898  12.058 -0.5748  0.1772  0.4832
 5944TIP3    H239248   5.947   6.018  11.999  1.0625 -1.1968 -0.4492
 5945TIP3   OH239249   2.374   3.831  16.227  0.2504 -0.1007  0.0489
 5945TIP3    H139250   2.303   3.776  16.259  1.0162 -0.7553  0.6529
 5945TIP3    H239251   2.394   3.890  16.300  1.6131 -1.2137  0.6087
 5946TIP3   OH239252   1.039   2.531   2.326  0.0783 -0.2709  0.0324
 5946TIP3    H139253   1.061   2.588   2.400 -1.8313  0.4536  0.0943
 5946TIP3    H239254   1.036   2.589   2.250  0.5016 -0.7377 -0.3487
 5947TIP3   OH239255   5.428   6.196   4.875 -0.5991 -0.0344 -0.6424
 5947TIP3    H139256   5.384   6.275   4.846 -1.3725 -0.2080  0.0143
 5947TIP3    H239257   5.361   6.128   4.870 -0.6801 -0.1370  1.1755
 5948TIP3   OH239258   4.040   5.708  12.105 -0.6677 -0.1426  0.1298
 5948TIP3    H139259   3.959   5.700  12.155 -0.4614 -0.3745  0.4351
 5948TIP3    H239260   4.016   5.759  12.028 -1.2239 -0.6836 -0.0618
 5949TIP3   OH239261   0.703   3.670   2.906  0.6763 -0.5423 -0.6121
 5949TIP3    H139262   0.740   3.683   2.993 -0.3465 -0.8812 -0.1061
 5949TIP3    H239263   0.773   3.628   2.856  1.2619 -0.3752  0.0577
 5950TIP3   OH239264   0.441   6.110  12.546  0.1444  0.1170  0.0494
 5950TIP3    H139265   0.473   6.148  12.465  0.3084 -0.5709 -0.2211
 5950TIP3    H239266   0.346   6.124  12.544  0.4517  2.7733  1.1780
 5951TIP3   OH239267   4.041   4.488   0.950 -0.1126 -0.0587 -0.0127
 5951TIP3    H139268   3.966   4.468   1.006  0.0422 -2.5442 -0.5598
 5951TIP3    H239269   4.024   4.576   0.918 -1.3311  0.5641  2.1366
 5952TIP3   OH239270   5.516   6.527   0.829  0.5955  0.1443 -0.1840
 5952TIP3    H139271   5.477   6.571   0.904  1.2927  0.3050  0.0905
 5952TIP3    H239272   5.467   6.445   0.822  0.6209  0.0575  0.5406
 5953TIP3   OH239273   6.328   5.391  12.760  0.3565  0.1137 -0.1593
 5953TIP3    H139274   6.382   5.360  12.832 -0.8014 -0.4415  0.4946
 5953TIP3    H239275   6.238   5.374  12.788 -0.1422  0.4740 -1.4599
 5954TIP3   OH239276   3.827   0.945   0.595  0.4875  0.2699 -0.5898
 5954TIP3    H139277   3.843   0.973   0.685  0.8477  0.0967 -0.6016
 5954TIP3    H239278   3.876   0.863   0.585 -0.6763 -0.4626 -0.5080
 5955TIP3   OH239279   3.056   1.198   4.382 -0.1310  0.0591  0.0565
 5955TIP3    H139280   3.067   1.282   4.426 -1.4700 -0.6437  1.8561
 5955TIP3    H239281   2.962   1.189   4.369  0.1497 -0.1121 -2.4038
 5956TIP3   OH239282   0.033   0.966  14.813  0.3193  0.2852  0.3399
 5956TIP3    H139283   0.010   0.904  14.743  0.7886  1.6671 -1.1139
 5956TIP3    H239284  -0.050   0.998  14.846  0.0842  0.9097 -0.8165
 5957TIP3   OH239285   1.107   4.840   2.905  0.2210 -0.2498 -0.2868
 5957TIP3    H139286   1.095   4.834   2.810 -1.3041 -0.6112 -0.0932
 5957TIP3    H239287   1.142   4.754   2.929 -1.1021 -0.8178 -0.3100
 5958TIP3   OH239288   3.980   4.527  13.276  0.2028  0.7909 -0.1572
 5958TIP3    H139289   4.013   4.539  13.364  0.8686 -0.2987 -0.2386
 5958TIP3    H239290   3.950   4.436  13.274  2.9323 -0.1813 -1.8873
 5959TIP3   OH239291   6.234   0.603   0.283 -0.0884 -0.0253  0.7183
 5959TIP3    H139292   6.324   0.569   0.293 -0.3730 -1.0372  0.0429
 5959TIP3    H239293   6.179   0.531   0.314 -0.7116 -0.1321 -0.5824
 5960TIP3   OH239294   4.251   2.686  14.924  0.7488  0.3874  0.1362
 5960TIP3    H139295   4.242   2.737  14.844 -1.3909  0.4247  0.3532
 5960TIP3    H239296   4.171   2.703  14.973  0.4424 -2.2929  0.7211
 5961TIP3   OH239297   1.407   4.604   4.823  0.1736 -0.3299  0.7049
 5961TIP3    H139298   1.454   4.568   4.748 -1.0106  0.3081 -0.3891
 5961TIP3    H239299   1.455   4.684   4.846 -0.9857  1.0199 -1.2173
 5962TIP3   OH239300   2.022   2.584  12.342  0.3186  0.1893  1.0480
 5962TIP3    H139301   1.965   2.621  12.275 -1.4435 -1.2761  1.6311
 5962TIP3    H239302   1.976   2.602  12.425  0.8782 -0.6894  1.5720
 5963TIP3   OH239303   2.550   6.438   6.053 -0.1219 -0.4524 -0.1789
 5963TIP3    H139304   2.520   6.398   6.134 -0.4702 -0.1328 -0.1523
 5963TIP3    H239305   2.505   6.389   5.984  0.2769 -0.8143 -0.1931
 5964TIP3   OH239306   6.042   0.331  10.782  0.1942  0.1060 -0.4822
 5964TIP3    H139307   5.985   0.281  10.840  0.5181  0.2405 -0.0331
 5964TIP3    H239308   6.085   0.265  10.727  0.6354 -0.1271  0.1189
 5965TIP3   OH239309   5.602   2.232  15.473 -0.6328  0.1201 -0.7318
 5965TIP3    H139310   5.553   2.297  15.423  0.8784  1.4857 -0.5564
 5965TIP3    H239311   5.627   2.166  15.408 -1.5434  0.0984 -1.0754
 5966TIP3   OH239312   1.211   2.778  14.537 -0.4184 -0.4038  0.0943
 5966TIP3    H139313   1.278   2.846  14.548 -1.7065  0.5291  3.1902
 5966TIP3    H239314   1.231   2.738  14.452 -0.5488  4.8583 -2.8138
 5967TIP3   OH239315   2.511   4.859   0.660 -0.1338 -0.5426  0.2784
 5967TIP3    H139316   2.567   4.937   0.665 -2.1893  1.1614 -1.4648
 5967TIP3    H239317   2.506   4.840   0.566 -0.9977 -1.7594  0.5560
 5968TIP3   OH239318   1.253   3.468  12.140  0.5803 -0.1315  0.2104
 5968TIP3    H139319   1.247   3.475  12.044  1.7767 -0.4326  0.0979
 5968TIP3    H239320   1.175   3.419  12.165 -0.0968  0.5341 -0.5395
 5969TIP3   OH239321   6.036   6.377   1.124 -0.1824  0.7462 -0.0019
 5969TIP3    H139322   6.084   6.307   1.167 -2.0162  0.9876  2.6727
 5969TIP3    H239323   6.033   6.448   1.189 -2.9645  1.2013 -0.4822
 5970TIP3   OH239324   5.837   3.371   2.043 -0.3709  0.0464 -0.1120
 5970TIP3    H139325   5.860   3.328   1.961 -1.2340  1.2814 -1.0351
 5970TIP3    H239326   5.752   3.411   2.026 -0.9953 -0.4391  1.6854
 5971TIP3   OH239327   4.010   1.582   5.092 -0.2319 -0.1419 -0.6653
 5971TIP3    H139328   4.026   1.570   4.999  1.7397  1.5428 -0.6290
 5971TIP3    H239329   3.977   1.498   5.122  1.6257 -1.6001 -2.4001
 5972TIP3   OH239330   2.964   4.249   2.397  0.0090  0.2624  0.4219
 5972TIP3    H139331   2.935   4.257   2.306 -0.4211  4.2882  0.7328
 5972TIP3    H239332   3.059   4.237   2.390 -0.1712 -0.8364 -0.5195
 5973TIP3   OH239333   5.067   3.444  17.040 -0.6420  0.6698 -0.2551
 5973TIP3    H139334   5.024   3.529  17.050  0.3564  0.9813  2.2013
 5973TIP3    H239335   5.075   3.411  17.130 -0.2561 -1.6515 -1.0838
 5974TIP3   OH239336   6.656   1.412  14.726  0.2964  0.3678  0.1110
 5974TIP3    H139337   6.736   1.364  14.705  1.1978  1.9399 -0.2028
 5974TIP3    H239338   6.585   1.351  14.703  1.3617 -1.3312  1.0468
 5975TIP3   OH239339   4.566   2.624   1.648 -0.9205 -0.1734  0.0900
 5975TIP3    H139340   4.501   2.678   1.603 -0.5004  0.8570  0.6681
 5975TIP3    H239341   4.528   2.537   1.650 -2.4522  0.4744  0.7141
 5976TIP3   OH239342   0.681   2.535  16.011 -0.2509 -0.0294  0.0290
 5976TIP3    H139343   0.746   2.538  15.942 -0.1958  0.4000  0.0976
 5976TIP3    H239344   0.716   2.592  16.080  0.3488 -1.4901  0.9925
 5977TIP3   OH239345   0.315   3.231  14.921 -0.2394 -0.7693  0.1626
 5977TIP3    H139346   0.366   3.198  14.995 -0.2886  0.2641  0.6769
 5977TIP3    H239347   0.255   3.294  14.960  0.0577  0.1435 -0.8163
 5978TIP3   OH239348   6.466   1.243  11.817  0.1211  0.3844  0.0641
 5978TIP3    H139349   6.552   1.284  11.831 -1.1667  2.5442  2.4504
 5978TIP3    H239350   6.403   1.311  11.840 -2.2314 -1.8438  0.6071
 5979TIP3   OH239351   4.074   2.863  15.234  0.1296  0.4005  0.6833
 5979TIP3    H139352   4.152   2.917  15.227 -0.7773  1.7119  0.2292
 5979TIP3    H239353   4.092   2.803  15.307  1.7125  0.3453  0.2866
 5980TIP3   OH239354   6.750   5.970   2.914 -0.0209  0.3828 -0.2041
 5980TIP3    H139355   6.684   5.973   2.983  2.7248  0.9183  2.6774
 5980TIP3    H239356   6.722   6.035   2.850 -2.4168  0.3180  0.6879
 5981TIP3   OH239357   5.629   4.835  15.878  0.8866  0.7981 -0.1411
 5981TIP3    H139358   5.648   4.742  15.895 -0.1986  0.7895  1.1614
 5981TIP3    H239359   5.712   4.870  15.847  1.9551 -0.1370  1.4824
 5982TIP3   OH239360   1.985   2.402  11.247 -0.2171  0.0963 -0.1693
 5982TIP3    H139361   1.914   2.407  11.312 -0.9268  0.0978 -0.9280
 5982TIP3    H239362   1.943   2.367  11.168  0.6627 -0.0279 -0.5947
 5983TIP3   OH239363   1.162   4.557  16.043 -0.2681  0.2026 -0.0935
 5983TIP3    H139364   1.138   4.638  15.998 -0.2479  0.5894  0.5660
 5983TIP3    H239365   1.237   4.581  16.097 -1.5004  0.3011  1.6845
 5984TIP3   OH239366   4.526   1.534  12.139 -0.2534  0.0562  0.2832
 5984TIP3    H139367   4.539   1.626  12.164 -0.1345  0.3491 -0.8223
 5984TIP3    H239368   4.535   1.533  12.044  0.1415 -1.1683  0.3140
 5985TIP3   OH239369   5.443   4.433   4.005 -0.5383  0.0738 -0.5245
 5985TIP3    H139370   5.377   4.421   4.074  1.0322  1.5809  1.3837
 5985TIP3    H239371   5.452   4.528   3.997  1.5949 -0.0744 -0.4719
 5986TIP3   OH239372   5.368   4.459  11.831 -0.4994 -0.3254  0.0090
 5986TIP3    H139373   5.336   4.456  11.741 -0.7567 -0.6264  0.1105
 5986TIP3    H239374   5.431   4.387  11.836 -1.0743 -0.8195  0.2922
 5987TIP3   OH239375   0.562   3.176  13.712  0.2569  0.1852  0.1746
 5987TIP3    H139376   0.640   3.228  13.695  2.0846 -2.0192  1.1819
 5987TIP3    H239377   0.561   3.111  13.642  0.3835 -0.8853  1.1345
 5988TIP3   OH239378   5.425   4.822  12.046  0.2371 -0.6210 -0.1231
 5988TIP3    H139379   5.454   4.735  12.073 -0.1708 -0.8620 -0.4343
 5988TIP3    H239380   5.423   4.818  11.950 -0.2662 -0.4340 -0.1260
 5989TIP3   OH239381   0.741   4.736  14.653 -0.1770  0.4032  0.1515
 5989TIP3    H139382   0.737   4.658  14.597 -0.2373  0.5028  0.0128
 5989TIP3    H239383   0.777   4.804  14.595  0.0214  0.4384  0.3168
 5990TIP3   OH239384   2.669   1.467   2.943  0.4869 -0.1231 -0.0016
 5990TIP3    H139385   2.575   1.482   2.955  0.2635 -0.4940 -1.2435
 5990TIP3    H239386   2.696   1.536   2.882  0.8587 -0.5206 -0.2827
 5991TIP3   OH239387   6.312   3.588   6.215 -0.0538  0.3722  0.0445
 5991TIP3    H139388   6.314   3.530   6.291  0.7328  2.6216  1.8320
 5991TIP3    H239389   6.400   3.580   6.177 -0.3242 -0.4591 -0.4366
 5992TIP3   OH239390   4.971   0.387   0.035  0.0198  0.8542 -0.1302
 5992TIP3    H139391   4.893   0.357   0.082 -1.1719  2.2623 -1.1027
 5992TIP3    H239392   4.951   0.374  -0.057  2.2995 -1.8030 -0.3692
 5993TIP3   OH239393   3.262   6.134   2.676  0.0238  0.3025 -0.1585
 5993TIP3    H139394   3.224   6.218   2.698  0.6426  0.3338  0.8525
 5993TIP3    H239395   3.287   6.095   2.760  0.6516 -0.4470 -0.6664
 5994TIP3   OH239396   5.999   6.776  15.245 -0.1440 -0.3095  0.0838
 5994TIP3    H139397   6.082   6.728  15.247  0.8893  1.3826 -0.3949
 5994TIP3    H239398   5.951   6.737  15.172  0.1857 -1.3512  0.4074
 5995TIP3   OH239399   1.321   1.924  14.638  0.1754 -0.3045  0.0069
 5995TIP3    H139400   1.277   1.862  14.580 -0.6585  0.4987 -0.2430
 5995TIP3    H239401   1.251   1.979  14.672  0.3516 -1.8639  3.2480
 5996TIP3   OH239402   1.765   4.296  12.120  0.1779  0.2413 -0.4617
 5996TIP3    H139403   1.795   4.244  12.194  2.1750  0.4335 -1.0874
 5996TIP3    H239404   1.767   4.234  12.046 -1.0663  0.2471 -0.5156
 5997TIP3   OH239405   6.102   5.249   5.158  0.5210  0.2603  0.5368
 5997TIP3    H139406   6.048   5.218   5.231  0.1582  2.3396  1.2338
 5997TIP3    H239407   6.154   5.173   5.132 -0.8415 -1.1009  1.5812
 5998TIP3   OH239408   3.939   4.319   4.898 -0.0257 -0.0729 -0.0824
 5998TIP3    H139409   3.984   4.262   4.836  1.8868  2.0057 -0.7478
 5998TIP3    H239410   3.847   4.293   4.893  0.5886 -2.2857 -1.1633
 5999TIP3   OH239411   6.040   1.696  15.928  0.1514 -0.1459  0.6054
 5999TIP3    H139412   5.987   1.761  15.881  0.3041  0.7712  1.6404
 5999TIP3    H239413   5.978   1.630  15.957 -0.6656  1.3711  2.5801
 6000TIP3   OH239414   1.407   4.433   5.655  0.3241 -0.4222 -0.2052
 6000TIP3    H139415   1.387   4.409   5.565 -1.7142 -2.9250  0.7886
 6000TIP3    H239416   1.367   4.518   5.667 -1.5537 -1.1495 -1.0268
 6001TIP3   OH239417   0.746   5.614   2.412  0.0333  0.6519  0.3727
 6001TIP3    H139418   0.768   5.699   2.376 -0.5624  0.4442 -0.4886
 6001TIP3    H239419   0.692   5.572   2.346  0.0992 -0.2971  0.8960
 6002TIP3   OH239420   3.837   0.852  15.921  0.2653  0.3812  0.4594
 6002TIP3    H139421   3.782   0.824  15.994  1.8591 -1.3220  1.0762
 6002TIP3    H239422   3.779   0.848  15.845 -0.7432 -0.3640  1.2398
 6003TIP3   OH239423   3.139   4.564  14.014 -0.2908 -0.0417 -0.1235
 6003TIP3    H139424   3.046   4.547  14.026 -0.2489  1.1754  2.6858
 6003TIP3    H239425   3.143   4.625  13.940 -1.8999  1.2559  0.8075
 6004TIP3   OH239426   4.087   3.266   3.050 -0.0394 -0.5849 -0.3523
 6004TIP3    H139427   4.033   3.272   2.972 -0.4437  1.9808  0.0379
 6004TIP3    H239428   4.177   3.263   3.016 -0.1662  1.2242 -0.9752
 6005TIP3   OH239429   0.306   5.817  16.626  0.4936 -0.2164  0.6442
 6005TIP3    H139430   0.241   5.836  16.558  0.9051  0.1813  0.3545
 6005TIP3    H239431   0.274   5.737  16.668 -0.9524  0.7683  1.4783
 6006TIP3   OH239432   6.522   4.011  12.530 -0.0209 -0.0250  0.2434
 6006TIP3    H139433   6.565   4.097  12.531  1.5587 -0.7836  0.8434
 6006TIP3    H239434   6.582   3.955  12.480 -0.7858 -0.9048  0.2863
 6007TIP3   OH239435   4.338   5.773  16.206  0.1389 -0.9022  0.0913
 6007TIP3    H139436   4.307   5.859  16.235  1.0611 -0.3319 -0.5563
 6007TIP3    H239437   4.379   5.734  16.283  0.5179 -0.3743  0.1631
 6008TIP3   OH239438   3.260   2.137  15.277  0.1697 -0.1011  0.0172
 6008TIP3    H139439   3.306   2.056  15.258  2.1379  1.1179 -0.6529
 6008TIP3    H239440   3.175   2.127  15.234  1.1096 -1.0377 -1.7279
 6009TIP3   OH239441   2.249   1.059   2.482  0.5896 -0.4967  0.1503
 6009TIP3    H139442   2.292   0.980   2.516  0.9981 -0.4414 -0.2234
 6009TIP3    H239443   2.157   1.048   2.505  0.4086 -1.6933 -1.0351
 6010TIP3   OH239444   2.135   2.218  11.008  0.0676 -0.1250  0.1404
 6010TIP3    H139445   2.182   2.258  11.080 -1.0976  0.2659  0.7089
 6010TIP3    H239446   2.045   2.249  11.018 -0.6300 -1.9408 -0.0832
 6011TIP3   OH239447   1.381   2.665   3.355  0.0687 -0.1295  0.1441
 6011TIP3    H139448   1.404   2.708   3.273 -0.0057  1.0906  0.7425
 6011TIP3    H239449   1.461   2.620   3.383  0.1876 -0.2732 -0.4227
 6012TIP3   OH239450   4.685   5.077   4.281  0.3950  0.3959  0.2352
 6012TIP3    H139451   4.618   5.044   4.221  1.3956 -0.5168 -0.4264
 6012TIP3    H239452   4.637   5.106   4.358 -0.6752 -1.3597  0.2741
 6013TIP3   OH239453   6.115   2.322  17.014  0.3748  0.3727 -0.6446
 6013TIP3    H139454   6.196   2.367  16.991  0.7230  0.6362  0.9912
 6013TIP3    H239455   6.047   2.371  16.968  0.6870  2.9614  1.3989
 6014TIP3   OH239456   5.243   6.291  16.468 -0.3053 -0.5647 -0.1271
 6014TIP3    H139457   5.247   6.196  16.457 -0.3042 -0.3692 -2.2387
 6014TIP3    H239458   5.208   6.323  16.385  0.2177  1.3309  0.3380
 6015TIP3   OH239459   0.883   6.454   4.695  0.0393  0.2279 -0.0322
 6015TIP3    H139460   0.974   6.429   4.711 -0.6519 -1.9741  0.8227
 6015TIP3    H239461   0.851   6.389   4.633 -1.5039 -0.3036  1.2711
 6016TIP3   OH239462   2.256   0.436  14.141 -0.3486 -0.0432 -0.1339
 6016TIP3    H139463   2.259   0.394  14.227  1.7496 -0.6294 -0.4484
 6016TIP3    H239464   2.205   0.515  14.155 -1.0523 -0.7197  1.3675
 6017TIP3   OH239465   6.249   3.208   4.220  0.1348  0.0881 -0.3953
 6017TIP3    H139466   6.260   3.175   4.131 -3.1532  1.1842 -1.3436
 6017TIP3    H239467   6.289   3.141   4.276  3.2452 -0.1484 -2.6272
 6018TIP3   OH239468   3.526   5.324  13.617 -0.2713  0.3846 -0.3793
 6018TIP3    H139469   3.584   5.390  13.655  0.1400 -0.0350 -0.2611
 6018TIP3    H239470   3.582   5.247  13.607 -1.5523 -1.1801  2.9157
 6019TIP3   OH239471   0.302   4.150   5.816 -0.3690  0.3392 -0.6815
 6019TIP3    H139472   0.370   4.082   5.816  0.2663  0.9291 -2.1804
 6019TIP3    H239473   0.305   4.187   5.904  0.3116 -0.5665 -0.3095
 6020TIP3   OH239474   4.574   4.523   0.734  0.7905 -0.1052  0.1288
 6020TIP3    H139475   4.601   4.496   0.646 -0.8072  0.7865 -0.6720
 6020TIP3    H239476   4.508   4.459   0.760 -0.2028  0.7669 -0.1801
 6021TIP3   OH239477   2.121   4.078  11.709 -0.1156  0.3686 -0.2010
 6021TIP3    H139478   2.028   4.067  11.691 -0.1659  1.4964 -0.6686
 6021TIP3    H239479   2.133   4.040  11.796 -1.1335  0.7932  0.1363
 6022TIP3   OH239480   5.038   3.753   1.832 -0.3047  0.2693  0.1189
 6022TIP3    H139481   5.025   3.687   1.763  0.9675  0.5502 -0.4216
 6022TIP3    H239482   5.067   3.831   1.785  1.0010  0.3437  0.9878
 6023TIP3   OH239483   4.199   1.160   6.311  0.5246  0.7869  0.1646
 6023TIP3    H139484   4.138   1.169   6.384 -3.7380 -1.5077 -2.6407
 6023TIP3    H239485   4.244   1.077   6.327 -2.2641 -1.0511 -0.7728
 6024TIP3   OH239486   2.543   6.289  13.594  0.6153 -0.9160  0.3831
 6024TIP3    H139487   2.595   6.355  13.549  0.0214 -1.4419 -1.1501
 6024TIP3    H239488   2.459   6.331  13.610  0.3748 -1.1415 -0.2326
 6025TIP3   OH239489   4.486   6.677  14.705 -0.5881 -0.4143  0.0979
 6025TIP3    H139490   4.421   6.747  14.705  1.0296  1.1854  0.2810
 6025TIP3    H239491   4.570   6.723  14.711  0.5294 -2.4150  0.7480
 6026TIP3   OH239492   4.029   0.005  14.318 -0.2819  0.4240  0.2580
 6026TIP3    H139493   4.056   0.073  14.257  1.3907 -0.3213  0.0882
 6026TIP3    H239494   4.066  -0.076  14.281 -1.0524 -0.3649  1.1504
 6027TIP3   OH239495   3.924   1.227   5.594 -0.3736 -0.5846 -0.0666
 6027TIP3    H139496   3.875   1.237   5.512 -0.8431  0.2735  0.3048
 6027TIP3    H239497   4.015   1.226   5.567 -0.5311 -0.4168 -0.6179
 6028TIP3   OH239498   2.867   6.246   3.825  0.2005  0.1118 -0.0209
 6028TIP3    H139499   2.788   6.296   3.840 -0.8311 -1.2304 -0.7265
 6028TIP3    H239500   2.921   6.262   3.902 -1.1980  0.2269  0.9739
 6029TIP3   OH239501   4.511   2.733   4.097  0.1130  0.2934 -0.0558
 6029TIP3    H139502   4.511   2.813   4.150  0.6839 -0.1120  0.5791
 6029TIP3    H239503   4.549   2.760   4.014  2.8095  0.1892  1.0271
 6030TIP3   OH239504   6.341   1.993   0.976 -0.0665  0.1244 -0.3438
 6030TIP3    H139505   6.403   2.047   0.927 -2.5962  1.2274 -2.5576
 6030TIP3    H239506   6.323   2.043   1.055  0.4214  0.6991 -0.5887
 6031TIP3   OH239507   0.262   1.398  14.874 -0.3098  0.4318  0.4649
 6031TIP3    H139508   0.331   1.444  14.826 -1.4345  0.3155 -1.3464
 6031TIP3    H239509   0.224   1.338  14.811 -3.6350  2.1632  0.6128
 6032TIP3   OH239510   4.457   4.083  14.264 -0.4163 -0.0060  0.0038
 6032TIP3    H139511   4.389   4.048  14.206  0.3891 -2.3435  0.3636
 6032TIP3    H239512   4.430   4.056  14.352 -1.2030  2.8077  0.7016
 6033TIP3   OH239513   4.598   2.780   1.865 -0.1072  0.1952 -0.3715
 6033TIP3    H139514   4.693   2.790   1.857 -0.3721  2.9183 -1.1460
 6033TIP3    H239515   4.573   2.725   1.790  0.6990  0.9029 -1.1827
 6034TIP3   OH239516   3.041   1.491  10.261 -0.2002  0.2375 -0.4784
 6034TIP3    H139517   3.070   1.420  10.318  0.0324  2.1647  2.0026
 6034TIP3    H239518   3.087   1.569  10.295 -1.8925  1.9024 -1.7966
 6035TIP3   OH239519   6.402   5.148  15.424 -0.3575  0.2252  0.6167
 6035TIP3    H139520   6.465   5.084  15.456 -0.1735 -0.3367 -0.8041
 6035TIP3    H239521   6.456   5.217  15.386 -0.5528  1.2573  2.1200
 6036TIP3   OH239522   6.395   1.335   5.854 -0.6453  0.1243  0.0836
 6036TIP3    H139523   6.301   1.341   5.838 -0.5775 -0.2508 -0.4676
 6036TIP3    H239524   6.404   1.268   5.922 -0.6963 -0.6293 -0.6506
 6037TIP3   OH239525   4.213   2.402  12.785 -0.3088  0.1587 -0.1900
 6037TIP3    H139526   4.211   2.366  12.697 -0.8391 -0.9161  0.2398
 6037TIP3    H239527   4.305   2.427  12.798  0.0894 -1.0443 -0.5297
 6038TIP3   OH239528   0.599   6.415  12.742 -0.2415  0.1374 -0.4345
 6038TIP3    H139529   0.505   6.401  12.754 -0.1833 -0.0751 -0.2031
 6038TIP3    H239530   0.632   6.330  12.711  0.0569 -0.1469  0.6156
 6039TIP3   OH239531   0.134   4.872  14.537  0.0322  0.2990 -0.1526
 6039TIP3    H139532   0.167   4.945  14.486  1.9174 -0.5194 -0.1729
 6039TIP3    H239533   0.211   4.835  14.580 -0.7841 -1.9008 -0.4193
 6040TIP3   OH239534   3.558   6.315  15.224 -0.4192  0.2737 -0.2443
 6040TIP3    H139535   3.505   6.260  15.281 -1.7745 -0.3651 -2.0520
 6040TIP3    H239536   3.601   6.376  15.284 -1.6868 -0.4231  1.4634
 6041TIP3   OH239537   1.274   3.609  14.606 -0.4754  0.1954  0.0883
 6041TIP3    H139538   1.329   3.668  14.657 -0.0615 -1.7250  2.0740
 6041TIP3    H239539   1.332   3.575  14.538 -0.2066  0.7192  0.0507
 6042TIP3   OH239540   3.501   6.340   3.810  0.2878  0.6030 -0.4213
 6042TIP3    H139541   3.496   6.247   3.832  2.5036  0.8688  1.5823
 6042TIP3    H239542   3.409   6.368   3.806 -0.4025 -1.2521  0.9254
 6043TIP3   OH239543   6.637   3.412   1.688  0.2132  0.1766 -0.5419
 6043TIP3    H139544   6.658   3.499   1.655  3.3633  0.0622  0.8260
 6043TIP3    H239545   6.685   3.352   1.631  1.8014 -0.3083  1.2091
 6044TIP3   OH239546   4.333   2.243   5.873 -0.4736  0.6422 -0.4521
 6044TIP3    H139547   4.427   2.236   5.854 -0.2759  1.2028  0.2776
 6044TIP3    H239548   4.297   2.160   5.843  0.4804 -0.1316  0.4413
 6045TIP3   OH239549   2.116   3.001  13.142  0.6280 -0.1966 -0.4947
 6045TIP3    H139550   2.188   2.938  13.130  0.0903 -0.9904  0.3436
 6045TIP3    H239551   2.038   2.947  13.151  0.2446  0.5471  0.9490
 6046TIP3   OH239552   4.871   1.843  14.288  0.1746  0.0815 -0.1683
 6046TIP3    H139553   4.868   1.788  14.367 -1.8730 -1.7649 -1.4214
 6046TIP3    H239554   4.936   1.800  14.232 -1.1813 -0.9844 -1.0070
 6047TIP3   OH239555   6.630   0.791  15.430  0.4591  0.4905  0.2167
 6047TIP3    H139556   6.609   0.721  15.492 -0.0962  1.2096  0.8657
 6047TIP3    H239557   6.716   0.769  15.396  0.2106 -0.6002  0.2818
 6048TIP3   OH239558   0.381   6.627   1.545  0.4852 -0.2145 -0.0552
 6048TIP3    H139559   0.473   6.651   1.548  1.0010 -2.0556 -0.2333
 6048TIP3    H239560   0.342   6.671   1.621  1.8242 -0.6220  0.8954
 6049TIP3   OH239561   4.150   3.666  11.924 -0.1192 -0.3681  0.3625
 6049TIP3    H139562   4.167   3.577  11.892  0.4006 -0.2444  0.2817
 6049TIP3    H239563   4.223   3.718  11.890 -0.5006  0.1189  0.2858
 6050TIP3   OH239564   3.543   1.759  16.466 -0.1235 -0.2298 -0.2352
 6050TIP3    H139565   3.637   1.778  16.469  0.1812 -1.7454  1.0420
 6050TIP3    H239566   3.539   1.666  16.444 -1.4409  0.3388 -2.8118
 6051TIP3   OH239567   2.944   1.794  12.097 -0.9273  0.0836  0.3898
 6051TIP3    H139568   2.902   1.708  12.091  0.1310 -0.3348 -2.1237
 6051TIP3    H239569   2.874   1.857  12.081 -2.0203 -0.0974  3.6309
 6052TIP3   OH239570   2.479   4.651   4.632 -0.6483 -0.0998  0.7382
 6052TIP3    H139571   2.410   4.711   4.604 -1.6535 -0.3455  2.5830
 6052TIP3    H239572   2.436   4.592   4.694  0.8665 -1.2511  0.7393
 6053TIP3   OH239573   3.768   0.042  13.764  0.3624  0.8136 -0.5923
 6053TIP3    H139574   3.846  -0.008  13.785  0.6771  1.5946  0.1773
 6053TIP3    H239575   3.768   0.048  13.669  0.4879 -0.3463 -0.6822
 6054TIP3   OH239576   6.569   4.570   1.332 -0.2031 -0.4587  0.0648
 6054TIP3    H139577   6.482   4.530   1.330 -0.0727 -0.8209  0.9933
 6054TIP3    H239578   6.582   4.603   1.243 -0.4996 -2.0934 -0.6248
 6055TIP3   OH239579   4.645   4.293   6.509 -0.3650 -0.8115  0.1479
 6055TIP3    H139580   4.557   4.329   6.507 -0.3979 -0.8878  0.2239
 6055TIP3    H239581   4.659   4.259   6.420 -0.2902 -0.5092  0.0422
 6056TIP3   OH239582   3.171   5.628  16.923  0.4211  0.3401 -0.2373
 6056TIP3    H139583   3.078   5.649  16.919  0.7883  2.1573 -0.1214
 6056TIP3    H239584   3.187   5.575  16.845 -0.9442 -1.1571  0.4490
 6057TIP3   OH239585   6.429   1.864  15.132 -0.6293 -0.2031  0.0347
 6057TIP3    H139586   6.356   1.826  15.180 -0.5450 -0.0939  0.2482
 6057TIP3    H239587   6.419   1.959  15.145  0.0545 -0.2325  0.7831
 6058TIP3   OH239588   5.568   4.318  15.321  0.0423 -0.0298 -0.4637
 6058TIP3    H139589   5.494   4.372  15.346  1.1972  0.8491  1.2076
 6058TIP3    H239590   5.631   4.327  15.393  0.5581 -3.1191 -0.3607
 6059TIP3   OH239591   5.289   5.697   1.644 -0.1543  0.2606 -0.4912
 6059TIP3    H139592   5.249   5.711   1.559 -2.3924  1.9441  0.7130
 6059TIP3    H239593   5.335   5.779   1.663 -0.7369  0.3916  0.4177
 6060TIP3   OH239594   6.457   2.647  13.105  0.5952  0.0104  0.2246
 6060TIP3    H139595   6.481   2.654  13.198 -0.6441 -2.0001  0.7504
 6060TIP3    H239596   6.516   2.709  13.061 -0.9943  3.5957  2.6439
 6061TIP3   OH239597   3.685   3.334  11.627 -0.1115  0.4958 -1.2072
 6061TIP3    H139598   3.628   3.358  11.701 -0.5268  1.7180 -1.8891
 6061TIP3    H239599   3.771   3.368  11.651  1.4359 -4.4315  1.4878
 6062TIP3   OH239600   4.390   5.476   0.773 -0.3332  0.0991 -0.2205
 6062TIP3    H139601   4.416   5.390   0.742  0.0333  0.2065 -0.2250
 6062TIP3    H239602   4.363   5.524   0.694 -0.2446  0.0870 -0.2580
 6063TIP3   OH239603   3.949   4.659  12.172 -0.1377 -0.1980 -0.4971
 6063TIP3    H139604   3.926   4.746  12.139  0.6617  0.3544  0.3469
 6063TIP3    H239605   3.865   4.612  12.176 -1.2584  1.7619  2.5591
 6064TIP3   OH239606   3.948   3.086   5.976 -0.1864 -0.9480  0.4423
 6064TIP3    H139607   3.956   3.102   5.882  0.6594 -0.2777  0.6225
 6064TIP3    H239608   4.001   3.009   5.992  0.3238 -0.5898  0.4958
 6065TIP3   OH239609   1.578   1.504   6.087 -0.0734  0.0520 -0.3705
 6065TIP3    H139610   1.561   1.493   6.180 -1.4964  2.0771 -0.3289
 6065TIP3    H239611   1.672   1.492   6.077  0.1298  0.0531  1.3595
 6066TIP3   OH239612   2.311   5.148  17.014  0.2061 -0.8504  0.2920
 6066TIP3    H139613   2.345   5.066  17.048  1.0278 -0.4637  0.4232
 6066TIP3    H239614   2.384   5.188  16.968  0.0632  0.1903  0.9285
 6067TIP3   OH239615   6.513   4.171   4.404  0.0011 -0.4312 -0.0095
 6067TIP3    H139616   6.437   4.226   4.425 -0.0715 -0.1032 -1.0763
 6067TIP3    H239617   6.584   4.206   4.457 -0.3263 -0.0441  0.1742
 6068TIP3   OH239618   4.867   5.451   1.249  0.1988  0.5709 -0.7646
 6068TIP3    H139619   4.797   5.393   1.220  1.5153 -0.4001 -2.1051
 6068TIP3    H239620   4.878   5.431   1.342 -1.4635  0.9570 -0.4457
 6069TIP3   OH239621   1.747   3.630  11.609  0.3915 -0.1355  0.3625
 6069TIP3    H139622   1.686   3.595  11.544 -1.0768 -0.0750  1.6282
 6069TIP3    H239623   1.742   3.569  11.682  1.4350  0.1896  0.7242
 6070TIP3   OH239624   6.147   5.333   4.048 -0.1083  0.0594 -0.0548
 6070TIP3    H139625   6.099   5.291   4.120 -1.5911  2.8300  0.7148
 6070TIP3    H239626   6.078   5.362   3.988  0.9050  0.6362 -0.9496
 6071TIP3   OH239627   3.600   0.404  14.912 -0.0716  0.0305  0.4748
 6071TIP3    H139628   3.616   0.316  14.947 -1.5205 -0.0385  1.0358
 6071TIP3    H239629   3.552   0.449  14.982 -0.4237  0.8672 -0.2878
 6072TIP3   OH239630   3.700   2.363  15.473  0.4276  1.3346 -0.2573
 6072TIP3    H139631   3.755   2.295  15.435 -0.9306  0.4749 -0.7717
 6072TIP3    H239632   3.761   2.419  15.522  1.8278  0.8540 -1.3864
 6073TIP3   OH239633   6.050   1.744  16.992 -0.1478  0.7603  0.3887
 6073TIP3    H139634   6.136   1.726  17.030 -0.7050 -1.4328  0.7578
 6073TIP3    H239635   5.988   1.714  17.059 -1.1893  0.5316 -0.6552
 6074TIP3   OH239636   4.841   3.487  13.665  0.3214 -0.4262  0.0322
 6074TIP3    H139637   4.810   3.540  13.739  0.8633 -0.8779  0.5916
 6074TIP3    H239638   4.935   3.482  13.677  0.6620  0.9602 -1.6820
 6075TIP3   OH239639   6.250   4.165   2.685  0.3943  0.0333  0.6916
 6075TIP3    H139640   6.296   4.113   2.619  1.1661 -0.0846  1.3104
 6075TIP3    H239641   6.208   4.235   2.635  0.2989 -0.5166 -0.0174
 6076TIP3   OH239642   2.337   4.213   5.873 -0.1940 -0.9119 -0.0582
 6076TIP3    H139643   2.319   4.171   5.957 -0.0352 -0.6158  0.1270
 6076TIP3    H239644   2.363   4.141   5.815  3.9666 -0.7514  1.2880
 6077TIP3   OH239645   0.793   6.161  16.842  0.4121 -0.1031  0.2273
 6077TIP3    H139646   0.816   6.104  16.915 -0.8216  0.8262  1.3913
 6077TIP3    H239647   0.803   6.250  16.877 -0.0522  0.3649 -0.7860
 6078TIP3   OH239648   1.175   2.852   3.142 -0.0359 -0.3579  1.1250
 6078TIP3    H139649   1.205   2.942   3.155 -2.4042  0.6246  0.3928
 6078TIP3    H239650   1.220   2.822   3.063  0.0235  0.5676  0.7970
 6079TIP3   OH239651   1.855   1.068  15.813  0.2954 -0.0219 -0.0957
 6079TIP3    H139652   1.916   1.009  15.858 -0.3775 -0.1650  0.6455
 6079TIP3    H239653   1.905   1.100  15.738  0.3700 -2.2411 -1.0643
 6080TIP3   OH239654   2.253   4.483  13.378 -0.1770 -0.0407  0.2201
 6080TIP3    H139655   2.297   4.488  13.462 -1.3153  1.5269  0.7657
 6080TIP3    H239656   2.160   4.489  13.399 -0.4587  0.8937 -1.1660
 6081TIP3   OH239657   6.633   6.688   3.472 -0.7927 -0.2730 -0.3803
 6081TIP3    H139658   6.600   6.777   3.486  0.8543  0.5678 -1.3865
 6081TIP3    H239659   6.555   6.633   3.471 -2.0233  1.3812 -1.2755
 6082TIP3   OH239660   1.370   5.966   0.174  0.0347 -0.6726  0.4098
 6082TIP3    H139661   1.456   5.970   0.216  1.0050  0.7271 -1.5577
 6082TIP3    H239662   1.334   6.054   0.183 -0.9447 -1.0799  0.6733
 6083TIP3   OH239663   6.658   4.816  11.656 -0.0814 -0.1265 -0.3607
 6083TIP3    H139664   6.734   4.826  11.599 -0.8183 -1.4634 -1.6409
 6083TIP3    H239665   6.595   4.880  11.624 -0.0062  0.0521 -0.1591
 6084TIP3   OH239666   4.992   1.991   2.718  0.0036  0.6904  0.3375
 6084TIP3    H139667   5.076   1.972   2.760  0.7678  0.1974 -1.3171
 6084TIP3    H239668   4.984   1.925   2.649 -1.2132  1.4333 -0.2768
 6085TIP3   OH239669   3.481   3.420   1.843 -0.1542  0.1862 -0.0142
 6085TIP3    H139670   3.498   3.327   1.859  1.7263  0.1794 -1.6572
 6085TIP3    H239671   3.551   3.465   1.890  0.0082  0.6511 -0.6865
 6086TIP3   OH239672   4.357   5.328  15.916 -0.5152 -0.5636 -0.3822
 6086TIP3    H139673   4.441   5.306  15.875 -0.3078 -2.5996  0.9508
 6086TIP3    H239674   4.381   5.354  16.005 -1.2454 -0.6005 -0.1717
 6087TIP3   OH239675   3.012   5.512  16.452 -0.7678 -0.3186  0.0961
 6087TIP3    H139676   3.097   5.538  16.418 -0.5479 -0.4998  0.5079
 6087TIP3    H239677   3.018   5.525  16.546 -0.9428 -1.0235  0.2129
 6088TIP3   OH239678   5.562   5.787  16.085  0.3079 -0.4997 -0.6164
 6088TIP3    H139679   5.599   5.836  16.158 -2.4961  0.0466  0.5496
 6088TIP3    H239680   5.638   5.746  16.043  2.1632  0.3812  1.6608
 6089TIP3   OH239681   0.199   4.717   2.984  0.0253 -0.1932 -0.1840
 6089TIP3    H139682   0.196   4.790   3.045  0.5194 -0.0827 -0.2897
 6089TIP3    H239683   0.157   4.750   2.904  1.6012  0.4911 -0.7639
 6090TIP3   OH239684   4.392   0.888   2.724 -0.0733  0.0672 -0.0648
 6090TIP3    H139685   4.408   0.795   2.743  1.4975  0.4651  0.7439
 6090TIP3    H239686   4.431   0.902   2.638  0.3284  0.1269  0.1244
 6091TIP3   OH239687   0.094   2.385   2.462  0.5211 -0.0015  0.3665
 6091TIP3    H139688   0.013   2.435   2.463  0.8595  0.6069  2.0403
 6091TIP3    H239689   0.161   2.448   2.437  0.7905  0.1232  1.3548
 6092TIP3   OH239690   3.766   0.236  12.768  0.1849 -0.0379  0.0416
 6092TIP3    H139691   3.691   0.256  12.824  0.1459 -1.6300  0.6180
 6092TIP3    H239692   3.795   0.321  12.735 -2.1077  0.6108 -0.5167
 6093TIP3   OH239693   1.916   6.714   4.927  0.4116 -0.6921  0.3971
 6093TIP3    H139694   1.853   6.676   4.988 -0.5119 -1.7825 -1.1619
 6093TIP3    H239695   1.995   6.661   4.937  0.9105  0.2440  1.8538
 6094TIP3   OH239696   6.168   0.900  16.055  0.3245  0.1465 -0.3176
 6094TIP3    H139697   6.171   0.893  15.960 -0.0650 -0.6053 -0.2813
 6094TIP3    H239698   6.080   0.934  16.074  0.5743  0.7756 -0.2434
 6095TIP3   OH239699   4.771   3.683   2.805 -0.2382  0.0850 -0.1302
 6095TIP3    H139700   4.848   3.642   2.843  0.6501  0.9690 -0.9118
 6095TIP3    H239701   4.764   3.644   2.718 -1.7025 -1.2417  0.5461
 6096TIP3   OH239702   2.355   6.099   3.708  0.7491  0.4906  0.6982
 6096TIP3    H139703   2.420   6.056   3.764  0.0907 -0.5891  0.6673
 6096TIP3    H239704   2.271   6.078   3.748  0.3817  1.4033  0.4220
 6097TIP3   OH239705   3.441   4.743   2.489  0.1417  0.3700 -0.5270
 6097TIP3    H139706   3.433   4.794   2.409 -1.2294  1.6245  0.3789
 6097TIP3    H239707   3.353   4.740   2.526  0.7233 -0.2463  0.9099
 6098TIP3   OH239708   1.326   4.608   3.883  0.3377  0.3601 -0.3371
 6098TIP3    H139709   1.410   4.645   3.857  0.5921 -1.3507 -2.1841
 6098TIP3    H239710   1.275   4.605   3.802 -0.3565 -1.4750  0.1183
 6099TIP3   OH239711   3.701   4.350  13.144  0.1724  0.0532 -0.0769
 6099TIP3    H139712   3.699   4.273  13.086 -0.7010  0.0542 -0.0703
 6099TIP3    H239713   3.736   4.420  13.089  0.3830 -0.2022 -0.2732
 6100TIP3   OH239714   4.749   2.370  12.847 -0.5588 -0.4451  0.2436
 6100TIP3    H139715   4.748   2.354  12.753 -0.6661  2.6334 -0.3774
 6100TIP3    H239716   4.807   2.302  12.882 -1.5580 -2.5029 -1.7957
 6101TIP3   OH239717   4.728   0.539  14.722  0.0047  0.8060 -0.4604
 6101TIP3    H139718   4.653   0.582  14.681 -0.3671  1.3720  0.7652
 6101TIP3    H239719   4.713   0.549  14.816 -0.0879 -2.0027 -0.1034
 6102TIP3   OH239720   2.717   6.500  13.018 -0.2571  0.5710  1.0527
 6102TIP3    H139721   2.638   6.550  13.040 -0.1140  1.2031  0.1950
 6102TIP3    H239722   2.690   6.409  13.020 -1.1788  0.8084  0.1595
 6103TIP3   OH239723   2.982   4.454   0.850  0.2368 -0.3746  0.2795
 6103TIP3    H139724   2.936   4.533   0.824  0.3746 -0.3454  0.1217
 6103TIP3    H239725   3.000   4.408   0.768 -0.5129 -0.9464  0.4265
 6104TIP3   OH239726   6.269   5.127   2.943  0.1574  0.0008  0.4229
 6104TIP3    H139727   6.348   5.097   2.897  0.5778  0.0687  1.0904
 6104TIP3    H239728   6.215   5.049   2.952  0.4461 -0.1854  0.5548
 6105TIP3   OH239729   6.247   1.759   5.190  0.4475  0.5322  0.0459
 6105TIP3    H139730   6.236   1.854   5.186 -0.2559  0.5748  2.1326
 6105TIP3    H239731   6.340   1.745   5.171  0.3302  1.5128 -1.4102
 6106TIP3   OH239732   1.507   5.915   0.832 -0.2445  0.1064  0.4091
 6106TIP3    H139733   1.548   5.834   0.802  1.8138  0.8069  1.1518
 6106TIP3    H239734   1.470   5.893   0.917  0.7123  0.0165  0.8190
 6107TIP3   OH239735   5.520   4.020   1.777  0.0904  0.1867 -0.2470
 6107TIP3    H139736   5.562   4.033   1.862  2.1230 -0.2475 -1.1123
 6107TIP3    H239737   5.501   4.109   1.746  0.4803  0.4113  0.1421
 6108TIP3   OH239738   4.700   0.555   5.568 -0.1079 -0.0106 -0.4011
 6108TIP3    H139739   4.681   0.550   5.662  0.7982  2.4875 -0.0160
 6108TIP3    H239740   4.624   0.515   5.526 -1.0423 -0.1785  1.3521
 6109TIP3   OH239741   4.550   2.996  15.209 -0.3041  0.3431 -0.4235
 6109TIP3    H139742   4.554   2.981  15.114 -0.9354 -1.2858 -0.2128
 6109TIP3    H239743   4.621   2.943  15.245  0.4067  1.5220 -0.0068
 6110TIP3   OH239744   3.388   2.232  15.802 -0.5057  0.5251 -0.3920
 6110TIP3    H139745   3.329   2.223  15.877 -1.7419 -0.9789 -1.4676
 6110TIP3    H239746   3.458   2.169  15.818  0.6810  2.0516  0.7069
 6111TIP3   OH239747   0.008   4.364   0.847  0.0597  0.0143  0.3961
 6111TIP3    H139748   0.078   4.397   0.903  1.5390 -0.0492 -1.3580
 6111TIP3    H239749  -0.046   4.442   0.828  1.4009  0.7195 -0.6842
 6112TIP3   OH239750   3.098   6.516  15.937  0.3507 -0.3544  0.4340
 6112TIP3    H139751   3.004   6.499  15.941 -0.0172 -0.1654 -3.4037
 6112TIP3    H239752   3.129   6.461  15.866  3.0064  0.2625  1.0056
 6113TIP3   OH239753   2.906   1.085  14.227 -0.4429 -0.1020  0.0538
 6113TIP3    H139754   2.860   1.167  14.205 -1.2074 -0.7736 -0.9499
 6113TIP3    H239755   2.845   1.038  14.284 -0.1944 -0.1715  0.2637
 6114TIP3   OH239756   0.656   1.530  14.343  0.3070  0.3817 -0.4299
 6114TIP3    H139757   0.623   1.612  14.379 -0.7711 -0.5944  0.8893
 6114TIP3    H239758   0.582   1.493  14.295  0.2357 -0.6255  0.4274
 6115TIP3   OH239759   1.666   6.219  14.621  0.2423 -0.2530  0.1272
 6115TIP3    H139760   1.733   6.282  14.594 -0.4555  0.6056  0.3612
 6115TIP3    H239761   1.705   6.174  14.696  0.4306  0.4966  0.4946
 6116TIP3   OH239762   2.685   2.125  14.406 -0.0389  0.1333 -0.1044
 6116TIP3    H139763   2.731   2.194  14.358 -1.9191  1.5026 -0.0262
 6116TIP3    H239764   2.631   2.171  14.469 -0.7956 -1.4714  0.4710
 6117TIP3   OH239765   5.087   4.461   4.150 -0.0360  0.3559 -0.2547
 6117TIP3    H139766   5.114   4.466   4.058  2.4554 -0.4362  0.3504
 6117TIP3    H239767   5.074   4.553   4.175  2.9733  0.9430 -0.4758
 6118TIP3   OH239768   1.944   1.012  11.107 -0.0002 -0.2373  0.1314
 6118TIP3    H139769   2.037   1.027  11.090 -0.0354 -0.7374 -0.5451
 6118TIP3    H239770   1.929   0.923  11.075 -1.1266  0.5013 -1.4801
 6119TIP3   OH239771   4.831   0.964  14.102  0.0169  0.1205 -0.7073
 6119TIP3    H139772   4.890   0.894  14.131 -0.5977  0.6109  1.9211
 6119TIP3    H239773   4.744   0.925  14.106 -0.6126  1.5063  3.0013
 6120TIP3   OH239774   3.868   3.359   4.425  0.0287  0.7088  0.7337
 6120TIP3    H139775   3.842   3.354   4.517  1.6226  0.4477  1.1882
 6120TIP3    H239776   3.912   3.276   4.407 -1.5869  0.0797 -0.7363
 6121TIP3   OH239777   6.623   4.516  17.221  0.5710 -0.1553  0.3961
 6121TIP3    H139778   6.607   4.601  17.179 -0.4543 -0.4384  0.1987
 6121TIP3    H239779   6.716   4.499  17.204  0.0307 -0.6976 -2.5725
 6122TIP3   OH239780   3.534   4.982  16.574  0.1423 -0.0166 -0.3214
 6122TIP3    H139781   3.532   5.044  16.501 -1.5759  1.0406  0.5512
 6122TIP3    H239782   3.513   5.035  16.651 -0.1610 -1.4692  0.6329
 6123TIP3   OH239783   2.079   4.592   2.640 -0.4728 -0.1409 -0.2059
 6123TIP3    H139784   2.130   4.560   2.565 -0.6521  1.0316 -0.8514
 6123TIP3    H239785   2.044   4.512   2.680 -1.3495 -0.7734 -2.0791
 6124TIP3   OH239786   6.582   3.551  14.667  0.4070 -0.2244 -0.0842
 6124TIP3    H139787   6.677   3.565  14.665  1.0314 -3.4115  0.6791
 6124TIP3    H239788   6.552   3.596  14.745  1.1543  1.3154 -0.6469
 6125TIP3   OH239789   3.729   1.283   4.270 -0.7839 -0.7641 -0.1111
 6125TIP3    H139790   3.786   1.319   4.202 -1.5731 -1.1852 -1.0283
 6125TIP3    H239791   3.673   1.220   4.224 -3.0868  0.7790  0.3893
 6126TIP3   OH239792   5.503   5.383  12.948  0.2070 -0.5998  0.5334
 6126TIP3    H139793   5.442   5.415  12.882  0.6705 -0.2024  0.2908
 6126TIP3    H239794   5.483   5.290  12.956  0.6139 -0.8046 -0.6745
 6127TIP3   OH239795   4.830   1.812   3.081 -0.3575  0.2044  0.1908
 6127TIP3    H139796   4.831   1.886   3.020 -0.3976  0.7340  0.8162
 6127TIP3    H239797   4.737   1.802   3.103 -0.2398  0.7035  0.9641
 6128TIP3   OH239798   2.301   3.510  13.981  0.1793 -0.4999 -0.2281
 6128TIP3    H139799   2.320   3.488  13.890  1.7333  0.7429 -0.2418
 6128TIP3    H239800   2.206   3.510  13.986  0.0506 -2.7790 -1.2672
 6129TIP3   OH239801   2.065   5.514   3.196  0.4528  0.1413  0.4905
 6129TIP3    H139802   2.034   5.500   3.286  0.9038  2.1334  0.9880
 6129TIP3    H239803   1.986   5.515   3.143 -0.1180  1.9027  1.3035
 6130TIP3   OH239804   4.032   4.197   1.235  0.3440  0.4320 -0.7559
 6130TIP3    H139805   3.946   4.212   1.272  1.4214 -0.5980  2.4960
 6130TIP3    H239806   4.025   4.113   1.190 -0.1070 -0.1625  0.4046
 6131TIP3   OH239807   2.302   4.101   2.458 -0.1767 -0.5021  0.1813
 6131TIP3    H139808   2.393   4.115   2.430  0.1474  0.2421  1.4923
 6131TIP3    H239809   2.280   4.181   2.506 -2.0265 -0.0813 -1.2890
 6132TIP3   OH239810   6.157   2.967   2.566 -0.3372 -0.1400  0.1681
 6132TIP3    H139811   6.114   2.940   2.484  0.5051  0.3120 -0.4366
 6132TIP3    H239812   6.161   3.062   2.560  1.8957 -0.2137 -0.4132
 6133TIP3   OH239813   0.481   6.234   4.474 -0.1341 -0.0566  0.1520
 6133TIP3    H139814   0.403   6.215   4.527 -1.1614 -1.2162 -1.6783
 6133TIP3    H239815   0.499   6.153   4.427  2.4427  0.0700  0.7663
 6134TIP3   OH239816   2.706   6.272  15.454  0.7553 -0.1906  0.7956
 6134TIP3    H139817   2.801   6.272  15.442  0.6430  0.5045 -0.2271
 6134TIP3    H239818   2.671   6.291  15.367 -0.2940  0.2693  1.2981
 6135TIP3   OH239819   5.535   0.421   1.375 -0.5394  0.8690  0.4274
 6135TIP3    H139820   5.523   0.387   1.463  0.2817 -0.8318 -0.0876
 6135TIP3    H239821   5.517   0.515   1.383  0.9947  1.0322  2.6914
 6136TIP3   OH239822   2.355   5.167   5.055 -0.3564  0.1496  0.1577
 6136TIP3    H139823   2.406   5.237   5.096  2.0421  0.5004 -3.0507
 6136TIP3    H239824   2.420   5.116   5.007 -2.4653 -2.5043 -0.0849
 6137TIP3   OH239825   0.325   4.142   0.018  0.2642  0.0377  0.6729
 6137TIP3    H139826   0.414   4.137  -0.017  0.4168 -1.4855  1.2287
 6137TIP3    H239827   0.275   4.081  -0.036 -0.8884  2.1123 -0.7554
 6138TIP3   OH239828   4.634   4.290  13.839 -0.3913 -0.4802 -0.4611
 6138TIP3    H139829   4.601   4.260  13.924  1.4195  1.4579  1.0532
 6138TIP3    H239830   4.592   4.375  13.826 -1.4346 -1.2019 -2.0738
 6139TIP3   OH239831   0.560   2.770  11.843 -0.2561 -0.3734 -0.0952
 6139TIP3    H139832   0.579   2.725  11.925 -1.0676  2.0702  1.5476
 6139TIP3    H239833   0.464   2.776  11.841 -0.2055  0.4013 -0.7387
 6140TIP3   OH239834   4.254   2.927   3.590  0.1227  0.4047 -0.2102
 6140TIP3    H139835   4.285   3.017   3.578  0.3032  0.3344 -0.2632
 6140TIP3    H239836   4.326   2.872   3.559  0.1995  0.2351  0.2582
 6141TIP3   OH239837   5.699   1.549  12.780 -0.3650 -0.5389 -0.5816
 6141TIP3    H139838   5.648   1.523  12.856  0.2575 -0.8081 -0.2480
 6141TIP3    H239839   5.713   1.468  12.730  1.6131 -0.9163  0.4834
 6142TIP3   OH239840   5.739   5.756   4.175 -0.5425 -0.8747 -0.4146
 6142TIP3    H139841   5.777   5.808   4.104  1.0257 -0.9150  0.3684
 6142TIP3    H239842   5.646   5.748   4.151 -0.4745  0.8482 -1.4041
 6143TIP3   OH239843   3.595   3.472  13.468 -0.5462  0.1269  0.5734
 6143TIP3    H139844   3.642   3.502  13.546  0.6058 -1.7372  0.6684
 6143TIP3    H239845   3.575   3.552  13.419 -0.7601  1.2813  2.4664
 6144TIP3   OH239846   0.091   1.936   3.656 -0.4982  0.0262  0.0498
 6144TIP3    H139847   0.144   2.012   3.631 -1.0338  0.3576 -0.1151
 6144TIP3    H239848   0.145   1.887   3.717  0.2051  0.0744 -0.5166
 6145TIP3   OH239849   0.623   3.192   5.335  0.2560 -0.3201  0.0770
 6145TIP3    H139850   0.629   3.141   5.416  2.2205  1.5044  1.1699
 6145TIP3    H239851   0.713   3.214   5.313 -0.3477  0.4873 -1.8247
 6146TIP3   OH239852   5.235   5.310   0.427  0.5534  0.2183  0.7874
 6146TIP3    H139853   5.195   5.233   0.467 -1.0961  1.3135  1.3285
 6146TIP3    H239854   5.270   5.278   0.344 -1.8981 -0.7585  0.0304
 6147TIP3   OH239855   0.627   1.200   5.116 -0.0605  0.2148 -0.0510
 6147TIP3    H139856   0.600   1.253   5.191  1.1967 -1.6366  1.8166
 6147TIP3    H239857   0.721   1.218   5.106  0.3840 -1.5284  0.5970
 6148TIP3   OH239858   2.283   4.442   4.479 -0.2603  0.0405  0.4062
 6148TIP3    H139859   2.341   4.465   4.406 -0.2722  1.9408  0.9437
 6148TIP3    H239860   2.326   4.368   4.521 -0.0500 -0.8520 -1.2718
 6149TIP3   OH239861   4.360   1.624  13.156  0.0035 -0.0558 -0.6635
 6149TIP3    H139862   4.401   1.539  13.174  0.1746  0.2560  0.5308
 6149TIP3    H239863   4.269   1.603  13.139  0.0434 -0.4900 -0.3682
 6150TIP3   OH239864   0.610   5.045   3.174 -0.4397 -0.2708  0.3108
 6150TIP3    H139865   0.548   5.115   3.193  1.1025  1.3379 -0.2592
 6150TIP3    H239866   0.581   5.009   3.091 -1.2392 -0.2888  0.5933
 6151TIP3   OH239867   4.835   5.389   5.357  0.0264  0.6165 -0.4352
 6151TIP3    H139868   4.780   5.461   5.388  0.1599  0.3224  0.5345
 6151TIP3    H239869   4.922   5.410   5.389  1.0243  2.1660 -3.7400
 6152TIP3   OH239870   5.074   4.584  13.958  0.3739 -0.0014  0.3510
 6152TIP3    H139871   5.138   4.650  13.932  0.8179 -1.0410 -1.4219
 6152TIP3    H239872   5.027   4.623  14.031 -0.2110  2.7838 -1.3568
 6153TIP3   OH239873   3.460   3.275  13.332  0.4748  0.0954  0.2683
 6153TIP3    H139874   3.521   3.343  13.361  1.4053 -0.9434  0.8186
 6153TIP3    H239875   3.477   3.266  13.238  0.5560  0.4145  0.2517
 6154TIP3   OH239876   6.025   3.526   3.228 -0.0059  0.0704 -0.0583
 6154TIP3    H139877   6.012   3.431   3.229 -0.9752  0.1733 -1.0495
 6154TIP3    H239878   6.042   3.548   3.320 -2.3099 -0.7402  0.6464
 6155TIP3   OH239879   2.215   1.177  15.345 -0.5901 -0.0231  0.0455
 6155TIP3    H139880   2.152   1.127  15.293  0.4601 -0.3017 -1.0059
 6155TIP3    H239881   2.178   1.177  15.433 -1.8263 -0.5633 -0.4447
 6156TIP3   OH239882   3.168   3.473   1.584 -0.4252  0.2788 -0.6848
 6156TIP3    H139883   3.210   3.388   1.597 -0.2025  0.5044  0.0573
 6156TIP3    H239884   3.087   3.468   1.635  0.1125  0.9054  0.2463
 6157TIP3   OH239885   2.241   5.515  12.172  0.4852 -0.4399 -0.4599
 6157TIP3    H139886   2.282   5.601  12.159 -0.1214  0.0179  0.5265
 6157TIP3    H239887   2.291   5.476  12.243  1.1406 -1.1813 -1.2958
 6158TIP3   OH239888   1.239   3.026  16.349 -1.0347 -0.1216  0.0998
 6158TIP3    H139889   1.199   3.103  16.390  0.1559  0.7594 -0.3307
 6158TIP3    H239890   1.164   2.975  16.317 -1.8704  0.5853  0.8632
 6159TIP3   OH239891   3.577   5.040  17.202 -0.1381  0.2090  0.1591
 6159TIP3    H139892   3.579   5.044  17.297  2.8882  0.5735  0.1822
 6159TIP3    H239893   3.597   5.129  17.173 -1.1268  0.1304 -0.8564
 6160TIP3   OH239894   4.358   6.276   2.014  0.1711 -0.2595 -0.3754
 6160TIP3    H139895   4.334   6.245   2.102 -0.2303 -2.0733 -1.0892
 6160TIP3    H239896   4.448   6.247   2.002  1.1642  2.1987  0.3478
 6161TIP3   OH239897   3.041   3.459  11.259  0.3229 -0.0216 -0.0571
 6161TIP3    H139898   3.091   3.503  11.191  0.8651  2.5931  1.8650
 6161TIP3    H239899   3.010   3.530  11.315 -3.8623 -1.6374  0.0569
 6162TIP3   OH239900   3.868   0.736  15.174 -0.2925 -0.1057  0.3252
 6162TIP3    H139901   3.777   0.734  15.147  0.1617 -1.2560 -1.2458
 6162TIP3    H239902   3.915   0.685  15.107  1.3323 -0.5452  1.7145
 6163TIP3   OH239903   5.901   2.343  12.037 -0.2577 -0.0632  0.2252
 6163TIP3    H139904   5.886   2.425  12.083 -0.1485 -1.4643  2.9281
 6163TIP3    H239905   5.825   2.334  11.979  0.4510  2.5852 -1.2668
 6164TIP3   OH239906   0.895   1.452  15.418 -0.3537 -0.6163 -0.3761
 6164TIP3    H139907   0.862   1.481  15.333  1.0264  0.1550 -0.6832
 6164TIP3    H239908   0.974   1.505  15.432  0.0932 -1.5668  0.8394
 6165TIP3   OH239909   4.282   1.598   1.613 -0.3952 -0.2543  0.8672
 6165TIP3    H139910   4.207   1.650   1.644  1.3832  1.9811  1.7489
 6165TIP3    H239911   4.324   1.566   1.693 -0.4699 -1.6170  0.3805
 6166TIP3   OH239912   3.748   5.199   5.962 -0.2497  0.4774  0.0740
 6166TIP3    H139913   3.771   5.276   6.015  1.5528 -0.5633  0.9347
 6166TIP3    H239914   3.807   5.131   5.995 -1.9509 -1.3348 -0.5013
 6167TIP3   OH239915   2.914   1.609   2.234  0.1471  0.1984  0.7230
 6167TIP3    H139916   2.834   1.578   2.277  1.3738 -1.8769  1.6388
 6167TIP3    H239917   2.948   1.533   2.187  1.8820  0.8688  0.8007
 6168TIP3   OH239918   1.866   6.410  14.870 -1.1127  0.1279  0.7113
 6168TIP3    H139919   1.899   6.398  14.960 -0.7260 -0.9109  0.4395
 6168TIP3    H239920   1.780   6.370  14.870 -0.6479 -0.9003  0.3324
 6169TIP3   OH239921   3.440   0.104  15.475 -0.0243  0.2281 -0.3104
 6169TIP3    H139922   3.402   0.132  15.559  0.3395 -0.0909 -0.0317
 6169TIP3    H239923   3.496   0.177  15.449 -0.1791  0.3505 -0.3007
 6170TIP3   OH239924   6.608   5.412  12.987 -0.2580 -0.3968  0.3884
 6170TIP3    H139925   6.682   5.373  13.034 -0.7094  0.3734  1.7722
 6170TIP3    H239926   6.534   5.355  13.008 -0.2812 -0.5700 -0.1464
 6171TIP3   OH239927   3.731   0.808  14.581 -0.6520 -0.0761 -0.0965
 6171TIP3    H139928   3.773   0.748  14.520  0.9017  0.4817  0.3657
 6171TIP3    H239929   3.697   0.752  14.651  0.4342 -0.4570  0.1387
 6172TIP3   OH239930   0.307   5.946  17.112  0.5165 -0.2006  0.7734
 6172TIP3    H139931   0.233   6.002  17.139  1.0897  0.7443  0.4264
 6172TIP3    H239932   0.269   5.887  17.047  0.1585  0.6147  0.2163
 6173TIP3   OH239933   5.669   4.158   3.368 -0.4670 -0.2012 -0.0595
 6173TIP3    H139934   5.603   4.117   3.313  0.6081 -0.8241 -0.9390
 6173TIP3    H239935   5.700   4.232   3.316 -0.1271 -0.2127  0.1267
 6174TIP3   OH239936   5.669   4.012  10.641 -0.1090  0.0455  0.4054
 6174TIP3    H139937   5.666   4.058  10.558 -2.4758 -1.4079 -0.4060
 6174TIP3    H239938   5.635   4.075  10.705  1.3720  1.0398  0.2592
 6175TIP3   OH239939   0.485   2.972  11.407 -0.2912 -0.0843  0.3866
 6175TIP3    H139940   0.550   3.006  11.346 -0.6640 -0.8224 -0.4390
 6175TIP3    H239941   0.429   3.047  11.427  0.4316  0.4073  0.6251
 6176TIP3   OH239942   2.949   0.633   0.262  0.3652  0.4130 -0.3247
 6176TIP3    H139943   3.036   0.646   0.223 -0.2383  1.0289 -1.5125
 6176TIP3    H239944   2.897   0.593   0.193 -0.7064  1.4423 -0.1470
 6177TIP3   OH239945   4.670   5.185  12.594  0.4118  0.7258  0.4497
 6177TIP3    H139946   4.718   5.193  12.676  0.5375  2.4991  0.2411
 6177TIP3    H239947   4.726   5.132  12.538 -0.0414 -1.2194  1.7268
 6178TIP3   OH239948   1.798   3.132  16.063  0.1790  0.3889 -0.1163
 6178TIP3    H139949   1.834   3.043  16.057  0.3644  0.1139  3.2346
 6178TIP3    H239950   1.872   3.186  16.091 -0.0983  1.5359 -1.4648
 6179TIP3   OH239951   6.282   4.965   5.483 -0.1911  0.1035  0.3278
 6179TIP3    H139952   6.305   4.893   5.424  1.6182  0.3336  0.6773
 6179TIP3    H239953   6.188   4.975   5.473 -0.3208 -1.5840 -0.5485
 6180TIP3   OH239954   1.941   5.755  14.883  0.8353 -0.0584 -0.0519
 6180TIP3    H139955   1.858   5.748  14.835 -0.3329  0.2367  1.8132
 6180TIP3    H239956   1.960   5.849  14.885  0.0105  0.1058  1.3875
 6181TIP3   OH239957   2.687   5.837   2.468 -0.3610  0.3074 -0.3417
 6181TIP3    H139958   2.754   5.901   2.440 -0.0352  0.4179  0.6251
 6181TIP3    H239959   2.677   5.779   2.394  2.0093 -0.6839  0.0094
 6182TIP3   OH239960   4.562   3.417   1.234 -0.2676 -0.4339 -0.3514
 6182TIP3    H139961   4.527   3.332   1.260  0.5174 -1.2102 -1.7146
 6182TIP3    H239962   4.621   3.442   1.305 -0.6260 -0.9376  0.1318
 6183TIP3   OH239963   5.852   0.214  15.333  0.3678 -0.5577 -0.1439
 6183TIP3    H139964   5.828   0.208  15.241  0.0897 -0.3831 -0.0868
 6183TIP3    H239965   5.929   0.158  15.342  0.7112 -0.1592 -0.5873
 6184TIP3   OH239966   0.646   6.464  14.241  0.2970 -0.3087  0.7031
 6184TIP3    H139967   0.717   6.516  14.280  0.8854 -1.3514  1.0487
 6184TIP3    H239968   0.566   6.509  14.268  0.7820  0.1988  1.3257
 6185TIP3   OH239969   6.235   4.135  16.777  0.0675  0.2439  0.0866
 6185TIP3    H139970   6.162   4.073  16.772  0.5048 -0.4765  1.8932
 6185TIP3    H239971   6.221   4.194  16.703 -1.5496 -0.7304 -0.4399
 6186TIP3   OH239972   6.271   3.046  11.281  0.2789 -0.3928  0.3240
 6186TIP3    H139973   6.265   2.951  11.288 -0.5848 -0.2628  1.4717
 6186TIP3    H239974   6.191   3.072  11.237  1.1121 -0.2804 -1.2164
 6187TIP3   OH239975   0.129   0.167   3.137 -0.0893  0.1031  0.0083
 6187TIP3    H139976   0.117   0.080   3.176 -0.1624  0.6790  1.3318
 6187TIP3    H239977   0.223   0.172   3.118 -0.0954 -0.2904 -0.1318
 6188TIP3   OH239978   5.038   1.057   2.089  0.4460  0.0141  0.2424
 6188TIP3    H139979   4.969   1.057   2.155 -0.4972 -1.5245 -0.6862
 6188TIP3    H239980   5.115   1.023   2.135 -0.0525 -0.5339  0.6839
 6189TIP3   OH239981   1.114   2.262   6.165  0.3119 -0.3858  0.1909
 6189TIP3    H139982   1.030   2.229   6.197 -0.3681  0.8423 -0.2497
 6189TIP3    H239983   1.099   2.355   6.152  1.0436 -0.5203 -2.0846
 6190TIP3   OH239984   5.586   0.199  16.258  0.0506  0.2982 -0.1618
 6190TIP3    H139985   5.565   0.242  16.175  1.0573  1.0025 -0.0714
 6190TIP3    H239986   5.644   0.127  16.232 -0.5831 -0.2156 -0.1774
 6191TIP3   OH239987   0.170   3.880  11.782 -0.0646 -0.1612  0.1552
 6191TIP3    H139988   0.082   3.909  11.805  0.6363  0.4695  2.3497
 6191TIP3    H239989   0.196   3.934  11.708 -1.0089  0.6281  0.3902
 6192TIP3   OH239990   3.351   5.879  15.201 -0.2138  0.5454 -0.7933
 6192TIP3    H139991   3.428   5.831  15.171 -1.2279 -1.5721 -0.2124
 6192TIP3    H239992   3.278   5.838  15.156 -1.1390  1.6443 -0.3409
 6193TIP3   OH239993   4.081   3.533  10.579  0.4461  0.1817 -0.0303
 6193TIP3    H139994   4.155   3.477  10.554  0.8350  1.3061 -1.5833
 6193TIP3    H239995   4.121   3.617  10.601 -0.1589 -0.0145  1.9505
 6194TIP3   OH239996   2.935   5.179   3.705  0.3081  0.1068  0.1447
 6194TIP3    H139997   2.946   5.084   3.713  1.1627  0.1228 -0.6608
 6194TIP3    H239998   2.879   5.191   3.629  0.4716  0.2596  0.0477
 6195TIP3   OH239999   4.077   5.874   5.097  0.3732 -0.0463  0.2036
 6195TIP3    H140000   4.089   5.828   5.181 -0.2754  0.2944  0.4908
 6195TIP3    H240001   4.123   5.957   5.108 -0.0807  0.1838  0.3840
 6196TIP3   OH240002   1.848   3.551  15.080  0.0871 -0.3103  0.3563
 6196TIP3    H140003   1.819   3.640  15.098 -0.9536 -0.8782  1.6755
 6196TIP3    H240004   1.844   3.543  14.984 -0.3057  0.8898  0.2652
 6197TIP3   OH240005   1.903   5.211   4.034  0.5903 -0.3855  0.0178
 6197TIP3    H140006   1.839   5.221   3.963  0.4857 -1.0807  0.0063
 6197TIP3    H240007   1.924   5.118   4.033  2.2300 -0.0391 -0.5114
 6198TIP3   OH240008   4.219   3.408  13.161 -0.3161  0.2923  0.1237
 6198TIP3    H140009   4.291   3.369  13.210  0.4002  1.1537 -0.2208
 6198TIP3    H240010   4.206   3.349  13.086 -1.5807 -1.1712  1.4197
 6199TIP3   OH240011   6.266   5.487   2.215  0.0670 -0.3860 -0.0594
 6199TIP3    H140012   6.269   5.554   2.283 -0.7635  1.6297 -1.8873
 6199TIP3    H240013   6.347   5.499   2.165  1.1772 -2.5269  1.0592
 6200TIP3   OH240014   0.008   4.999   2.218  0.0218 -0.0072  0.4115
 6200TIP3    H140015  -0.067   4.947   2.191  0.0766 -0.3383  0.8795
 6200TIP3    H240016  -0.030   5.074   2.265 -0.0755  0.6075 -0.6294
 6201TIP3   OH240017   5.231   3.903   4.300  0.2786 -0.7485 -0.0685
 6201TIP3    H140018   5.136   3.912   4.311  0.2711 -0.8084 -0.0801
 6201TIP3    H240019   5.243   3.810   4.282  0.4099 -0.8881  0.6996
 6202TIP3   OH240020   3.260   4.152  16.844 -0.7871 -0.0466  0.3279
 6202TIP3    H140021   3.203   4.196  16.781 -0.9853  2.0938  1.8743
 6202TIP3    H240022   3.224   4.064  16.851 -2.7118  0.6360 -0.1979
 6203TIP3   OH240023   0.918   4.956   2.563  0.0903 -0.0411 -0.3706
 6203TIP3    H140024   0.969   5.019   2.510  0.7844  0.6588  1.0689
 6203TIP3    H240025   0.868   4.906   2.499 -0.1640  1.7020 -1.6092
 6204TIP3   OH240026   0.985   3.038   3.460 -0.7188 -0.4130 -0.0976
 6204TIP3    H140027   1.029   2.955   3.479 -0.9491  0.0658  2.9211
 6204TIP3    H240028   1.055   3.102   3.457 -0.7786 -0.3387  0.0937
 6205TIP3   OH240029   4.346   2.131   2.733 -0.2179  0.1527  0.2169
 6205TIP3    H140030   4.419   2.069   2.741 -0.6146 -0.3596 -0.1223
 6205TIP3    H240031   4.295   2.099   2.658 -2.6300 -1.3863  2.3746
 6206TIP3   OH240032   1.355   1.073   5.735 -0.2279  0.0482 -0.2370
 6206TIP3    H140033   1.263   1.057   5.759 -0.3996  1.4328  0.1130
 6206TIP3    H240034   1.382   1.147   5.791  0.8618  0.1713 -0.8952
 6207TIP3   OH240035   4.989   3.373   2.014 -0.9948 -0.8659  0.6577
 6207TIP3    H140036   5.021   3.330   2.094 -2.3346 -0.6965  1.3099
 6207TIP3    H240037   4.903   3.407   2.038 -1.0780 -0.1062 -0.6367
 6208TIP3   OH240038   4.321   3.698   4.417 -0.0783  0.9151 -0.5361
 6208TIP3    H140039   4.357   3.718   4.331  0.4888  0.0066 -0.5290
 6208TIP3    H240040   4.267   3.774   4.440  0.1527  1.3695 -1.4767
 6209TIP3   OH240041   6.753   0.352   5.229  0.9012 -0.2666  0.4088
 6209TIP3    H140042   6.840   0.336   5.194  0.7344  2.4417 -1.6152
 6209TIP3    H240043   6.694   0.325   5.159  0.2197 -0.2177  0.9552
 6210TIP3   OH240044   1.554   5.263  13.004 -0.0306  0.0051  0.6197
 6210TIP3    H140045   1.487   5.324  12.974 -0.9549  0.8025  3.8834
 6210TIP3    H240046   1.508   5.203  13.063  1.7637 -0.5898  1.5048
 6211TIP3   OH240047   3.702   3.405  14.828 -0.6129  0.3599  0.0909
 6211TIP3    H140048   3.622   3.441  14.789 -0.8104 -1.0598 -0.8946
 6211TIP3    H240049   3.748   3.481  14.863 -0.8855  1.6095 -2.1170
 6212TIP3   OH240050   3.558   0.610   1.196  0.7322  0.0602 -0.0413
 6212TIP3    H140051   3.521   0.565   1.120  0.4610 -0.9588  0.6864
 6212TIP3    H240052   3.482   0.641   1.244  0.8723 -0.3123  0.4236
 6213TIP3   OH240053   2.664   1.461   0.403 -0.0621 -0.4504  0.0847
 6213TIP3    H140054   2.645   1.479   0.496  1.1943 -0.6533  0.3944
 6213TIP3    H240055   2.751   1.422   0.404  1.0395  1.8086 -1.4288
 6214TIP3   OH240056   0.452   0.148   5.555  0.1433  0.2876 -0.2806
 6214TIP3    H140057   0.364   0.118   5.575 -0.7354  1.2951 -2.3423
 6214TIP3    H240058   0.500   0.137   5.637 -1.5586 -1.3716  0.5875
 6215TIP3   OH240059   3.816   4.902   2.880  0.2383  0.0337  0.0653
 6215TIP3    H140060   3.839   4.962   2.809 -0.0131  0.3838  0.2778
 6215TIP3    H240061   3.739   4.855   2.847 -0.0264  0.3703  0.2059
 6216TIP3   OH240062   1.163   6.374   5.670 -0.5735 -0.3561 -0.3831
 6216TIP3    H140063   1.095   6.378   5.738  0.6074  0.0214  0.8167
 6216TIP3    H240064   1.167   6.281   5.646  0.4349 -0.9047  1.6395
 6217TIP3   OH240065   3.000   1.738   0.314  0.1129  0.6456 -0.2751
 6217TIP3    H140066   2.939   1.804   0.280  0.1700  0.2587 -1.1613
 6217TIP3    H240067   2.978   1.658   0.267 -1.4778 -0.6171  2.3878
 6218TIP3   OH240068   1.926   0.892   4.417  0.1438  0.4338 -0.1101
 6218TIP3    H140069   1.985   0.968   4.409  0.8825 -0.2061 -0.9444
 6218TIP3    H240070   1.981   0.823   4.455  0.7068 -0.9294 -3.1182
 6219TIP3   OH240071   1.536   5.144  12.200 -0.0136 -0.1594 -0.7276
 6219TIP3    H140072   1.479   5.160  12.275 -1.0597 -1.7193 -1.1570
 6219TIP3    H240073   1.609   5.095  12.235 -0.3041 -0.5423 -0.6571
 6220TIP3   OH240074   1.007   6.719   5.790 -0.1032 -0.0460  0.1001
 6220TIP3    H140075   0.917   6.692   5.807 -0.2236  0.9211  1.1471
 6220TIP3    H240076   1.051   6.707   5.875  0.4058  0.7885 -0.0404
 6221TIP3   OH240077   6.591   4.793   2.320  0.7709 -0.2071 -0.6753
 6221TIP3    H140078   6.516   4.760   2.369  2.5182  0.5968  2.8706
 6221TIP3    H240079   6.661   4.730   2.337  2.1662  1.4825  0.2120
 6222TIP3   OH240080   4.091   5.229  16.811 -0.4387  0.0344 -0.6590
 6222TIP3    H140081   4.073   5.135  16.812  0.0482 -0.0493  0.4668
 6222TIP3    H240082   4.018   5.267  16.859  0.6672 -0.0192  1.1348
 6223TIP3   OH240083   3.659   4.800  15.174  0.2189  0.0628  0.0940
 6223TIP3    H140084   3.582   4.753  15.142  0.6293 -1.4533  1.1864
 6223TIP3    H240085   3.624   4.872  15.225 -0.5601 -1.4451  1.7974
 6224TIP3   OH240086   3.007   5.306  15.250 -0.1112 -0.3867 -0.4946
 6224TIP3    H140087   3.061   5.382  15.231  0.0584 -1.0035 -2.7828
 6224TIP3    H240088   3.053   5.260  15.321 -1.4753  2.7889  2.7491
 6225TIP3   OH240089   3.550   1.273   1.131  0.4536  0.3818 -0.4666
 6225TIP3    H140090   3.499   1.256   1.052  1.5748 -0.3416 -1.0600
 6225TIP3    H240091   3.622   1.329   1.101  2.7507 -2.4518 -0.7101
 6226TIP3   OH240092   0.729   4.913  14.453 -0.6218  0.7632  0.3320
 6226TIP3    H140093   0.682   4.864  14.386  2.5391 -1.9736 -0.1239
 6226TIP3    H240094   0.756   4.994  14.410 -1.9880  0.8533 -0.4060
 6227TIP3   OH240095   5.857   0.495  13.983  0.3214  0.1527 -0.0339
 6227TIP3    H140096   5.866   0.420  14.043 -0.2873  1.6730  2.0677
 6227TIP3    H240097   5.763   0.500  13.965  0.5814 -0.8081 -1.9101
 6228TIP3   OH240098   2.652   6.117  17.208 -0.9075 -0.4088  0.5666
 6228TIP3    H140099   2.597   6.042  17.184 -1.6957  0.5625 -0.8001
 6228TIP3    H240100   2.680   6.098  17.297 -1.9246 -1.8395  0.6256
 6229TIP3   OH240101   6.435   1.662   4.582  0.0476 -0.5462 -0.7234
 6229TIP3    H140102   6.392   1.741   4.613 -1.6563 -0.0078 -4.0065
 6229TIP3    H240103   6.519   1.691   4.548 -0.3352 -0.1977 -1.3980
 6230TIP3   OH240104   6.365   4.936  11.770 -0.2254  0.3448  0.4394
 6230TIP3    H140105   6.337   4.862  11.824  0.4694 -0.5925 -0.4500
 6230TIP3    H240106   6.297   4.943  11.703 -1.2887  1.7487  1.5868
 6231TIP3   OH240107   5.612   4.675   5.262  0.1316  0.5320  0.0743
 6231TIP3    H140108   5.599   4.655   5.170 -0.9268  0.3008  0.2584
 6231TIP3    H240109   5.559   4.610   5.308 -0.2843  1.3498  0.7994
 6232TIP3   OH240110   5.275   2.583   0.070  0.1509  0.1285  0.1084
 6232TIP3    H140111   5.343   2.641   0.037  1.0466  0.0530  1.7289
 6232TIP3    H240112   5.227   2.636   0.134 -0.7911 -0.0839 -0.3968
 6233TIP3   OH240113   1.512   6.766   0.120 -0.7326  0.3422 -0.4698
 6233TIP3    H140114   1.480   6.836   0.063 -0.0887  1.7224  0.7962
 6233TIP3    H240115   1.467   6.781   0.204 -0.0439 -0.3215  0.0306
 6234TIP3   OH240116   0.899   6.776   0.978 -0.2393 -0.2763 -0.2489
 6234TIP3    H140117   0.902   6.698   1.033 -0.6044  0.6629  1.1421
 6234TIP3    H240118   0.864   6.845   1.034  2.5240  1.5976 -0.5876
 6235TIP3   OH240119   4.386   5.193  11.340  0.3495 -0.4581 -0.5891
 6235TIP3    H140120   4.437   5.220  11.263 -0.2507 -0.0766 -0.8583
 6235TIP3    H240121   4.449   5.197  11.412  0.1815  2.3052 -0.4817
 6236TIP3   OH240122   6.142   0.635  13.102 -0.0153  0.5001 -0.1976
 6236TIP3    H140123   6.217   0.608  13.049 -1.0302  1.6398 -2.3608
 6236TIP3    H240124   6.136   0.569  13.171  0.9584 -1.5160 -1.9328
 6237TIP3   OH240125   5.407   1.720   1.435  0.2153  0.4122 -0.1785
 6237TIP3    H140126   5.462   1.674   1.371  1.2373 -0.0325  0.9860
 6237TIP3    H240127   5.407   1.811   1.405  3.9217  1.0465  1.2080
 6238TIP3   OH240128   4.003   4.778  11.566  0.4069 -0.3995 -0.1610
 6238TIP3    H140129   4.087   4.800  11.606  0.0583 -0.6895  0.7737
 6238TIP3    H240130   3.941   4.778  11.640 -0.9682  2.4994 -1.1912
 6239TIP3   OH240131   0.562   2.363  13.326 -0.9078 -0.1071  0.1129
 6239TIP3    H140132   0.604   2.286  13.288 -1.4700  0.0909 -0.9373
 6239TIP3    H240133   0.632   2.408  13.373 -0.4603 -0.9714  0.2937
 6240TIP3   OH240134   2.737   3.941  16.896  0.0508  0.2476  0.2881
 6240TIP3    H140135   2.678   3.898  16.958  0.9031 -1.2520  0.1058
 6240TIP3    H240136   2.742   4.031  16.928 -0.0734 -0.3008  1.9981
 6241TIP3   OH240137   4.963   0.665  16.813  0.4416 -0.2617 -0.0933
 6241TIP3    H140138   4.933   0.755  16.796  0.1562 -0.0164  1.5273
 6241TIP3    H240139   5.052   0.676  16.847  0.6800 -0.6579 -0.5772
 6242TIP3   OH240140   1.383   4.561  16.268  0.2518 -0.8074 -0.6893
 6242TIP3    H140141   1.445   4.593  16.334  0.8006 -0.1938 -1.4830
 6242TIP3    H240142   1.376   4.467  16.286 -0.3024 -0.5128  0.7897
 6243TIP3   OH240143   6.563   0.358  15.716 -0.7413  0.1453  0.0016
 6243TIP3    H140144   6.617   0.322  15.786  2.1209  2.0228 -1.0848
 6243TIP3    H240145   6.572   0.296  15.644 -1.2441 -0.2523  0.2693
 6244TIP3   OH240146   0.560   5.758   2.168  0.0220 -0.7465 -0.3402
 6244TIP3    H140147   0.499   5.775   2.240 -2.0972 -1.3951 -1.8547
 6244TIP3    H240148   0.559   5.662   2.158  2.0934 -0.8756  0.1754
 6245TIP3   OH240149   1.459   0.130   1.231 -0.1573 -0.3400 -0.2735
 6245TIP3    H140150   1.452   0.051   1.177  1.2210  0.2690 -1.4294
 6245TIP3    H240151   1.369   0.151   1.254 -0.5749 -2.0991 -0.1243
 6246TIP3   OH240152   1.729   5.820   4.195 -0.2888 -0.0801  0.3264
 6246TIP3    H140153   1.697   5.794   4.282  0.6259 -1.8750  0.1789
 6246TIP3    H240154   1.815   5.858   4.212 -0.4932  0.4115  0.2780
 6247TIP3   OH240155   5.052   4.342   2.643 -0.3438  0.0876  0.4132
 6247TIP3    H140156   5.090   4.413   2.592 -0.5420 -0.6685 -0.8123
 6247TIP3    H240157   4.987   4.385   2.698 -0.5155  0.8514 -0.3595
 6248TIP3   OH240158   2.817   0.202  16.322  0.0695 -0.2258  0.2601
 6248TIP3    H140159   2.763   0.262  16.271  0.5979 -0.4711 -0.6174
 6248TIP3    H240160   2.818   0.239  16.410  0.8513  1.3942 -0.3760
 6249TIP3   OH240161   1.095   4.558  13.711 -0.2183 -0.4560  0.3441
 6249TIP3    H140162   1.092   4.631  13.772  0.5485 -1.5414  1.7661
 6249TIP3    H240163   1.041   4.490  13.753 -0.4191 -0.9156 -0.6401
 6250TIP3   OH240164   2.389   4.530   4.861  0.0987  0.4774 -0.2757
 6250TIP3    H140165   2.413   4.593   4.929  4.3788 -0.0346 -1.0565
 6250TIP3    H240166   2.379   4.447   4.908  0.4399  0.6183  0.0502
 6251TIP3   OH240167   3.153   4.063   2.099  0.2221  0.4747 -0.0742
 6251TIP3    H140168   3.150   4.031   2.009  0.1268 -0.2384  0.1846
 6251TIP3    H240169   3.080   4.124   2.105 -1.2642 -1.2557  0.1924
 6252TIP3   OH240170   6.414   2.261  14.079 -0.1207  0.1849 -0.1819
 6252TIP3    H140171   6.334   2.264  14.025  0.8065  0.1922 -1.6036
 6252TIP3    H240172   6.483   2.234  14.018  1.4841  2.7488  0.3265
 6253TIP3   OH240173   6.065   4.500  12.696  0.4236 -0.2446  0.4539
 6253TIP3    H140174   6.097   4.582  12.657  0.0038 -0.1747  0.2474
 6253TIP3    H240175   6.007   4.528  12.766  1.2268 -0.3734  1.1760
 6254TIP3   OH240176   1.364   2.572   5.126  0.1323  0.2708 -0.4384
 6254TIP3    H140177   1.380   2.507   5.058  3.3397 -0.6344  0.9777
 6254TIP3    H240178   1.439   2.632   5.120 -1.0202  1.8608  0.4618
 6255TIP3   OH240179   5.570   1.569   1.253  0.8823 -0.1478 -0.1150
 6255TIP3    H140180   5.639   1.543   1.315  1.3217  0.7962 -0.1852
 6255TIP3    H240181   5.511   1.494   1.249  0.1310  0.2008  2.4431
 6256TIP3   OH240182   3.828   3.250   5.436 -0.1076  0.7715 -0.3774
 6256TIP3    H140183   3.841   3.345   5.440 -0.5491  0.8280 -0.1919
 6256TIP3    H240184   3.904   3.218   5.388 -1.1831  1.4745 -2.6631
 6257TIP3   OH240185   1.829   1.209   0.852 -0.3951 -0.1331  0.3726
 6257TIP3    H140186   1.889   1.278   0.823  1.3008 -0.7586  2.1933
 6257TIP3    H240187   1.759   1.255   0.898  0.4865  0.4026  1.1851
 6258TIP3   OH240188   2.293   0.562   0.619 -0.1681 -0.3507 -0.0691
 6258TIP3    H140189   2.379   0.520   0.607  0.3512  1.0749 -1.6442
 6258TIP3    H240190   2.232   0.507   0.570  0.0223 -0.7379  0.1182
 6259TIP3   OH240191   1.004   3.044  13.476  0.6629 -0.1846 -0.6641
 6259TIP3    H140192   0.987   3.071  13.386  1.8407  0.2266 -0.7768
 6259TIP3    H240193   0.945   3.098  13.529  1.8888  1.5752 -0.9961
 6260TIP3   OH240194   2.682   3.443  14.293  0.4463  0.1696  0.2790
 6260TIP3    H140195   2.628   3.499  14.349 -0.0740 -0.0687  0.0249
 6260TIP3    H240196   2.749   3.408  14.351 -1.8448 -2.5167  1.5538
 6261TIP3   OH240197   3.207   5.648  12.826 -0.3377  0.1446 -0.3584
 6261TIP3    H140198   3.179   5.732  12.864 -0.6413  0.9825 -2.3362
 6261TIP3    H240199   3.177   5.651  12.736  0.5083 -1.7055 -0.7476
 6262TIP3   OH240200   6.439   5.017  16.682 -0.0620 -0.3078 -0.0367
 6262TIP3    H140201   6.480   5.011  16.768 -0.9356  2.1787  0.6346
 6262TIP3    H240202   6.360   4.964  16.689  0.4526 -1.0488  0.2967
 6263TIP3   OH240203   2.710   2.348   5.169 -0.8780  0.5508 -0.0742
 6263TIP3    H140204   2.629   2.375   5.213 -1.0146  0.0607 -0.0153
 6263TIP3    H240205   2.764   2.311   5.239 -0.3991  1.3194 -0.0273
 6264TIP3   OH240206   0.614   6.013   4.698 -0.2736 -0.2440 -0.6451
 6264TIP3    H140207   0.691   5.955   4.699  0.1460  0.2982 -0.9546
 6264TIP3    H240208   0.636   6.083   4.759 -0.3137  0.1747 -1.1076
 6265TIP3   OH240209   6.346   5.449   3.072  0.1903  0.0529  0.3745
 6265TIP3    H140210   6.334   5.532   3.117 -2.6964 -0.6538  1.0762
 6265TIP3    H240211   6.258   5.419   3.050  1.1823 -2.3008 -0.8910
 6266TIP3   OH240212   6.332   5.724  16.981 -0.1673  0.4894 -0.4343
 6266TIP3    H140213   6.376   5.657  16.928  0.9820  0.1352  0.8857
 6266TIP3    H240214   6.239   5.703  16.974  0.0844 -0.4856 -1.0661
 6267TIP3   OH240215   0.526   0.875   4.487 -0.5677 -0.1038  0.2252
 6267TIP3    H140216   0.483   0.915   4.562 -1.4571  0.9721 -0.8075
 6267TIP3    H240217   0.607   0.924   4.476 -1.1772  0.7806 -0.4310
 6268TIP3   OH240218   2.160   0.493  17.151  0.3267  0.1157 -0.4982
 6268TIP3    H140219   2.197   0.559  17.093 -0.9440  0.7369 -0.6180
 6268TIP3    H240220   2.236   0.460  17.200  0.9634  1.7899 -0.2840
 6269TIP3   OH240221   1.573   5.170   5.661  0.2435  0.2862 -0.0869
 6269TIP3    H140222   1.522   5.203   5.587  1.5739  1.5543 -0.4804
 6269TIP3    H240223   1.584   5.246   5.718  1.7453  0.0702 -0.0645
 6270TIP3   OH240224   4.035   3.179  16.305  0.2830 -0.5381 -0.4380
 6270TIP3    H140225   4.100   3.244  16.279 -0.5124  0.6796  0.5075
 6270TIP3    H240226   3.976   3.173  16.230 -0.3636  0.8132 -0.0702
 6271TIP3   OH240227   2.516   3.780   6.155  0.2460  0.0755 -0.2742
 6271TIP3    H140228   2.551   3.864   6.183  1.1439 -0.5919  0.6626
 6271TIP3    H240229   2.500   3.731   6.236  0.6671 -1.0113 -0.8210
 6272TIP3   OH240230   5.356   2.518   3.988  0.1883  0.1687 -0.2449
 6272TIP3    H140231   5.399   2.490   4.069 -1.0129  0.8172  0.6461
 6272TIP3    H240232   5.407   2.593   3.958 -0.6142  1.3171  1.1327
 6273TIP3   OH240233   4.130   0.653  11.615  0.5855 -0.1736  0.2547
 6273TIP3    H140234   4.087   0.616  11.538 -0.9602  0.8727  0.5597
 6273TIP3    H240235   4.096   0.743  11.621 -0.7853 -0.7633  3.1651
 6274TIP3   OH240236   6.281   5.794  12.676 -0.1005  0.5206  0.2048
 6274TIP3    H140237   6.308   5.858  12.611 -0.7239  0.3842 -0.1875
 6274TIP3    H240238   6.251   5.847  12.751  0.0411  0.6775  0.1521
 6275TIP3   OH240239   5.855   3.228  11.645  1.0690  0.0484 -0.0660
 6275TIP3    H140240   5.827   3.138  11.627  0.4676  0.7803 -3.5658
 6275TIP3    H240241   5.948   3.229  11.625  1.6358 -0.2212  2.2546
 6276TIP3   OH240242   3.026   1.513   6.116 -0.1364 -0.8319  0.8253
 6276TIP3    H140243   3.098   1.530   6.054  1.4136  1.4199  3.0392
 6276TIP3    H240244   3.020   1.593   6.168 -0.4615 -2.9871  4.4306
 6277TIP3   OH240245   5.796   3.892  12.543 -0.2028 -0.6229 -0.6618
 6277TIP3    H140246   5.866   3.904  12.480  0.7659 -2.1322  0.0488
 6277TIP3    H240247   5.803   3.966  12.603  0.5096 -0.5341 -0.8571
 6278TIP3   OH240248   4.143   1.690  12.945 -0.0484  0.2601  0.1478
 6278TIP3    H140249   4.082   1.623  12.915  0.5866 -0.0474 -0.4786
 6278TIP3    H240250   4.088   1.754  12.991 -1.3669  1.6664 -3.1142
 6279TIP3   OH240251   1.304   0.029   3.631 -0.5836  0.0706 -0.2355
 6279TIP3    H140252   1.332   0.105   3.682  0.7072  0.4668 -1.4411
 6279TIP3    H240253   1.381   0.007   3.578 -0.7130 -2.5073  0.5555
 6280TIP3   OH240254   0.184   4.004  10.884  0.4884  0.0871  0.4808
 6280TIP3    H140255   0.273   4.022  10.852  0.1826  0.7007 -0.0503
 6280TIP3    H240256   0.165   4.076  10.945  0.7018 -0.5553  1.3265
 6281TIP3   OH240257   1.499   0.856   1.233  0.3140 -0.1133 -0.2184
 6281TIP3    H140258   1.515   0.947   1.260  1.6370 -0.1765 -0.7187
 6281TIP3    H240259   1.420   0.861   1.180  1.0222  0.9558 -1.2222
 6282TIP3   OH240260   5.795   1.228  11.102 -0.2935 -0.0538 -0.0610
 6282TIP3    H140261   5.745   1.206  11.181 -1.6232  0.1108 -0.8316
 6282TIP3    H240262   5.754   1.177  11.033  0.0867  0.7244 -0.8829
 6283TIP3   OH240263   1.652   5.835  12.040 -0.6690  0.5157  0.1501
 6283TIP3    H140264   1.682   5.842  11.950  0.0436  0.0642  0.3442
 6283TIP3    H240265   1.640   5.741  12.054 -0.0547  0.5118  0.7391
 6284TIP3   OH240266   6.081   4.604  14.427 -0.6139 -0.1825  0.4233
 6284TIP3    H140267   6.164   4.600  14.380  0.9986 -1.3778  3.1449
 6284TIP3    H240268   6.058   4.697  14.427  1.2853  0.3223  0.4699
 6285TIP3   OH240269   0.925   1.311   0.859 -0.6760  0.1485 -0.5233
 6285TIP3    H140270   0.966   1.283   0.941 -3.4128 -1.4697  0.4101
 6285TIP3    H240271   0.950   1.244   0.796 -2.5672 -1.3875  0.2892
 6286TIP3   OH240272   5.432   0.519  15.590  0.0770 -0.4231  0.3305
 6286TIP3    H140273   5.465   0.563  15.512  1.0497 -0.4894  0.6991
 6286TIP3    H240274   5.342   0.551  15.598  0.5187  0.9205  0.1660
 6287TIP3   OH240275   1.874   3.979   4.186  0.1906 -0.3932 -0.0728
 6287TIP3    H140276   1.904   3.897   4.225  2.8737  0.4479 -0.1679
 6287TIP3    H240277   1.952   4.034   4.182 -1.9338  3.3749  2.7887
 6288TIP3   OH240278   2.033   2.977  15.177  0.0354 -0.4611  0.4429
 6288TIP3    H140279   2.007   2.896  15.221  0.1200 -0.9034 -0.2957
 6288TIP3    H240280   2.018   3.046  15.242  0.1830 -1.0936  1.1615
 6289TIP3   OH240281   2.898   6.381   2.503  0.1053  0.3251  0.6842
 6289TIP3    H140282   2.894   6.300   2.452  1.1678  0.7705 -0.1630
 6289TIP3    H240283   2.827   6.435   2.467  1.0225  0.7459 -0.5750
 6290TIP3   OH240284   6.587   1.862   0.342  0.1571 -0.1864  0.1015
 6290TIP3    H140285   6.607   1.816   0.424  0.0209 -0.0748  0.1971
 6290TIP3    H240286   6.625   1.949   0.353  0.5743 -0.3357 -0.1530
 6291TIP3   OH240287   4.024   3.342   3.781  0.1213 -0.4949 -0.0264
 6291TIP3    H140288   3.970   3.267   3.754 -0.8131  0.2037 -0.1438
 6291TIP3    H240289   4.104   3.303   3.815  0.5458 -1.4814 -2.0527
 6292TIP3   OH240290   4.030   1.762   5.763  0.1519  0.5024  0.1967
 6292TIP3    H140291   3.984   1.746   5.680 -0.5820  0.5694  0.5826
 6292TIP3    H240292   3.963   1.751   5.830  0.8628 -0.0806  0.8251
 6293TIP3   OH240293   1.593   3.407   2.331 -0.5139 -0.3285 -0.1226
 6293TIP3    H140294   1.622   3.453   2.410 -0.1726 -1.9303  0.7310
 6293TIP3    H240295   1.573   3.476   2.269 -1.8292  1.0357  1.7154
 6294TIP3   OH240296   6.511   0.177  15.480  0.7593 -0.2835 -0.7869
 6294TIP3    H140297   6.471   0.105  15.430 -0.2549  1.1393 -2.1541
 6294TIP3    H240298   6.590   0.199  15.430  1.9788 -1.4751  0.5432
 6295TIP3   OH240299   5.082   4.470   3.456  0.2019  0.0601  0.3927
 6295TIP3    H140300   5.114   4.460   3.367  0.1655  0.5793  0.3154
 6295TIP3    H240301   5.084   4.382   3.493  0.3665 -0.1309 -0.0688
 6296TIP3   OH240302   3.295   6.486  14.261 -0.3741  0.1169 -0.2882
 6296TIP3    H140303   3.305   6.462  14.169  0.5987  1.0073 -0.4336
 6296TIP3    H240304   3.384   6.506  14.291 -0.5990 -0.6501  0.9946
 6297TIP3   OH240305   3.690   3.861   5.673  0.5084  0.0287  0.7570
 6297TIP3    H140306   3.741   3.902   5.602  1.9665 -0.0000  1.7441
 6297TIP3    H240307   3.645   3.788   5.630  0.9044  0.3610 -0.2636
 6298TIP3   OH240308   2.262   2.894  13.416 -0.7409  0.3515  0.4336
 6298TIP3    H140309   2.308   2.968  13.456  0.3977 -0.2998  0.3804
 6298TIP3    H240310   2.305   2.881  13.332 -0.3239 -0.9040  0.8061
 6299TIP3   OH240311   1.499   6.365  10.531 -0.0843  0.0312 -0.2256
 6299TIP3    H140312   1.526   6.287  10.579 -0.7861  0.4458  0.8837
 6299TIP3    H240313   1.574   6.384  10.474  1.6615  0.6124  2.0799
 6300TIP3   OH240314   5.916   4.547  11.277  0.0655  0.1126 -0.7203
 6300TIP3    H140315   6.007   4.525  11.298 -0.4778 -4.4574 -2.0447
 6300TIP3    H240316   5.922   4.598  11.196  1.4762  1.1605  0.0160
 6301TIP3   OH240317   0.353   6.573  16.796 -0.1215 -0.0398  0.3731
 6301TIP3    H140318   0.311   6.647  16.752 -2.1495 -0.7474  0.9968
 6301TIP3    H240319   0.424   6.612  16.846 -0.7107  1.4011  0.1300
 6302TIP3   OH240320   2.239   1.840   5.259  0.5324 -0.5724 -0.1079
 6302TIP3    H140321   2.329   1.856   5.230  0.6293  2.8035  1.5346
 6302TIP3    H240322   2.229   1.745   5.255  3.8733 -1.0307 -1.0826
 6303TIP3   OH240323   3.499   2.172  15.523  0.4558  0.1636 -0.1382
 6303TIP3    H140324   3.570   2.234  15.505  0.3084  0.0106 -1.3628
 6303TIP3    H240325   3.467   2.196  15.610  0.3786  1.8398 -0.6033
 6304TIP3   OH240326   3.218   5.130   3.843 -0.0474 -0.6317  0.1602
 6304TIP3    H140327   3.138   5.096   3.882  0.6579 -1.5651  0.8332
 6304TIP3    H240328   3.232   5.214   3.886 -1.3843  0.1988 -0.9544
 6305TIP3   OH240329   4.275   0.928   4.166 -0.4306  0.4679  0.5061
 6305TIP3    H140330   4.193   0.922   4.117 -0.0012  0.8630 -0.2661
 6305TIP3    H240331   4.262   1.004   4.224 -0.4535  0.7843  0.0891
 6306TIP3   OH240332   6.561   3.763   6.509 -0.3039  0.2842 -0.0190
 6306TIP3    H140333   6.524   3.830   6.451  0.8903  1.8211  0.9128
 6306TIP3    H240334   6.545   3.797   6.597 -0.2046 -0.9745  0.5002
 6307TIP3   OH240335   3.237   6.357   6.886 -0.1037 -0.5262  0.5457
 6307TIP3    H140336   3.268   6.413   6.815 -0.0566  1.3244  1.9729
 6307TIP3    H240337   3.141   6.364   6.882 -0.0807  1.4597  2.0277
 6308TIP3   OH240338   6.550   5.171   1.175  0.2469 -0.2035 -0.5811
 6308TIP3    H140339   6.515   5.212   1.254  0.7073  3.0676 -1.9122
 6308TIP3    H240340   6.491   5.097   1.157 -0.9245  0.0904  1.7683
 6309TIP3   OH240341   5.518   0.706   0.110 -0.0060  0.0729 -0.3372
 6309TIP3    H140342   5.584   0.729   0.175 -1.2104 -0.6532  1.1894
 6309TIP3    H240343   5.524   0.611   0.102  0.6467  0.2150 -1.8915
 6310TIP3   OH240344   5.760   2.737  15.824  0.1379  0.2471  0.5640
 6310TIP3    H140345   5.770   2.754  15.917  1.2067 -0.1775  0.5431
 6310TIP3    H240346   5.675   2.774  15.801 -1.1334 -1.5430  2.1430
 6311TIP3   OH240347   1.331   0.018  16.640  0.1050 -0.2343 -0.8503
 6311TIP3    H140348   1.263  -0.029  16.690 -0.8695 -0.1325 -2.0289
 6311TIP3    H240349   1.283   0.086  16.593  1.5237  2.4277  1.2309
 6312TIP3   OH240350   3.671   5.964  14.847 -0.9963 -0.0297 -0.3034
 6312TIP3    H140351   3.589   5.962  14.798  0.4429  1.0878 -2.9740
 6312TIP3    H240352   3.701   5.873  14.847 -1.5469 -0.2176 -0.5119
 6313TIP3   OH240353   1.185   4.357   0.388  0.2618  0.1857  0.2332
 6313TIP3    H140354   1.248   4.384   0.321 -0.3700 -0.5302 -0.6803
 6313TIP3    H240355   1.211   4.269   0.412 -0.1601  0.0252  0.1210
 6314TIP3   OH240356   5.023   3.894   5.416 -0.4577  0.4416 -0.4823
 6314TIP3    H140357   5.005   3.936   5.501  1.0143  0.0159  0.0782
 6314TIP3    H240358   5.101   3.939   5.384 -2.1444  2.0032 -2.6394
 6315TIP3   OH240359   5.276   3.798  13.306  0.4990  0.2999  0.1929
 6315TIP3    H140360   5.257   3.862  13.238  2.5727  1.5558  0.7213
 6315TIP3    H240361   5.306   3.721  13.258  0.1595  0.5071 -0.3643
 6316TIP3   OH240362   2.478   3.920  12.260 -0.7002 -0.3270 -0.0732
 6316TIP3    H140363   2.439   3.987  12.316  0.4968 -0.2841  0.7321
 6316TIP3    H240364   2.549   3.883  12.312 -0.0168 -0.7840 -1.2932
 6317TIP3   OH240365   0.979   4.078   3.614 -0.1045 -0.4543  0.1655
 6317TIP3    H140366   0.886   4.061   3.596 -0.4406 -0.3036  1.6748
 6317TIP3    H240367   1.013   4.113   3.531 -1.7319  0.8873  0.0061
 6318TIP3   OH240368   3.036   3.542  17.175  0.1867 -0.1804  0.6290
 6318TIP3    H140369   2.979   3.619  17.184  0.4218  0.3664 -1.7291
 6318TIP3    H240370   3.034   3.523  17.081  1.2575 -2.2144  0.9774
 6319TIP3   OH240371   3.515   0.800   2.102 -0.1262  0.0757  0.0894
 6319TIP3    H140372   3.471   0.867   2.155 -0.2994  0.1536 -0.1483
 6319TIP3    H240373   3.599   0.785   2.146  0.1184  0.7939 -0.1152
 6320TIP3   OH240374   6.225   2.890  12.284 -0.3447  0.0326  0.7930
 6320TIP3    H140375   6.137   2.854  12.292 -1.8562  1.6960 -4.3885
 6320TIP3    H240376   6.283   2.814  12.283 -2.3965 -1.6364 -0.8751
 6321TIP3   OH240377   6.474   5.015   0.287  0.1839 -0.4772 -0.7362
 6321TIP3    H140378   6.463   4.920   0.278  0.8690 -0.4428 -2.2144
 6321TIP3    H240379   6.569   5.028   0.283  0.0810  0.2921 -0.7536
 6322TIP3   OH240380   3.218   2.148   1.047 -0.0030 -0.4002 -0.1651
 6322TIP3    H140381   3.278   2.192   0.987  0.2497 -1.1598 -0.4772
 6322TIP3    H240382   3.269   2.075   1.083 -0.6607 -0.9013 -0.2357
 6323TIP3   OH240383   3.084   3.426   4.084 -0.5220  0.5062  0.5552
 6323TIP3    H140384   3.056   3.340   4.114 -1.5989  1.2340  1.7712
 6323TIP3    H240385   3.017   3.486   4.117 -0.4948  1.6813 -1.3428
 6324TIP3   OH240386   4.696   6.534  16.557 -0.0574  0.2366 -0.2811
 6324TIP3    H140387   4.703   6.439  16.543  0.6397 -0.0568  1.7426
 6324TIP3    H240388   4.739   6.549  16.641 -0.0903  2.3799 -0.5970
 6325TIP3   OH240389   5.712   4.758   1.534 -0.1794  0.3018 -0.0229
 6325TIP3    H140390   5.737   4.751   1.626 -0.7426  2.3341  0.3396
 6325TIP3    H240391   5.621   4.789   1.536 -1.1162 -2.0769 -1.3057
 6326TIP3   OH240392   5.729   4.818   4.058  0.2445  0.4050 -0.4813
 6326TIP3    H140393   5.808   4.816   4.003  0.5686  0.3854 -0.0260
 6326TIP3    H240394   5.763   4.817   4.148 -0.3101 -1.7493 -0.2464
 6327TIP3   OH240395   2.536   1.773   3.224  0.1584 -0.1450 -0.0535
 6327TIP3    H140396   2.456   1.744   3.269  1.6798  1.1154  3.9094
 6327TIP3    H240397   2.522   1.867   3.209  0.9280  0.1231  0.8378
 6328TIP3   OH240398   4.952   0.937   1.106  0.2260 -0.0656  0.0133
 6328TIP3    H140399   4.881   0.976   1.055  0.5643  1.0756  0.3905
 6328TIP3    H240400   4.979   0.861   1.054 -1.6961 -0.9486  0.1863
 6329TIP3   OH240401   1.085   1.888   5.481  0.4187 -0.0677 -0.5132
 6329TIP3    H140402   1.039   1.914   5.561  2.1291 -2.3894  1.3791
 6329TIP3    H240403   1.016   1.877   5.416 -1.3900 -0.8052  1.4367
 6330TIP3   OH240404   0.712   6.437   6.168  0.2009  0.0114  0.2926
 6330TIP3    H140405   0.729   6.431   6.262  1.1320 -0.1676  0.1263
 6330TIP3    H240406   0.721   6.530   6.147  1.3499 -0.1186  0.1535
 6331TIP3   OH240407   0.602   1.279   2.887 -0.0319  0.5436 -0.4333
 6331TIP3    H140408   0.604   1.370   2.856 -1.5800  0.5215 -0.6479
 6331TIP3    H240409   0.583   1.228   2.808 -0.8524  0.2009 -0.0241
 6332TIP3   OH240410   3.115   0.786  15.676  0.5555  0.3436  0.1426
 6332TIP3    H140411   3.106   0.696  15.644 -1.5771  0.9286 -1.1197
 6332TIP3    H240412   3.209   0.797  15.690  0.9098 -1.9597  0.0061
 6333TIP3   OH240413   3.912   3.216   0.889 -0.6164 -0.4283 -0.1288
 6333TIP3    H140414   3.944   3.234   0.801 -0.9903  2.4937  0.2225
 6333TIP3    H240415   3.817   3.228   0.883 -0.8620 -1.9017  0.3549
 6334TIP3   OH240416   5.188   5.736  11.865  0.3104 -0.2147 -0.1897
 6334TIP3    H140417   5.205   5.704  11.776  0.2120  1.3029 -0.7933
 6334TIP3    H240418   5.263   5.706  11.917  0.5207 -0.8602 -0.8476
 6335TIP3   OH240419   3.868   5.131   1.502 -0.0552  0.0925  0.2202
 6335TIP3    H140420   3.781   5.142   1.464  0.5755  1.4651 -0.9365
 6335TIP3    H240421   3.856   5.151   1.595 -1.2771 -1.4935  0.4428
 6336TIP3   OH240422   5.076   2.424  12.689  0.0940  0.2891 -0.0797
 6336TIP3    H140423   5.119   2.383  12.614 -2.3327 -1.0416 -0.8642
 6336TIP3    H240424   5.086   2.518  12.675  0.5980  0.0382 -1.5154
 6337TIP3   OH240425   3.584   3.754   3.184 -0.3370  0.3865  0.2529
 6337TIP3    H140426   3.524   3.829   3.181  0.0862  0.6938 -1.1861
 6337TIP3    H240427   3.566   3.713   3.268 -2.0750  0.8867  0.1709
 6338TIP3   OH240428   5.403   6.503  16.563 -0.5999  0.2246 -0.0739
 6338TIP3    H140429   5.472   6.446  16.598  0.4079  0.8276 -0.9877
 6338TIP3    H240430   5.345   6.443  16.516 -0.0445 -0.1670 -0.2851
 6339TIP3   OH240431   5.630   6.226   0.949 -0.0659  0.2421  0.6865
 6339TIP3    H140432   5.702   6.289   0.937 -0.5168  0.7090  0.3883
 6339TIP3    H240433   5.605   6.201   0.860 -0.5357  0.3881  0.7743
 6340TIP3   OH240434   3.588   1.752  12.382 -0.1305  0.5332 -0.3315
 6340TIP3    H140435   3.506   1.796  12.401 -0.9745 -0.7916 -0.7646
 6340TIP3    H240436   3.571   1.703  12.301  0.8597 -0.3065 -0.0540
 6341TIP3   OH240437   0.276   2.610   5.292 -0.6666  0.3328  0.0933
 6341TIP3    H140438   0.240   2.683   5.342  0.5559  1.6511 -0.8677
 6341TIP3    H240439   0.210   2.593   5.224 -0.8508  0.7022  0.1764
 6342TIP3   OH240440   4.412   5.238   5.976 -0.0347  0.4085 -0.6826
 6342TIP3    H140441   4.374   5.318   6.013 -0.4377 -0.1610  0.1566
 6342TIP3    H240442   4.358   5.167   6.011  1.6064 -0.4201  0.2855
 6343TIP3   OH240443   3.228   3.617  14.733 -0.4954 -0.6242 -0.3811
 6343TIP3    H140444   3.196   3.529  14.714  0.5082 -0.8479 -1.1281
 6343TIP3    H240445   3.150   3.667  14.755 -1.0440 -1.7941  0.4682
 6344TIP3   OH240446   2.025   1.658  14.050  0.1444  0.1914  0.0537
 6344TIP3    H140447   2.006   1.565  14.038  0.0895  0.2132 -0.0356
 6344TIP3    H240448   2.118   1.662  14.069  0.2694  0.1624 -0.5198
 6345TIP3   OH240449   1.182   6.449   2.131 -0.0410 -0.1719  0.1314
 6345TIP3    H140450   1.208   6.432   2.040  0.3691 -2.3590  0.5837
 6345TIP3    H240451   1.265   6.459   2.178 -0.2654  1.7326  0.1692
 6346TIP3   OH240452   3.648   1.043  11.331 -0.3050 -0.3595 -0.4901
 6346TIP3    H140453   3.596   1.123  11.330 -0.3671 -0.3979 -0.4026
 6346TIP3    H240454   3.652   1.015  11.240  0.2504  0.0853 -0.6051
 6347TIP3   OH240455   2.657   3.358   1.747  0.9337  0.3278 -0.1463
 6347TIP3    H140456   2.574   3.348   1.701  0.2181 -2.1304  1.4895
 6347TIP3    H240457   2.633   3.388   1.835  1.5210 -1.9678  0.8793
 6348TIP3   OH240458   2.495   0.650   5.571 -0.7717 -0.2374  0.1415
 6348TIP3    H140459   2.519   0.577   5.514 -0.4229  0.1026 -0.1530
 6348TIP3    H240460   2.545   0.634   5.652  0.0750  0.1860 -0.2782
 6349TIP3   OH240461   1.140   3.487   6.281  0.3284  0.6833 -0.3474
 6349TIP3    H140462   1.085   3.564   6.297 -1.3746 -0.3924 -0.7717
 6349TIP3    H240463   1.205   3.490   6.351  0.5540  2.7093 -0.5805
 6350TIP3   OH240464   3.013   2.975  15.825 -0.0141 -0.7141  0.2791
 6350TIP3    H140465   3.088   3.032  15.809  1.1206 -1.8837  1.2253
 6350TIP3    H240466   2.968   2.971  15.740  0.4792  0.6936 -0.0816
 6351TIP3   OH240467   0.603   2.246   4.724 -0.2720 -0.3367 -0.1316
 6351TIP3    H140468   0.558   2.331   4.727  0.5417  0.1602 -1.1809
 6351TIP3    H240469   0.645   2.245   4.638  2.4068 -0.4066  1.0783
 6352TIP3   OH240470   2.867   1.979  16.448 -0.0339  0.0721 -0.4933
 6352TIP3    H140471   2.844   1.991  16.356 -0.2795  0.9330 -0.3352
 6352TIP3    H240472   2.784   1.991  16.495  0.3243  1.0447 -0.0739
 6353TIP3   OH240473   2.617   1.545  11.222  0.1433 -0.5475  0.0769
 6353TIP3    H140474   2.666   1.463  11.229 -1.6633 -1.7759 -0.8644
 6353TIP3    H240475   2.559   1.545  11.297  0.8228  0.3974  0.6246
 6354TIP3   OH240476   1.202   4.425  10.557 -0.1841 -0.1641  0.8284
 6354TIP3    H140477   1.232   4.515  10.540 -0.8569 -0.0886 -0.0240
 6354TIP3    H240478   1.273   4.385  10.608  0.9803  0.2692 -0.4035
 6355TIP3   OH240479   0.904   1.859   3.601 -0.1631  0.2082  0.4009
 6355TIP3    H140480   0.914   1.777   3.553 -0.1802  0.7406 -0.5371
 6355TIP3    H240481   0.961   1.849   3.677  1.5817  0.1615 -0.8357
 6356TIP3   OH240482   2.925   1.741   6.356 -0.3596 -0.3655  0.6397
 6356TIP3    H140483   2.984   1.793   6.411 -1.1549  1.2192  0.0628
 6356TIP3    H240484   2.873   1.806   6.309 -1.5712 -1.7091  0.0545
 6357TIP3   OH240485   0.176   4.243   2.010  0.4771 -0.3769  0.3709
 6357TIP3    H140486   0.104   4.196   2.052  1.7558 -1.3626  1.5618
 6357TIP3    H240487   0.242   4.254   2.079  1.9484 -0.5431 -0.9412
 6358TIP3   OH240488   4.728   5.319  13.388  0.3258  0.0458  0.8106
 6358TIP3    H140489   4.699   5.373  13.461  0.6244 -0.5420  1.3773
 6358TIP3    H240490   4.822   5.336  13.382  0.5778 -1.0015  1.5201
 6359TIP3   OH240491   3.050   3.518  13.218 -0.1131 -0.4364 -0.0995
 6359TIP3    H140492   3.129   3.529  13.271 -0.3856 -0.9675  0.4356
 6359TIP3    H240493   2.978   3.513  13.282 -0.6058  0.2242 -0.5857
 6360TIP3   OH240494   0.610   6.770   4.105  0.1186  0.1478 -0.4494
 6360TIP3    H140495   0.676   6.770   4.036 -0.3416  0.7245 -0.9071
 6360TIP3    H240496   0.527   6.763   4.058 -0.1260 -1.2220  0.1524
 6361TIP3   OH240497   5.581   1.817   4.279 -0.1709 -0.0446 -0.2991
 6361TIP3    H140498   5.527   1.892   4.256 -0.7864  0.0135  1.1709
 6361TIP3    H240499   5.664   1.831   4.233  0.3494  2.4239  1.1759
 6362TIP3   OH240500   5.928   5.303   3.423  0.0635 -0.3451 -0.2994
 6362TIP3    H140501   5.833   5.296   3.415  0.1812 -1.7057 -0.8074
 6362TIP3    H240502   5.951   5.237   3.489  0.7677 -1.0276 -1.1922
 6363TIP3   OH240503   4.881   4.033  14.532  0.3445 -0.1349  0.5240
 6363TIP3    H140504   4.835   4.048  14.449  1.0017  2.0723  0.4994
 6363TIP3    H240505   4.955   3.977  14.508  0.3614  0.2345 -0.3402
 6364TIP3   OH240506   1.247   6.638   1.589  0.1256 -0.0838 -0.3231
 6364TIP3    H140507   1.326   6.676   1.549 -0.2175 -0.2003 -1.1443
 6364TIP3    H240508   1.191   6.617   1.514 -0.1291 -1.2422  0.1708
 6365TIP3   OH240509   1.960   0.514   1.697  0.4623 -0.5824 -0.3982
 6365TIP3    H140510   1.931   0.490   1.785 -1.2097 -1.5445 -1.1610
 6365TIP3    H240511   1.933   0.605   1.687 -1.6284 -1.1955 -0.7621
 6366TIP3   OH240512   1.711   4.195   0.042  0.7296 -0.2325 -0.3719
 6366TIP3    H140513   1.789   4.174  -0.008  1.2330 -0.5428  0.5328
 6366TIP3    H240514   1.680   4.111   0.076 -0.0895 -0.1354 -0.8366
 6367TIP3   OH240515   4.859   4.086  12.065  0.4398  0.0725 -0.0662
 6367TIP3    H140516   4.773   4.045  12.071  0.0963  0.6647 -0.7964
 6367TIP3    H240517   4.860   4.151  12.135 -0.9063  2.1805 -1.8808
 6368TIP3   OH240518   4.324   4.480  15.042  0.3328  0.1382 -0.0188
 6368TIP3    H140519   4.414   4.502  15.018  0.0824  2.0553  0.5893
 6368TIP3    H240520   4.332   4.406  15.102  1.2667 -1.6156 -2.1494
 6369TIP3   OH240521   1.579   1.135   4.016  0.0142 -0.3520 -0.2538
 6369TIP3    H140522   1.655   1.180   4.053 -0.0937 -0.9905  0.7812
 6369TIP3    H240523   1.565   1.060   4.074 -0.7550 -0.8383 -1.0517
 6370TIP3   OH240524   4.591   4.266   4.693  0.4201 -0.0709 -0.3932
 6370TIP3    H140525   4.607   4.249   4.786  1.7424  2.6695 -0.0400
 6370TIP3    H240526   4.678   4.282   4.656 -0.2063  0.2082 -1.8120
 6371TIP3   OH240527   6.032   5.654   5.424 -0.6331 -0.0318 -0.0308
 6371TIP3    H140528   5.941   5.661   5.453 -0.1872 -0.7811  1.6250
 6371TIP3    H240529   6.075   5.731   5.462 -0.5122  0.2003 -0.6261
 6372TIP3   OH240530   2.587   1.977  14.110 -0.5869 -0.2888 -0.1603
 6372TIP3    H140531   2.668   1.937  14.078 -0.3631  2.1028 -3.0828
 6372TIP3    H240532   2.616   2.045  14.170 -0.4093  0.2465 -0.8353
 6373TIP3   OH240533   3.845   4.744   0.975 -0.3287  0.0132 -0.0151
 6373TIP3    H140534   3.857   4.724   1.068 -2.7714  3.0558  1.1361
 6373TIP3    H240535   3.894   4.825   0.961  1.1600 -1.1374 -1.8179
 6374TIP3   OH240536   6.203   2.933  16.281  0.5192 -0.6011  0.2917
 6374TIP3    H140537   6.137   2.890  16.226 -0.4796 -0.3412  1.2668
 6374TIP3    H240538   6.277   2.947  16.222 -0.2318 -1.0404 -0.7858
 6375TIP3   OH240539   4.549   2.485  16.662  0.2509 -0.8392  0.5624
 6375TIP3    H140540   4.522   2.513  16.750  1.0238  0.1437  0.5132
 6375TIP3    H240541   4.513   2.397  16.652 -1.7063 -0.1451  1.0222
 6376TIP3   OH240542   4.628   2.964   2.770  0.0877  0.0287 -0.2521
 6376TIP3    H140543   4.635   2.875   2.736 -1.0861 -0.2548  0.2028
 6376TIP3    H240544   4.543   2.995   2.738  0.8078  1.2717 -1.0452
 6377TIP3   OH240545   1.557   4.326  15.607 -0.2213  0.2123  0.2274
 6377TIP3    H140546   1.583   4.237  15.583 -0.4100 -0.2859  1.7550
 6377TIP3    H240547   1.513   4.316  15.691 -0.9729  1.6628  0.0299
 6378TIP3   OH240548   5.491   2.149   3.187  0.1467  0.1187 -0.4970
 6378TIP3    H140549   5.445   2.091   3.247  0.7596  2.8006  2.9385
 6378TIP3    H240550   5.424   2.210   3.156  0.5271  1.4912  1.2133
 6379TIP3   OH240551   4.160   1.290  14.976  0.2419 -0.1473 -0.1242
 6379TIP3    H140552   4.189   1.363  15.031 -0.3689 -0.4999  0.6988
 6379TIP3    H240553   4.123   1.227  15.039 -0.2937 -0.6495 -0.9310
 6380TIP3   OH240554   2.181   1.312   3.961  0.8959  0.3919 -0.4279
 6380TIP3    H140555   2.234   1.244   4.004  1.5167  1.9468  1.4263
 6380TIP3    H240556   2.097   1.271   3.946  1.3861 -0.9243  0.2770
 6381TIP3   OH240557   1.086   3.675  12.654 -0.1248  0.0205  0.6447
 6381TIP3    H140558   1.122   3.608  12.713  0.7620 -0.2649 -0.1926
 6381TIP3    H240559   1.080   3.631  12.569 -0.4198  0.7295  0.2903
 6382TIP3   OH240560   1.748   1.916  12.994 -0.1915 -0.1501  0.3643
 6382TIP3    H140561   1.788   1.981  12.936 -3.3676 -0.1720 -2.1677
 6382TIP3    H240562   1.786   1.832  12.967  1.9763  0.2736  1.8449
 6383TIP3   OH240563   4.850   0.238  11.784  0.5193  0.5990 -0.3670
 6383TIP3    H140564   4.799   0.256  11.863 -0.1873 -0.0288 -0.6682
 6383TIP3    H240565   4.830   0.147  11.763  0.4586  0.8458 -1.4381
 6384TIP3   OH240566   2.526   4.224   2.319  0.8805  0.0825  0.1081
 6384TIP3    H140567   2.565   4.145   2.283  0.6395 -0.7409  1.5727
 6384TIP3    H240568   2.530   4.288   2.248  4.4654 -0.0710  0.0046
 6385TIP3   OH240569   5.405   4.468  14.977  0.9443  0.0147 -0.0353
 6385TIP3    H140570   5.500   4.459  14.974  0.9366  0.1336 -0.7674
 6385TIP3    H240571   5.380   4.494  14.889  0.0946 -1.2611 -0.1976
 6386TIP3   OH240572   3.253   4.511   1.306 -0.4673 -0.3524  0.1678
 6386TIP3    H140573   3.192   4.580   1.282  1.3757  1.3472  0.0952
 6386TIP3    H240574   3.263   4.459   1.227 -1.5681 -0.4701  0.0945
 6387TIP3   OH240575   6.248   0.079  16.069 -0.0561  0.0173 -0.4010
 6387TIP3    H140576   6.203   0.010  16.117 -0.1902 -0.0119 -0.5655
 6387TIP3    H240577   6.229   0.159  16.119 -0.4965  0.0426 -0.5992
 6388TIP3   OH240578   4.800   6.034   3.804  0.0795  0.1458  0.6896
 6388TIP3    H140579   4.724   5.976   3.802 -0.8705  1.3413  0.7325
 6388TIP3    H240580   4.871   5.980   3.839 -0.9299 -0.7949  1.3473
 6389TIP3   OH240581   1.786   2.985   2.212 -0.1144  0.4348  0.1501
 6389TIP3    H140582   1.819   3.063   2.255  0.3593  0.5381 -0.3799
 6389TIP3    H240583   1.691   2.994   2.213 -0.0875  0.6614  0.7384
 6390TIP3   OH240584   6.396   0.844   2.846 -0.2157  0.1762  0.2402
 6390TIP3    H140585   6.475   0.887   2.876  0.1763  1.0461 -1.9111
 6390TIP3    H240586   6.353   0.814   2.927  0.3076  3.1190  1.7259
 6391TIP3   OH240587   6.486   0.712   4.612  0.0989 -0.7083 -0.4015
 6391TIP3    H140588   6.503   0.770   4.538  1.0072 -1.0261 -0.4572
 6391TIP3    H240589   6.565   0.718   4.666 -0.3523 -0.8544  0.2928
 6392TIP3   OH240590   0.264   2.946  16.001  0.1040 -0.0084 -0.0817
 6392TIP3    H140591   0.170   2.939  16.015 -0.1454  0.5623 -1.2986
 6392TIP3    H240592   0.279   2.903  15.917  0.9862 -0.3961  0.2639
 6393TIP3   OH240593   6.297   5.700   1.019  0.1087  0.0558 -0.3957
 6393TIP3    H140594   6.205   5.693   0.995  0.3277 -0.7517 -1.0586
 6393TIP3    H240595   6.322   5.612   1.047  0.1913  0.6814  1.7224
 6394TIP3   OH240596   0.176   2.596  15.362 -0.0008 -0.0514  0.2263
 6394TIP3    H140597   0.228   2.594  15.442  1.5030  1.1185 -0.6591
 6394TIP3    H240598   0.146   2.687  15.355 -0.8986 -0.3621 -0.0653
 6395TIP3   OH240599   2.137   1.813  15.794  0.1740  0.3616  0.1742
 6395TIP3    H140600   2.103   1.814  15.883  1.1242 -1.3591  0.6077
 6395TIP3    H240601   2.215   1.868  15.797 -0.0452  0.6671  0.2902
 6396TIP3   OH240602   4.040   4.957   2.255 -0.0213 -0.4163  0.1823
 6396TIP3    H140603   4.043   4.935   2.348 -0.0596  1.2668  0.6102
 6396TIP3    H240604   3.947   4.974   2.237 -0.3414 -2.7679 -0.7058
 6397TIP3   OH240605   4.118   1.827   5.197  0.0595  0.0197 -0.3997
 6397TIP3    H140606   4.066   1.838   5.117  0.2292 -1.2800 -0.7189
 6397TIP3    H240607   4.130   1.732   5.204  1.9856  0.2436 -0.0834
 6398TIP3   OH240608   6.031   3.176  13.410  0.1125 -0.2486 -0.1168
 6398TIP3    H140609   6.044   3.255  13.462 -2.1874  0.4407 -0.4928
 6398TIP3    H240610   6.043   3.104  13.473  2.0360  0.3440  0.2646
 6399TIP3   OH240611   2.706   6.736   0.298 -0.1970 -0.4241 -0.1071
 6399TIP3    H140612   2.642   6.744   0.227  2.0973 -2.0131 -2.5532
 6399TIP3    H240613   2.679   6.658   0.346 -1.5576  0.4582  0.6424
 6400TIP3   OH240614   5.626   1.605  16.243  0.0652 -0.2616  0.8135
 6400TIP3    H140615   5.614   1.522  16.196 -0.4190  0.2387  0.0273
 6400TIP3    H240616   5.552   1.610  16.303 -0.3628 -0.0313  0.2824
 6401TIP3   OH240617   0.471   5.006   1.087 -0.3970  0.0302  0.1163
 6401TIP3    H140618   0.431   5.026   1.002  0.5571 -0.2222 -0.4061
 6401TIP3    H240619   0.541   5.070   1.097 -1.1900  0.7593  1.2356
 6402TIP3   OH240620   2.572   5.687  13.213  0.4549 -0.3890  0.0960
 6402TIP3    H140621   2.660   5.706  13.246 -0.0525  2.6107 -0.0346
 6402TIP3    H240622   2.544   5.610  13.262  2.3486 -0.1600  1.6563
 6403TIP3   OH240623   0.063   3.792  16.591  0.2310 -0.3209  0.7800
 6403TIP3    H140624   0.055   3.840  16.508 -0.5751 -1.8596 -0.0818
 6403TIP3    H240625  -0.027   3.773  16.617  0.5166 -1.1888  1.1852
 6404TIP3   OH240626   3.886   1.802  14.995  0.0034  0.0626 -0.2569
 6404TIP3    H140627   3.841   1.868  14.941 -1.5426  0.3189  1.2792
 6404TIP3    H240628   3.847   1.719  14.969 -2.4263  0.3891  1.9134
 6405TIP3   OH240629   5.448   5.042   1.087  0.1885  0.9323  0.0143
 6405TIP3    H140630   5.380   4.975   1.092  1.1456  0.0020  1.1981
 6405TIP3    H240631   5.529   4.994   1.102  1.0339  2.1408 -0.6024
 6406TIP3   OH240632   4.562   1.336  16.033 -0.0636  0.2716  0.0026
 6406TIP3    H140633   4.578   1.429  16.019  0.5999  0.4781  1.9208
 6406TIP3    H240634   4.553   1.326  16.127 -1.7561 -1.3801 -0.2640
 6407TIP3   OH240635   3.849   5.718   1.457 -0.3538  0.3322  0.0330
 6407TIP3    H140636   3.758   5.742   1.439 -0.7970 -1.6581 -0.5992
 6407TIP3    H240637   3.901   5.780   1.406 -1.3244  1.6556  0.5949
 6408TIP3   OH240638   6.110   4.550  14.986  0.5882 -0.3748 -0.2254
 6408TIP3    H140639   6.144   4.525  14.900 -0.1734 -0.6439 -0.4594
 6408TIP3    H240640   6.080   4.468  15.025 -0.5735 -0.0546 -0.3872
 6409TIP3   OH240641   4.757   3.055  15.612  0.2237  0.5289 -0.1207
 6409TIP3    H140642   4.849   3.076  15.627  0.2901  0.1677  0.0031
 6409TIP3    H240643   4.714   3.079  15.694  0.1976  0.7499 -0.1989
 6410TIP3   OH240644   4.787   6.296   4.244  0.3181 -0.0094  0.0836
 6410TIP3    H140645   4.701   6.322   4.211 -0.4933 -0.5249  1.6715
 6410TIP3    H240646   4.831   6.378   4.266 -0.7402  0.2065  1.5182
 6411TIP3   OH240647   5.271   2.825  11.519  0.4560  0.1484  0.1910
 6411TIP3    H140648   5.180   2.852  11.526  0.6482  0.7462  0.5450
 6411TIP3    H240649   5.321   2.907  11.527  1.0364 -0.2241  0.4823
 6412TIP3   OH240650   0.079   4.394   5.233 -0.3024  0.0818  0.4448
 6412TIP3    H140651   0.174   4.381   5.229 -0.3290 -0.6082  1.5679
 6412TIP3    H240652   0.068   4.488   5.222  0.8718  0.8707  4.3913
 6413TIP3   OH240653   4.788   2.994   9.947 -0.0160 -0.2144  0.1812
 6413TIP3    H140654   4.827   3.007  10.033 -0.5523  1.0501  0.2542
 6413TIP3    H240655   4.854   3.025   9.885  0.4927 -1.4103  0.1037
 6414TIP3   OH240656   2.429   3.161  15.608 -0.2649  0.2691  0.0322
 6414TIP3    H140657   2.522   3.181  15.601  0.1054 -1.4557 -0.4258
 6414TIP3    H240658   2.411   3.163  15.702  0.6151 -0.8990  0.2450
 6415TIP3   OH240659   0.037   6.619   0.800  0.3459 -0.5609  0.7058
 6415TIP3    H140660   0.018   6.612   0.706 -1.5535 -2.1188  1.1635
 6415TIP3    H240661   0.089   6.542   0.820  2.1063  0.5519  0.7030
 6416TIP3   OH240662   1.357   4.507  12.296  0.1281  0.5238  0.4111
 6416TIP3    H140663   1.432   4.465  12.338 -0.0624  0.8572  1.1063
 6416TIP3    H240664   1.360   4.477  12.205 -0.3273 -1.4419  0.9974
 6417TIP3   OH240665   1.749   5.933  15.245 -0.1230 -0.0020  0.0775
 6417TIP3    H140666   1.670   5.929  15.300 -0.2015  0.9544  0.0546
 6417TIP3    H240667   1.795   6.010  15.277 -0.4748  0.9387 -1.6070
 6418TIP3   OH240668   0.636   3.909   0.129  0.2497 -0.4202 -0.8206
 6418TIP3    H140669   0.615   3.872   0.043 -0.5834  1.7276 -1.6066
 6418TIP3    H240670   0.580   3.986   0.137  1.9620  0.7711  0.6397
 6419TIP3   OH240671   3.847   0.492   5.237 -0.5392 -0.4454  0.0613
 6419TIP3    H140672   3.813   0.541   5.162 -1.0450 -0.6652  0.1477
 6419TIP3    H240673   3.890   0.559   5.290 -2.4092  0.1801  0.8729
 6420TIP3   OH240674   4.822   1.116  17.003 -0.1426 -0.4301  0.0889
 6420TIP3    H140675   4.861   1.171  16.935  1.3728 -0.7526  0.6791
 6420TIP3    H240676   4.817   1.029  16.963 -0.5292 -0.3349 -0.0786
 6421TIP3   OH240677   4.944   1.969  13.492  0.4427  0.0230 -1.0815
 6421TIP3    H140678   4.904   2.050  13.523  1.9548  0.3534  0.1267
 6421TIP3    H240679   4.871   1.909  13.480 -0.4969  0.8914  0.0938
 6422TIP3   OH240680   2.313   1.937   4.860 -0.0665  0.4754  0.0744
 6422TIP3    H140681   2.397   1.945   4.904 -0.9997 -1.5163  2.4826
 6422TIP3    H240682   2.334   1.901   4.774  1.6929  2.6860 -0.4973
 6423TIP3   OH240683   1.417   6.574   4.257  0.9255  0.5406  0.3980
 6423TIP3    H140684   1.475   6.617   4.320  0.2252  1.0453  0.7083
 6423TIP3    H240685   1.476   6.543   4.188  1.7959 -0.5302  1.5453
 6424TIP3   OH240686   0.502   0.734   4.249  0.3213 -0.2549  0.0310
 6424TIP3    H140687   0.587   0.776   4.234 -0.2620  0.7695 -0.5571
 6424TIP3    H240688   0.487   0.744   4.343  0.0578  1.2055 -0.1321
 6425TIP3   OH240689   0.160   6.701  13.165  0.2589  0.3996 -0.0481
 6425TIP3    H140690   0.194   6.628  13.217  1.6207  0.1733 -1.1986
 6425TIP3    H240691   0.065   6.688  13.165  0.3269 -0.2858  1.3307
 6426TIP3   OH240692   5.416   2.993  16.629 -0.0808 -0.4105  1.1902
 6426TIP3    H140693   5.425   3.043  16.710  0.9552  1.2139  0.1341
 6426TIP3    H240694   5.498   3.010  16.581 -0.2998 -2.0198  0.1672
 6427TIP3   OH240695   4.293   5.491  11.143  0.5124 -0.0295 -0.1292
 6427TIP3    H140696   4.207   5.531  11.130 -0.2328 -1.3616  0.4598
 6427TIP3    H240697   4.355   5.557  11.113 -0.7061  1.0226 -0.4305
 6428TIP3   OH240698   0.573   2.476  10.420  0.0388 -0.0599  0.0735
 6428TIP3    H140699   0.632   2.447  10.350  0.6305 -0.5631  0.7591
 6428TIP3    H240700   0.628   2.476  10.498 -0.5537  0.7219  0.4967
 6429TIP3   OH240701   6.478   4.172  10.815 -0.3037  0.0757  0.5849
 6429TIP3    H140702   6.388   4.196  10.793 -0.7430 -2.3571 -0.5676
 6429TIP3    H240703   6.521   4.159  10.731  1.2976  1.6110  1.1138
 6430TIP3   OH240704   3.504   1.081   2.652  0.6256  0.0450 -0.5128
 6430TIP3    H140705   3.587   1.060   2.696  0.0622 -0.8860  0.1397
 6430TIP3    H240706   3.530   1.130   2.574  1.8022 -0.3062 -0.3592
 6431TIP3   OH240707   1.404   1.092  15.557 -0.3457 -0.4716 -0.1702
 6431TIP3    H140708   1.432   1.181  15.539  0.0772 -0.5196  0.2507
 6431TIP3    H240709   1.378   1.092  15.649 -3.2635 -0.0288 -0.8866
 6432TIP3   OH240710   2.637   4.091   5.237  0.0233  0.1034 -0.0705
 6432TIP3    H140711   2.545   4.115   5.245 -0.3020 -1.1231  0.0249
 6432TIP3    H240712   2.640   4.031   5.163  0.7443  0.0909 -0.0401
 6433TIP3   OH240713   5.475   3.444   5.936  0.5414  0.1202  0.2897
 6433TIP3    H140714   5.435   3.362   5.962 -0.5887  0.9687  1.3520
 6433TIP3    H240715   5.556   3.449   5.985  0.1697  0.0448  0.9223
 6434TIP3   OH240716   3.714   6.106  15.147  1.0107  0.5452  0.5162
 6434TIP3    H140717   3.710   6.092  15.053  0.6338 -0.5333  0.6774
 6434TIP3    H240718   3.679   6.194  15.160  1.3582  0.8249 -0.3713
 6435TIP3   OH240719   4.604   6.568   1.816  0.0282  0.3784 -0.0970
 6435TIP3    H140720   4.512   6.546   1.827  0.4379 -1.1877  0.4962
 6435TIP3    H240721   4.617   6.571   1.721 -0.7009  1.0494 -0.1911
 6436TIP3   OH240722   0.074   0.785   3.210 -0.0296  0.1658  0.1147
 6436TIP3    H140723   0.023   0.755   3.285 -1.9150  1.9184 -0.3500
 6436TIP3    H240724   0.106   0.705   3.168 -1.8079 -1.0022  0.8681
 6437TIP3   OH240725   4.752   5.563   0.598  0.0505 -0.1801  0.0089
 6437TIP3    H140726   4.706   5.646   0.604  2.6105  1.2745  0.6800
 6437TIP3    H240727   4.774   5.540   0.688 -0.1420 -1.3388 -0.2121
 6438TIP3   OH240728   2.496   1.569   3.929  0.0677  0.0134 -0.5189
 6438TIP3    H140729   2.449   1.605   3.853 -2.4055  2.2447  1.8295
 6438TIP3    H240730   2.454   1.484   3.945 -3.3519  1.8086  1.3251
 6439TIP3   OH240731   3.047   3.035   3.372  0.3324  0.5299 -0.2634
 6439TIP3    H140732   3.117   3.008   3.432  0.3738  0.9991 -0.0955
 6439TIP3    H240733   2.979   2.969   3.384 -0.1731  1.2750  1.2079
 6440TIP3   OH240734   1.419   3.451   3.402 -0.0455  0.1872 -0.0645
 6440TIP3    H140735   1.392   3.481   3.489  1.6438 -3.6570  2.0035
 6440TIP3    H240736   1.338   3.421   3.360 -0.8724  2.0641  0.0642
 6441TIP3   OH240737   3.959   2.182  14.597 -0.4527 -1.2868 -0.1621
 6441TIP3    H140738   3.925   2.178  14.686 -3.9490  0.3625 -1.2299
 6441TIP3    H240739   3.978   2.274  14.582  1.3175 -1.7094 -0.7858
 6442TIP3   OH240740   3.538   3.416   0.515  0.5348 -0.0951 -0.3306
 6442TIP3    H140741   3.443   3.401   0.510  0.4074  1.1342 -3.1931
 6442TIP3    H240742   3.548   3.481   0.585 -0.2740 -2.5756  2.3359
 6443TIP3   OH240743   1.479   1.368   3.357  0.2476 -0.1639 -0.0815
 6443TIP3    H140744   1.395   1.352   3.315  0.8381  1.6243 -2.1362
 6443TIP3    H240745   1.489   1.296   3.420 -1.7882 -1.6632 -1.3483
 6444TIP3   OH240746   2.318   3.670   3.079 -0.5580  0.1921  0.0656
 6444TIP3    H140747   2.290   3.760   3.098 -1.4314  0.0797 -0.6334
 6444TIP3    H240748   2.356   3.675   2.992 -1.7300 -0.3372 -0.4890
 6445TIP3   OH240749   2.038   0.584  11.841 -0.7771  0.2277  0.1989
 6445TIP3    H140750   2.041   0.534  11.759  0.5510  1.3095 -0.4524
 6445TIP3    H240751   1.997   0.667  11.817  0.5884  0.9705  0.3724
 6446TIP3   OH240752   5.280   2.946   5.576  0.0061  0.0350 -0.4077
 6446TIP3    H140753   5.202   2.999   5.557 -0.7735 -1.5915 -2.0908
 6446TIP3    H240754   5.294   2.896   5.496  2.2152 -0.4601  0.2354
 6447TIP3   OH240755   3.069   1.448  14.328 -0.5402 -0.2581  0.4591
 6447TIP3    H140756   3.131   1.380  14.354  0.6677 -0.0606 -1.6674
 6447TIP3    H240757   3.098   1.527  14.373  1.4375  0.0553 -1.2029
 6448TIP3   OH240758   0.696   4.412  16.016 -0.1749 -0.1451 -0.1509
 6448TIP3    H140759   0.642   4.439  15.941  1.5078  0.3200 -1.2746
 6448TIP3    H240760   0.674   4.320  16.029 -0.2233 -0.3535 -1.5112
 6449TIP3   OH240761   0.224   2.320   1.689  0.2123  0.1534 -0.4333
 6449TIP3    H140762   0.257   2.248   1.743  1.0765  1.2355  0.5461
 6449TIP3    H240763   0.293   2.386   1.694 -1.2077  1.6665 -0.0352
 6450TIP3   OH240764   0.620   4.882  13.965  0.0769  0.4201  0.3508
 6450TIP3    H140765   0.668   4.836  14.033  0.8647 -0.4160 -0.7344
 6450TIP3    H240766   0.631   4.828  13.887 -1.1705  1.1232 -0.3440
 6451TIP3   OH240767   2.320   3.714   3.682  0.0799 -0.2864  0.8845
 6451TIP3    H140768   2.274   3.658   3.619  1.8279 -0.9959  0.1594
 6451TIP3    H240769   2.250   3.759   3.730 -1.4106 -2.6892  1.1364
 6452TIP3   OH240770   0.492   5.404   1.408  0.1092  0.5514  0.1174
 6452TIP3    H140771   0.444   5.487   1.407  0.5651  0.8152 -0.2652
 6452TIP3    H240772   0.425   5.338   1.424 -0.0927  1.0977  1.6936
 6453TIP3   OH240773   1.289   0.640  14.450 -0.2443  0.2877  0.2179
 6453TIP3    H140774   1.372   0.641  14.401  1.1327  1.4409  2.4384
 6453TIP3    H240775   1.290   0.556  14.495 -1.8287 -1.0724 -2.0619
 6454TIP3   OH240776   3.078   0.252  16.212 -0.2559  0.1271  0.2954
 6454TIP3    H140777   3.001   0.197  16.227 -1.1823  1.1635 -0.4407
 6454TIP3    H240778   3.066   0.286  16.123  0.3095  1.4351  0.6899
 6455TIP3   OH240779   2.059   5.577  16.280 -0.5743 -0.1916  0.7775
 6455TIP3    H140780   2.111   5.644  16.236 -0.3366 -1.5446 -1.1191
 6455TIP3    H240781   1.977   5.622  16.303 -0.2634  0.8547 -0.0855
 6456TIP3   OH240782   3.854   6.418  16.014 -0.2062 -0.6686 -0.2296
 6456TIP3    H140783   3.801   6.391  16.089 -1.6022 -0.8028 -1.2350
 6456TIP3    H240784   3.933   6.364  16.020  0.1523  0.0037  1.6600
 6457TIP3   OH240785   0.618   5.488   2.220 -0.1749  0.4263 -0.5801
 6457TIP3    H140786   0.575   5.406   2.244  0.0945  0.8962  1.7374
 6457TIP3    H240787   0.702   5.462   2.184 -0.7116 -0.3498 -1.3143
 6458TIP3   OH240788   2.135   5.582  11.773  0.9334  0.1749 -0.2758
 6458TIP3    H140789   2.050   5.537  11.772  0.6499  0.6359 -2.3134
 6458TIP3    H240790   2.115   5.669  11.806  0.8632 -0.1137  0.4644
 6459TIP3   OH240791   6.508   4.545  11.975 -0.0747  0.0266 -0.2792
 6459TIP3    H140792   6.590   4.577  12.012  0.0569  1.6598 -1.8094
 6459TIP3    H240793   6.455   4.624  11.964 -2.1499 -1.0458  1.2466
 6460TIP3   OH240794   2.859   2.082   5.768  0.0646  0.7605  0.0988
 6460TIP3    H140795   2.837   2.003   5.818 -0.8222  0.3367 -0.9034
 6460TIP3    H240796   2.944   2.109   5.801  1.2317 -1.6353 -0.7041
 6461TIP3   OH240797   5.787   2.722   1.760 -0.0875 -0.0896 -0.1181
 6461TIP3    H140798   5.709   2.689   1.715 -0.3245  0.1516  0.1115
 6461TIP3    H240799   5.785   2.680   1.846 -1.5630  2.1161  1.0012
 6462TIP3   OH240800   4.126   6.071   5.583  0.2645  0.1219  0.3977
 6462TIP3    H140801   4.117   6.045   5.675  2.0247 -0.0623  0.5526
 6462TIP3    H240802   4.067   6.145   5.573 -1.4984 -1.1084  1.1264
 6463TIP3   OH240803   1.681   4.975  11.635 -0.2219 -0.4472 -0.4013
 6463TIP3    H140804   1.660   4.882  11.636  1.0853 -0.7598  0.4056
 6463TIP3    H240805   1.641   5.010  11.714  2.1341 -1.0531  1.1649
 6464TIP3   OH240806   2.426   0.412  11.618 -0.5129  0.5947  0.2907
 6464TIP3    H140807   2.357   0.466  11.580 -0.5050  0.9078  0.7111
 6464TIP3    H240808   2.507   0.452  11.586 -0.5200  0.3577 -0.0280
 6465TIP3   OH240809   1.370   1.389   3.686 -0.1150  0.5355  0.1876
 6465TIP3    H140810   1.325   1.329   3.627 -0.3160 -0.4418  1.2857
 6465TIP3    H240811   1.379   1.339   3.768  0.0155  1.8918  1.0224
 6466TIP3   OH240812   3.517   2.496   5.870  0.2481 -0.3142 -0.1455
 6466TIP3    H140813   3.601   2.460   5.843 -0.5461 -2.0814 -0.3865
 6466TIP3    H240814   3.501   2.568   5.809  1.7095  0.2535  0.1041
 6467TIP3   OH240815   5.552   4.603   1.124 -0.6717 -0.4212 -0.1339
 6467TIP3    H140816   5.621   4.621   1.186 -0.7147  4.1468 -1.0404
 6467TIP3    H240817   5.595   4.602   1.038 -1.4018 -0.0127 -0.5218
 6468TIP3   OH240818   5.372   2.423   0.560  0.6431  0.4268  0.0806
 6468TIP3    H140819   5.341   2.453   0.475  2.6504  0.6113 -0.6267
 6468TIP3    H240820   5.346   2.331   0.563 -0.1919  0.6406 -0.3519
 6469TIP3   OH240821   2.456   0.796  16.539 -0.0510 -0.3244 -0.1890
 6469TIP3    H140822   2.385   0.860  16.529 -0.6738 -1.1339 -1.1685
 6469TIP3    H240823   2.516   0.836  16.601 -1.1994  0.5402  0.4014
 6470TIP3   OH240824   0.733   6.107   2.463 -0.3818  0.1506  0.1424
 6470TIP3    H140825   0.676   6.116   2.539 -0.7916  0.3337 -0.1806
 6470TIP3    H240826   0.809   6.058   2.495 -0.6648  0.0094  0.6074
 6471TIP3   OH240827   1.955   0.268  14.300  0.3462 -0.0893 -0.7830
 6471TIP3    H140828   1.904   0.319  14.363  0.7247 -0.0594 -0.4970
 6471TIP3    H240829   2.041   0.257  14.341  0.6905  0.1676 -1.4107
 6472TIP3   OH240830   3.330   6.509   4.674 -0.2599  0.5217  0.3148
 6472TIP3    H140831   3.377   6.585   4.710  0.1271  1.3304 -1.7245
 6472TIP3    H240832   3.398   6.459   4.628 -1.0993  0.9566 -1.4837
 6473TIP3   OH240833   3.076   4.166  15.775 -0.1154 -0.3045  0.3712
 6473TIP3    H140834   3.097   4.107  15.848  2.5146 -1.5610 -1.2204
 6473TIP3    H240835   3.162   4.196  15.744 -1.1155  0.1220 -2.2069
 6474TIP3   OH240836   1.020   3.608   0.569  0.1231  0.1073 -0.2778
 6474TIP3    H140837   0.949   3.588   0.630  0.4764  0.4151  0.2357
 6474TIP3    H240838   1.060   3.688   0.603  1.0261 -0.3284 -0.2838
 6475TIP3   OH240839   2.708   1.284   2.514 -0.1006  0.8548 -0.1549
 6475TIP3    H140840   2.685   1.258   2.425 -2.2119  0.8297  0.3523
 6475TIP3    H240841   2.652   1.359   2.532 -0.5339  0.1695  1.5393
 6476TIP3   OH240842   0.120   4.468  11.054 -0.1709 -0.1307 -0.9490
 6476TIP3    H140843   0.162   4.541  11.100  0.7022  0.3135 -2.3863
 6476TIP3    H240844   0.192   4.413  11.025 -0.8009 -1.2626 -0.4173
 6477TIP3   OH240845   2.379   5.891   2.938  0.1292 -0.3806  0.2839
 6477TIP3    H140846   2.380   5.874   2.844  2.3113  1.6605 -0.1706
 6477TIP3    H240847   2.291   5.867   2.966 -0.7619 -0.5448 -2.3636
 6478TIP3   OH240848   0.238   6.769  11.143 -0.7082  0.4370  0.2653
 6478TIP3    H140849   0.224   6.675  11.129 -1.5048  0.4349  0.9661
 6478TIP3    H240850   0.284   6.799  11.065 -1.6665 -0.2753 -0.5924
 6479TIP3   OH240851   1.389   0.395   1.793  0.2614  0.3740  0.1594
 6479TIP3    H140852   1.480   0.417   1.813 -0.0032  0.9324  0.7728
 6479TIP3    H240853   1.338   0.469   1.825 -0.3066  0.7180 -1.4419
 6480TIP3   OH240854   3.403   5.211   4.932  0.5954 -0.0725 -0.3130
 6480TIP3    H140855   3.413   5.163   4.850  1.0096  1.9550 -1.5180
 6480TIP3    H240856   3.338   5.279   4.912  0.7086  0.4577  1.0387
 6481TIP3   OH240857   0.501   3.596  13.321  0.4862 -0.1480 -0.0483
 6481TIP3    H140858   0.440   3.532  13.358  0.0036  1.5159  2.2087
 6481TIP3    H240859   0.477   3.600  13.228 -1.4877 -1.0327  0.3663
 6482TIP3   OH240860   3.880   0.766   0.842  0.1832  0.0219 -0.0475
 6482TIP3    H140861   3.967   0.729   0.829 -0.6203 -1.3527 -2.0194
 6482TIP3    H240862   3.843   0.717   0.915 -0.1626 -1.9096 -1.4303
 6483TIP3   OH240863   0.553   5.279  12.403 -0.0159 -0.4421 -1.0081
 6483TIP3    H140864   0.553   5.219  12.328  1.0508 -0.1854 -1.2295
 6483TIP3    H240865   0.580   5.363  12.366 -1.0382  0.0800 -0.6118
 6484TIP3   OH240866   2.214   4.099  13.406 -0.2126  0.2189 -0.2802
 6484TIP3    H140867   2.155   4.023  13.401  0.5775 -0.3518 -1.3856
 6484TIP3    H240868   2.301   4.062  13.390  0.3177  1.2138  0.2519
 6485TIP3   OH240869   2.543   6.683   3.807  0.2783 -0.2843 -0.8836
 6485TIP3    H140870   2.584   6.603   3.840 -2.0753 -1.3196 -0.2760
 6485TIP3    H240871   2.488   6.714   3.879  1.4954  2.2042 -0.9254
 6486TIP3   OH240872   6.190   3.503   5.280  0.4804 -0.4347 -0.0942
 6486TIP3    H140873   6.274   3.548   5.280  0.5599 -0.5297 -1.6463
 6486TIP3    H240874   6.125   3.574   5.276  0.5861 -0.3824 -1.6704
 6487TIP3   OH240875   4.210   4.398   5.061 -0.1639  0.0787  0.2165
 6487TIP3    H140876   4.276   4.456   5.023  0.0935 -0.3795 -0.0431
 6487TIP3    H240877   4.218   4.316   5.012 -1.2722  0.1806 -0.1770
 6488TIP3   OH240878   4.296   0.282  15.415  0.3571  0.1390 -0.3837
 6488TIP3    H140879   4.225   0.218  15.418  0.7743 -0.2928  1.6372
 6488TIP3    H240880   4.288   0.323  15.329 -1.8488 -0.4435 -0.5056
 6489TIP3   OH240881   4.345   5.864   3.546  0.1603 -0.0950 -0.1052
 6489TIP3    H140882   4.373   5.779   3.512  1.9713 -0.2855  1.6855
 6489TIP3    H240883   4.423   5.902   3.586 -1.2557  1.1086  1.7411
 6490TIP3   OH240884   0.679   2.632   5.966 -0.5539  0.6356 -0.1423
 6490TIP3    H140885   0.773   2.650   5.956 -0.3013  0.0290  1.0163
 6490TIP3    H240886   0.656   2.580   5.889 -0.2723  1.9428 -1.1536
 6491TIP3   OH240887   2.639   0.010   4.651 -0.5873 -0.3955  0.2951
 6491TIP3    H140888   2.620   0.043   4.563 -0.5668 -0.9428  0.0801
 6491TIP3    H240889   2.605   0.077   4.710  0.4693  0.5498 -0.1345
 6492TIP3   OH240890   3.275   4.202   4.258 -0.1322 -0.1272  0.2425
 6492TIP3    H140891   3.313   4.171   4.340 -1.0260 -0.2419  0.6171
 6492TIP3    H240892   3.222   4.129   4.226 -1.9486  0.8311  0.9356
 6493TIP3   OH240893   3.250   5.475   4.543 -0.4774  0.1777 -0.6967
 6493TIP3    H140894   3.235   5.386   4.511 -1.1273 -0.0503  0.2047
 6493TIP3    H240895   3.339   5.496   4.514 -1.0312  0.0126 -2.6523
 6494TIP3   OH240896   2.061   0.336  16.239 -0.0334  0.2737  0.4881
 6494TIP3    H140897   2.118   0.393  16.289  0.3719  0.5379 -0.2542
 6494TIP3    H240898   2.033   0.390  16.164  1.3992 -0.8833 -0.9495
 6495TIP3   OH240899   6.519   1.135   4.400  0.3486  0.5639 -0.1878
 6495TIP3    H140900   6.483   1.222   4.386  0.1422  0.3667 -0.8922
 6495TIP3    H240901   6.486   1.109   4.486 -1.0425  0.4678 -0.7248
 6496TIP3   OH240902   1.517   1.357  15.548 -0.4953 -0.2541 -0.0227
 6496TIP3    H140903   1.595   1.359  15.493  0.0497  0.5564  0.7566
 6496TIP3    H240904   1.549   1.331  15.634 -1.0504  0.3030  0.3552
 6497TIP3   OH240905   5.227   4.118  16.664  0.0354  0.8717 -0.8047
 6497TIP3    H140906   5.230   4.051  16.596  1.6431 -0.1495  0.1913
 6497TIP3    H240907   5.316   4.153  16.668  0.5255 -0.3690  1.8915
 6498TIP3   OH240908   3.221   6.013  14.820 -0.8815 -0.0032  0.1446
 6498TIP3    H140909   3.156   5.944  14.831 -0.3691 -0.6064 -0.4870
 6498TIP3    H240910   3.170   6.093  14.810 -1.5773 -0.5717 -1.0931
 6499TIP3   OH240911   3.950   1.097   6.155 -0.0732  0.0965  0.1065
 6499TIP3    H140912   3.923   1.037   6.085  1.0028  0.0717 -0.2991
 6499TIP3    H240913   4.045   1.093   6.156  0.1877  3.2498 -1.2279
 6500TIP3   OH240914   5.323   5.610   1.901 -0.3787  0.5386  0.5287
 6500TIP3    H140915   5.274   5.667   1.960 -2.1012 -0.7860  0.4283
 6500TIP3    H240916   5.291   5.633   1.814 -0.6016 -0.1071  0.4355
 6501TIP3   OH240917   2.576   2.957   0.057  0.3033 -0.5974 -0.3457
 6501TIP3    H140918   2.599   2.992   0.144  2.9296 -1.5854 -0.5542
 6501TIP3    H240919   2.551   2.866   0.074 -2.0415 -0.0185 -0.3536
 6502TIP3   OH240920   2.482   3.468  12.635 -0.1998 -0.0169  0.1615
 6502TIP3    H140921   2.531   3.442  12.557  1.4326 -0.3877  1.2491
 6502TIP3    H240922   2.412   3.403  12.643  0.6092 -0.9563 -0.1195
 6503TIP3   OH240923   0.850   2.058  15.499  0.5007  0.2250  0.2897
 6503TIP3    H140924   0.896   1.975  15.484  0.9592  0.7717 -1.5390
 6503TIP3    H240925   0.773   2.053  15.442  0.5763  1.0845  0.1040
 6504TIP3   OH240926   3.635   0.910  11.739  0.3449  0.0941 -0.1211
 6504TIP3    H140927   3.649   0.941  11.828  0.4165 -1.1450  0.3230
 6504TIP3    H240928   3.540   0.909  11.729  0.3422  0.4206 -0.1270
 6505TIP3   OH240929   6.241   6.029  16.688  0.0525  0.8920 -0.5422
 6505TIP3    H140930   6.252   6.093  16.758 -0.0582 -0.8133  1.1164
 6505TIP3    H240931   6.325   5.984  16.683 -0.0997  0.6697 -1.1835
 6506TIP3   OH240932   5.189   4.878   4.784  0.1765 -0.2602 -0.0451
 6506TIP3    H140933   5.148   4.927   4.855 -1.8611  0.1774 -1.4307
 6506TIP3    H240934   5.246   4.941   4.740 -1.5004  0.6001 -1.0780
 6507TIP3   OH240935   4.542   0.755  12.523  0.3797 -0.5674  0.5101
 6507TIP3    H140936   4.479   0.828  12.518 -0.3307 -1.2198 -0.7871
 6507TIP3    H240937   4.537   0.725  12.614 -1.0704 -0.4765  0.4905
 6508TIP3   OH240938   0.528   0.215  16.905  0.0270 -0.2585  0.6825
 6508TIP3    H140939   0.489   0.293  16.945  0.3254  0.2756 -0.0485
 6508TIP3    H240940   0.620   0.238  16.891 -0.2375 -0.0740 -1.1004
 6509TIP3   OH240941   1.761   1.499  16.981  0.1608 -0.3155  0.0385
 6509TIP3    H140942   1.673   1.481  16.945  0.3437 -0.4086 -0.3700
 6509TIP3    H240943   1.785   1.418  17.027  0.4149 -0.6352 -0.6403
 6510TIP3   OH240944   5.897   6.356  11.447 -0.8330 -0.3643 -0.5422
 6510TIP3    H140945   5.991   6.373  11.454 -1.0008  0.9435 -1.1574
 6510TIP3    H240946   5.885   6.326  11.357 -1.1006  0.2091 -0.7019
 6511TIP3   OH240947   1.022   1.862  12.231 -0.4143  0.0098 -0.2523
 6511TIP3    H140948   0.986   1.897  12.149 -0.7953  0.0075 -0.0854
 6511TIP3    H240949   1.020   1.936  12.292  2.0728  0.7122 -0.9003
 6512TIP3   OH240950   5.189   2.329  14.447  0.0116  0.1067  0.1756
 6512TIP3    H140951   5.262   2.359  14.501  0.7114 -1.5882  0.2227
 6512TIP3    H240952   5.196   2.233  14.448 -0.7717 -0.0133 -1.7912
 6513TIP3   OH240953   4.787   5.850  15.974  0.3917  0.4994  0.5954
 6513TIP3    H140954   4.818   5.764  16.002  1.1355  0.4372 -0.3820
 6513TIP3    H240955   4.750   5.836  15.887 -1.0837  0.8550  1.1242
 6514TIP3   OH240956   4.728   5.065  17.203  0.3518  0.1041 -0.0554
 6514TIP3    H140957   4.813   5.040  17.168 -0.2050  0.7240 -1.9806
 6514TIP3    H240958   4.688   4.983  17.231  0.5103 -0.5755 -1.6974
 6515TIP3   OH240959   6.392   1.990  14.577  0.4584 -0.2709 -0.4315
 6515TIP3    H140960   6.392   1.905  14.621 -2.0950 -0.0562  0.1587
 6515TIP3    H240961   6.325   1.981  14.509  0.6553  1.0464 -0.8268
 6516TIP3   OH240962   3.593   4.279  10.515 -0.0879 -0.0249  0.6928
 6516TIP3    H140963   3.598   4.191  10.554 -0.0910 -1.0278 -1.4511
 6516TIP3    H240964   3.505   4.309  10.539 -1.1040 -1.7125 -0.6587
 6517TIP3   OH240965   5.226   4.941   0.821 -0.5315  0.0771  0.0620
 6517TIP3    H140966   5.232   5.031   0.789  0.7565  0.8568  2.3214
 6517TIP3    H240967   5.214   4.949   0.915  0.5948 -2.1139  0.4538
 6518TIP3   OH240968   6.088   6.461  13.228  0.6236 -0.2416  0.0495
 6518TIP3    H140969   6.107   6.487  13.138 -0.3169 -0.3147 -0.1789
 6518TIP3    H240970   5.995   6.480  13.240  0.1015 -2.5857  0.1726
 6519TIP3   OH240971   2.858   3.493   0.222 -0.3274 -0.3542  0.0744
 6519TIP3    H140972   2.800   3.551   0.173 -0.5329  0.2315  0.9888
 6519TIP3    H240973   2.946   3.528   0.208 -0.4035 -0.0895  0.2623
 6520TIP3   OH240974   4.371   1.580  16.475 -0.1875  0.2627 -0.4751
 6520TIP3    H140975   4.359   1.626  16.558 -0.6094 -1.1807  0.2923
 6520TIP3    H240976   4.449   1.619  16.436  0.9675 -0.1408  1.3666
 6521TIP3   OH240977   0.064   1.199  12.422  0.3221  0.1809  0.1111
 6521TIP3    H140978   0.059   1.218  12.516  0.1716 -4.4985  1.3119
 6521TIP3    H240979  -0.026   1.209  12.392  0.2748  1.2357  0.5466
 6522TIP3   OH240980   6.318   5.674   5.675  0.8702 -0.2267 -0.0258
 6522TIP3    H140981   6.353   5.592   5.642  0.3100 -0.4857  0.0150
 6522TIP3    H240982   6.328   5.668   5.770 -1.1755 -1.2091  0.1728
 6523TIP3   OH240983   6.199   4.856   6.403 -0.1813  0.3297 -0.1936
 6523TIP3    H140984   6.286   4.818   6.415 -0.9356 -1.6137 -0.5067
 6523TIP3    H240985   6.215   4.946   6.376  1.7085  0.8281  2.2174
 6524TIP3   OH240986   0.492   2.892  14.552 -0.2331 -0.5985 -0.1662
 6524TIP3    H140987   0.501   2.950  14.628 -0.2712  0.5327 -1.0015
 6524TIP3    H240988   0.431   2.824  14.581  0.0560 -0.3990  0.9410
 6525TIP3   OH240989   2.909   6.237  17.166  0.1863 -0.0609 -0.6350
 6525TIP3    H140990   2.859   6.168  17.122 -1.2263  0.6611 -0.2420
 6525TIP3    H240991   2.863   6.250  17.250 -0.2975  2.0984 -1.1665
 6526TIP3   OH240992   5.111   6.358  10.357  0.3234  0.0806 -0.0105
 6526TIP3    H140993   5.092   6.451  10.339  1.2078 -0.0896 -2.1723
 6526TIP3    H240994   5.183   6.337  10.297 -0.1334 -2.1195  0.1558
 6527TIP3   OH240995   1.029   3.128  13.231  0.3169 -0.2076 -0.0945
 6527TIP3    H140996   0.951   3.149  13.178 -0.8939 -2.2310  0.7599
 6527TIP3    H240997   1.103   3.148  13.173 -0.9040 -0.5329 -1.8745
 6528TIP3   OH240998   5.198   4.445   1.464  0.3668 -0.1204  0.0175
 6528TIP3    H140999   5.227   4.417   1.377  0.0213 -0.7100  0.0820
 6528TIP3    H241000   5.109   4.410   1.471  0.5000 -0.3283  0.7189
 6529TIP3   OH241001   4.172   0.968   0.701  0.4366 -0.1164  0.2534
 6529TIP3    H141002   4.180   1.051   0.654  0.5547 -0.1614  0.1926
 6529TIP3    H241003   4.149   0.905   0.633  3.2262 -0.6988 -0.2383
 6530TIP3   OH241004   1.688   2.778  16.511  0.4085 -0.4732 -0.5509
 6530TIP3    H141005   1.719   2.818  16.430 -0.5431  0.0290 -0.6852
 6530TIP3    H241006   1.597   2.808  16.520  0.3565 -0.8706  0.4743
 6531TIP3   OH241007   3.488   2.985   1.118  0.4815  0.1137 -0.1950
 6531TIP3    H141008   3.443   2.910   1.158  1.4496  0.1585  1.0763
 6531TIP3    H241009   3.445   3.061   1.156  0.4102  0.1788 -0.4085
 6532TIP3   OH241010   2.372   2.505  12.681  0.0065  0.1952 -0.4512
 6532TIP3    H141011   2.343   2.429  12.631  1.5564 -0.9814  0.3444
 6532TIP3    H241012   2.461   2.522  12.649  0.0346  1.0813  0.0504
 6533TIP3   OH241013   1.567   3.818  16.130  0.2129 -0.0659 -0.3211
 6533TIP3    H141014   1.656   3.789  16.109  0.3690 -0.4217  0.7775
 6533TIP3    H241015   1.579   3.903  16.173  0.1918 -1.0430  1.6763
 6534TIP3   OH241016   4.524   4.507  12.911 -0.2677 -0.1627 -0.1928
 6534TIP3    H141017   4.436   4.487  12.877 -1.0105  0.3962  1.3310
 6534TIP3    H241018   4.537   4.446  12.983  1.3815 -1.4735 -1.5317
 6535TIP3   OH241019   5.313   5.418   0.981  0.0462  0.0183 -0.4259
 6535TIP3    H141020   5.305   5.439   0.888  0.3920  1.4556 -0.1455
 6535TIP3    H241021   5.364   5.490   1.018  0.7092 -1.0039  0.7175
 6536TIP3   OH241022   3.088   0.501  15.636 -0.1867  0.2211 -0.7613
 6536TIP3    H141023   3.167   0.457  15.666  0.4886  1.5542 -0.5249
 6536TIP3    H241024   3.031   0.430  15.607  0.3768 -0.9010  0.7343
 6537TIP3   OH241025   5.722   5.186   5.053  0.4168 -0.2175 -0.1805
 6537TIP3    H141026   5.643   5.133   5.048  1.9853 -3.2399  2.6592
 6537TIP3    H241027   5.692   5.273   5.079 -2.0100 -1.3166  1.0128
 6538TIP3   OH241028   6.302   3.757  16.554 -0.3304  0.3691 -0.2353
 6538TIP3    H141029   6.337   3.833  16.508 -2.4157  2.7484  1.7294
 6538TIP3    H241030   6.260   3.704  16.486  0.3223  1.5128 -1.5698
 6539TIP3   OH241031   4.975   2.131   0.825 -0.0508  0.0979 -0.3721
 6539TIP3    H141032   4.981   2.060   0.888  1.7602 -0.1801 -0.8182
 6539TIP3    H241033   4.962   2.088   0.741  1.2354  0.2557 -0.6693
 6540TIP3   OH241034   3.259   0.410  12.526  0.0031 -0.1397  0.6600
 6540TIP3    H141035   3.298   0.388  12.441  0.0904 -3.5552  1.4611
 6540TIP3    H241036   3.207   0.488  12.509  2.9875  1.5929 -1.6308
 6541TIP3   OH241037   3.686   5.221  13.960  0.1990  0.4369 -0.1617
 6541TIP3    H141038   3.739   5.288  13.917 -0.0478  0.6629 -0.1229
 6541TIP3    H241039   3.595   5.244  13.938  0.1531 -0.5112 -1.0313
 6542TIP3   OH241040   0.178   0.948  11.453  0.3122  0.0592 -0.0132
 6542TIP3    H141041   0.162   0.939  11.359  1.1842 -0.9837 -0.0856
 6542TIP3    H241042   0.180   1.043  11.468 -0.7703  0.2392 -0.8634
 6543TIP3   OH241043   3.131   1.906   6.506 -0.0631  0.1151  0.3161
 6543TIP3    H141044   3.082   1.964   6.448  0.3492  0.3498  0.2005
 6543TIP3    H241045   3.223   1.922   6.485  0.0596 -0.5258  0.3341
 6544TIP3   OH241046   4.495   0.218   1.257  0.0679  0.5796 -0.2382
 6544TIP3    H141047   4.527   0.296   1.302 -1.0876  0.9520 -0.0230
 6544TIP3    H241048   4.552   0.209   1.180  0.2966  1.5562 -0.1949
 6545TIP3   OH241049   6.681   0.134   5.491  0.2739  0.2805 -0.5972
 6545TIP3    H141050   6.657   0.054   5.445 -0.7022 -0.5228  1.2022
 6545TIP3    H241051   6.709   0.104   5.578  1.1495  1.7919 -0.3238
 6546TIP3   OH241052   3.881   2.384  12.342  0.5568 -0.1829  0.2156
 6546TIP3    H141053   3.878   2.301  12.295  0.3535 -0.2844  0.4063
 6546TIP3    H241054   3.974   2.407  12.343  0.7323 -0.8495  0.9148
 6547TIP3   OH241055   5.521   1.881   3.580 -0.1950  0.4456  0.2612
 6547TIP3    H141056   5.516   1.808   3.519  0.8190  1.5456 -1.2118
 6547TIP3    H241057   5.481   1.954   3.533  0.1358  1.2041  1.1306
 6548TIP3   OH241058   0.882   2.441  13.014 -0.9402  0.6376 -0.2100
 6548TIP3    H141059   0.884   2.438  12.918  1.5587 -0.7344 -0.1914
 6548TIP3    H241060   0.811   2.382  13.039 -1.0530  0.3298 -1.2094
 6549TIP3   OH241061   3.561   6.168   1.879  0.0298  0.5200 -0.3377
 6549TIP3    H141062   3.525   6.193   1.794  0.3635  1.4078 -0.2239
 6549TIP3    H241063   3.610   6.087   1.861 -0.6395  0.2114 -0.8077
 6550TIP3   OH241064   1.487   1.205   4.775 -0.5411  0.2914 -0.1841
 6550TIP3    H141065   1.484   1.249   4.690  1.7665  1.4681  0.2598
 6550TIP3    H241066   1.430   1.257   4.831  0.2399  1.3204 -0.3032
 6551TIP3   OH241067   4.176   5.850   1.945 -0.3597 -0.1759 -0.6309
 6551TIP3    H141068   4.249   5.891   1.992 -2.4289 -0.7272  3.4743
 6551TIP3    H241069   4.103   5.911   1.956 -1.2305 -0.8388 -2.3633
 6552TIP3   OH241070   2.042   5.955   2.233 -0.3610  0.4690 -0.2822
 6552TIP3    H141071   2.055   5.897   2.158 -0.2600  0.0159  0.0750
 6552TIP3    H241072   1.999   5.900   2.298  0.7021  0.4858  0.4599
 6553TIP3   OH241073   2.929   4.039   4.208 -0.1016 -0.6011  0.1069
 6553TIP3    H141074   2.878   3.972   4.163 -0.4594  0.2007 -0.7138
 6553TIP3    H241075   3.010   3.995   4.234  0.6201 -0.8370 -2.3199
 6554TIP3   OH241076   2.264   1.341  13.892  0.2399 -0.5428  0.4902
 6554TIP3    H141077   2.323   1.394  13.945  0.9956 -0.1531 -0.7267
 6554TIP3    H241078   2.307   1.256  13.885 -0.2788 -0.8828  1.2043
 6555TIP3   OH241079   3.923   6.130  14.518  0.0103 -0.0724 -0.0743
 6555TIP3    H141080   3.901   6.208  14.468 -0.0628  0.0233  0.1086
 6555TIP3    H241081   3.860   6.064  14.487 -1.9239  0.7192  1.8569
 6556TIP3   OH241082   3.843   2.374  15.095  0.1046  0.2548  0.1628
 6556TIP3    H141083   3.913   2.329  15.142  0.6572  2.5880  1.7642
 6556TIP3    H241084   3.848   2.465  15.125 -2.4139  0.9244 -1.1162
 6557TIP3   OH241085   0.868   5.084   2.806  0.0642 -0.1984  0.0029
 6557TIP3    H141086   0.949   5.093   2.856 -1.4986 -2.0809  3.1480
 6557TIP3    H241087   0.889   5.023   2.735  1.2014 -1.4639  1.3783
 6558TIP3   OH241088   3.090   6.363   4.676  0.5146 -0.4833  0.0491
 6558TIP3    H141089   3.164   6.421   4.658 -1.0112  1.7715  0.7774
 6558TIP3    H241090   3.022   6.390   4.615 -1.5667  1.1781  2.8792
 6559TIP3   OH241091   1.459   3.279  15.806 -0.2143 -0.3068  0.4970
 6559TIP3    H141092   1.369   3.311  15.793  0.0068  0.2004  0.1756
 6559TIP3    H241093   1.466   3.266  15.900 -0.5492 -0.1010  0.5537
 6560TIP3   OH241094   2.062   3.677  12.649 -0.1000  0.3759 -0.2117
 6560TIP3    H141095   2.110   3.653  12.570 -2.3291 -1.5185 -1.1172
 6560TIP3    H241096   2.103   3.625  12.718 -1.8715 -2.7948 -1.3272
 6561TIP3   OH241097   2.347   3.254  16.784 -0.4810 -0.3678 -0.5031
 6561TIP3    H141098   2.422   3.208  16.822 -1.3981 -1.6947 -0.2555
 6561TIP3    H241099   2.386   3.313  16.719  0.7626 -1.1514 -0.5052
 6562TIP3   OH241100   5.677   3.735  11.661 -0.3644 -0.1962  0.3609
 6562TIP3    H141101   5.693   3.773  11.575 -0.5123 -0.1700  0.3443
 6562TIP3    H241102   5.592   3.771  11.687 -0.8472 -1.0883  0.0323
 6563TIP3   OH241103   5.239   2.625  12.776 -0.1067 -0.4597  0.2815
 6563TIP3    H141104   5.228   2.690  12.845  1.0387 -0.3494  0.3848
 6563TIP3    H241105   5.293   2.557  12.816  0.4781 -0.4488 -0.4643
 6564TIP3   OH241106   2.553   3.049   0.334 -0.2245  0.5080  0.5490
 6564TIP3    H141107   2.534   3.029   0.426  1.6416 -0.2376  0.8092
 6564TIP3    H241108   2.550   3.144   0.329  0.3943  0.5954  1.5647
 6565TIP3   OH241109   0.339   5.736  13.652  0.3391 -0.0609  0.6566
 6565TIP3    H141110   0.353   5.715  13.744 -1.5178 -0.2618  0.9392
 6565TIP3    H241111   0.297   5.822  13.653  1.5950  0.5931 -0.1031
 6566TIP3   OH241112   0.451   3.143   0.775 -0.1582  0.0823 -0.5225
 6566TIP3    H141113   0.444   3.139   0.680  1.1368 -1.1981 -0.5895
 6566TIP3    H241114   0.430   3.054   0.804 -0.9321  0.5500  0.4458
 6567TIP3   OH241115   1.259   2.257   4.680  0.6551 -0.1326 -0.3341
 6567TIP3    H141116   1.268   2.205   4.760  0.3102 -1.6680 -1.2469
 6567TIP3    H241117   1.349   2.271   4.650  0.8907  1.7445  1.0604
 6568TIP3   OH241118   4.970   0.793  13.722 -0.1332 -0.4328  0.2734
 6568TIP3    H141119   4.989   0.885  13.701 -0.9141 -0.2292  0.4219
 6568TIP3    H241120   4.986   0.746  13.641 -0.6007 -0.0307 -0.0563
 6569TIP3   OH241121   3.444   2.193   4.462  0.2014  0.9991 -0.0862
 6569TIP3    H141122   3.450   2.196   4.557 -0.6174 -2.1920  0.1644
 6569TIP3    H241123   3.350   2.198   4.443  0.3187  0.9775 -0.7006
 6570TIP3   OH241124   0.140   2.325  12.556 -0.5286 -0.1200 -0.0873
 6570TIP3    H141125   0.108   2.235  12.550 -1.0819 -0.0324  1.1729
 6570TIP3    H241126   0.071   2.372  12.604  0.5347  0.5583  0.8232
 6571TIP3   OH241127   5.997   2.746  10.597  0.0270 -0.0002  0.2862
 6571TIP3    H141128   5.926   2.806  10.576 -0.6169 -0.6756  0.4985
 6571TIP3    H241129   5.977   2.666  10.548  0.0183 -0.5944  1.2363
 6572TIP3   OH241130   6.438   4.409  14.957 -0.5342  0.3582 -0.2594
 6572TIP3    H141131   6.375   4.468  14.915  0.5567  1.7630  0.0080
 6572TIP3    H241132   6.475   4.460  15.029 -0.1373 -0.9434  0.4912
 6573TIP3   OH241133   2.461   2.852  13.192  0.1166  0.3609  0.2104
 6573TIP3    H141134   2.473   2.939  13.153  0.7762  0.4879  0.6661
 6573TIP3    H241135   2.450   2.793  13.117  0.8467  0.6747 -0.1595
 6574TIP3   OH241136   3.110   2.001  14.610 -0.4941 -0.0957  0.1850
 6574TIP3    H141137   3.121   1.921  14.660 -1.3945  0.3568  1.1359
 6574TIP3    H241138   3.044   1.979  14.544  0.3351 -0.5460 -0.5232
 6575TIP3   OH241139   6.707   0.818  16.943 -0.3442  0.2621 -0.2528
 6575TIP3    H141140   6.615   0.843  16.935 -1.0993 -2.4934 -1.4449
 6575TIP3    H241141   6.710   0.763  17.022  0.6280  1.5428  0.6372
 6576TIP3   OH241142   0.611   4.031  16.874  0.1830  0.4518 -0.1491
 6576TIP3    H141143   0.618   3.945  16.832  0.5154  0.4779 -0.1468
 6576TIP3    H241144   0.633   4.093  16.806  0.7138  0.4946  0.0590
 6577TIP3   OH241145   4.509   0.603   6.105  0.1494  0.0262 -0.4684
 6577TIP3    H141146   4.416   0.611   6.126  0.6002  0.9631  1.3570
 6577TIP3    H241147   4.518   0.648   6.020 -0.8136  1.3259  0.0826
 6578TIP3   OH241148   5.616   5.305  10.205  0.0482  0.0109 -0.2918
 6578TIP3    H141149   5.664   5.360  10.267 -0.2024 -0.3410  0.2202
 6578TIP3    H241150   5.677   5.291  10.133  1.5217 -2.0817  1.2319
 6579TIP3   OH241151   1.668   4.223  15.206 -0.3467  0.0481 -0.0916
 6579TIP3    H141152   1.687   4.313  15.181  0.3820 -0.6655 -2.4172
 6579TIP3    H241153   1.745   4.173  15.176 -2.0759 -1.7488 -1.8695
 6580TIP3   OH241154   2.047   1.366   6.113  0.2501 -0.0733 -0.3067
 6580TIP3    H141155   2.119   1.429   6.120  0.9523 -1.0090  1.6552
 6580TIP3    H241156   2.085   1.291   6.067 -0.0616  0.1981 -1.0210
 6581TIP3   OH241157   2.936   6.637   4.933 -0.0516 -0.0084  0.8673
 6581TIP3    H141158   2.970   6.683   4.856  0.4445 -2.0402 -0.2096
 6581TIP3    H241159   3.012   6.625   4.989  0.4907 -1.8889 -0.1588
 6582TIP3   OH241160   6.171   1.816   1.742 -0.7566  0.1656 -0.4695
 6582TIP3    H141161   6.117   1.841   1.666 -0.3133  1.0074 -0.5228
 6582TIP3    H241162   6.146   1.725   1.760 -1.4797  0.2239 -1.0998
 6583TIP3   OH241163   0.517   3.532   3.513  0.4695  0.0269  0.2265
 6583TIP3    H141164   0.566   3.612   3.533  1.0393 -0.2383 -0.0874
 6583TIP3    H241165   0.430   3.548   3.549  0.5645  0.8032  0.1337
 6584TIP3   OH241166   4.157   4.333   1.754  0.4917 -0.6944  0.4929
 6584TIP3    H141167   4.204   4.375   1.826  0.8355  1.0920 -0.7106
 6584TIP3    H241168   4.065   4.349   1.774  0.5565 -0.7111  0.8163
 6585TIP3   OH241169   5.736   6.409   1.437  0.1536  0.5037 -0.5878
 6585TIP3    H141170   5.783   6.328   1.457  0.9319  0.9115 -0.7436
 6585TIP3    H241171   5.682   6.387   1.361  0.1139  0.0447 -0.4302
 6586TIP3   OH241172   0.588   4.616   3.115  0.0164  0.4119 -0.1697
 6586TIP3    H141173   0.562   4.688   3.173 -1.5951 -1.4835  1.6055
 6586TIP3    H241174   0.669   4.646   3.075 -1.0056  3.5402 -0.1432
 6587TIP3   OH241175   1.946   2.891  15.952  0.5677  0.5141 -0.4023
 6587TIP3    H141176   1.861   2.847  15.951  0.7213  0.1054  1.1792
 6587TIP3    H241177   2.000   2.836  16.009  1.6933  1.1234 -0.8635
 6588TIP3   OH241178   3.283   1.586  16.054 -0.1976 -0.5424  0.1618
 6588TIP3    H141179   3.206   1.560  16.003 -1.4853  1.1122  1.1524
 6588TIP3    H241180   3.314   1.665  16.010 -1.8722  1.4488  2.3270
 6589TIP3   OH241181   3.498   5.052   3.916  0.1141 -0.5425  0.3869
 6589TIP3    H141182   3.428   5.072   3.854 -0.2024  1.1170  1.2333
 6589TIP3    H241183   3.454   5.005   3.986 -0.0947  0.1454  0.7255
 6590TIP3   OH241184   5.346   1.350  17.127  0.0568 -0.2018 -0.1948
 6590TIP3    H141185   5.254   1.331  17.146  0.0834  0.4565  0.6382
 6590TIP3    H241186   5.393   1.323  17.206  0.8019 -2.0014 -1.1774
 6591TIP3   OH241187   3.744   5.888   3.834  0.3178  0.3466  0.9089
 6591TIP3    H141188   3.675   5.831   3.800 -0.9603  2.0734  0.4956
 6591TIP3    H241189   3.703   5.936   3.906  0.8063  2.0045  0.1315
 6592TIP3   OH241190   5.904   0.843   2.279 -0.2751  0.1980  0.0492
 6592TIP3    H141191   5.834   0.781   2.256  0.6191 -0.8362  0.0539
 6592TIP3    H241192   5.979   0.815   2.226  0.0100  1.5931 -0.3105
 6593TIP3   OH241193   4.938   2.831   4.057  0.2363  0.1454 -0.1556
 6593TIP3    H141194   4.914   2.923   4.072  0.6903  0.1468  0.6259
 6593TIP3    H241195   4.880   2.802   3.987  0.8683  1.3556 -1.2154
 6594TIP3   OH241196   4.412   6.573  11.925  0.6408 -0.3025  0.6785
 6594TIP3    H141197   4.360   6.605  11.998  0.4162  0.8082  0.0581
 6594TIP3    H241198   4.349   6.563  11.853  0.6132 -2.6204  0.9443
 6595TIP3   OH241199   0.382   4.816  12.164 -0.5542 -0.4111 -0.0907
 6595TIP3    H141200   0.302   4.764  12.165  0.4021 -1.9990  2.4976
 6595TIP3    H241201   0.443   4.767  12.110 -0.5102 -0.5438  0.0803
 6596TIP3   OH241202   3.356   2.744   2.180  0.3266  0.1574 -0.4213
 6596TIP3    H141203   3.392   2.816   2.232 -0.3698  0.4067 -0.2645
 6596TIP3    H241204   3.285   2.785   2.130  0.7084 -0.1724 -1.2440
 6597TIP3   OH241205   0.153   1.042  12.067 -0.2026 -0.4584  0.4716
 6597TIP3    H141206   0.109   0.959  12.050  0.0836 -0.2694 -1.3493
 6597TIP3    H241207   0.246   1.024  12.053 -0.0287 -0.0495  1.0260
 6598TIP3   OH241208   1.393   5.789   1.698 -0.1033  0.0181  0.5895
 6598TIP3    H141209   1.321   5.835   1.653  0.3460 -0.0219 -0.1885
 6598TIP3    H241210   1.416   5.718   1.639 -0.6267 -1.0829  1.6812
 6599TIP3   OH241211   4.314   6.608  13.009 -0.0191  0.4512  0.1135
 6599TIP3    H141212   4.265   6.684  12.979 -1.1823 -0.6561 -0.9153
 6599TIP3    H241213   4.268   6.581  13.089 -0.2059  0.2752 -0.0509
 6600TIP3   OH241214   3.158   2.381  15.125  0.1896  0.1560  0.2328
 6600TIP3    H141215   3.201   2.320  15.185  1.6224  1.5676  0.7063
 6600TIP3    H241216   3.165   2.466  15.167 -0.8341  0.8348 -0.8910
 6601TIP3   OH241217   0.543   5.377   4.615  0.6791  0.0693  0.1930
 6601TIP3    H141218   0.575   5.366   4.525  0.9238  1.2688  0.1183
 6601TIP3    H241219   0.507   5.466   4.617 -0.9458 -0.5639  0.8044
 6602TIP3   OH241220   5.603   4.410  15.590  0.2090  0.1544 -0.8515
 6602TIP3    H141221   5.564   4.342  15.645  0.7957  0.7644  0.3429
 6602TIP3    H241222   5.685   4.433  15.633  0.6367  0.7267 -1.9267
 6603TIP3   OH241223   3.133   6.399  10.626  0.5012  0.7968  0.5680
 6603TIP3    H141224   3.121   6.476  10.682  0.6488  0.3313  1.2576
 6603TIP3    H241225   3.227   6.398  10.606  0.1817  1.9649 -1.1910
 6604TIP3   OH241226   0.731   0.689   3.545  0.3495 -0.2375  0.3399
 6604TIP3    H141227   0.640   0.717   3.552  0.7137  1.0169  0.3133
 6604TIP3    H241228   0.761   0.727   3.463  1.5288  1.3075  1.4257
 6605TIP3   OH241229   6.714   2.607   3.710  0.0082  0.0160 -1.0504
 6605TIP3    H141230   6.641   2.641   3.761  1.4336 -0.5554  1.5255
 6605TIP3    H241231   6.792   2.624   3.763  1.3073 -3.1184 -1.6981
 6606TIP3   OH241232   4.785   5.404   0.391  0.4645  0.4464  0.2717
 6606TIP3    H141233   4.772   5.470   0.459 -0.7929  0.3911  0.1158
 6606TIP3    H241234   4.701   5.401   0.345  1.2724  0.4544 -1.2584
 6607TIP3   OH241235   6.779   1.007  17.198  0.3474  0.9600 -0.8357
 6607TIP3    H141236   6.710   0.950  17.231  1.6040 -0.6463 -0.8804
 6607TIP3    H241237   6.741   1.048  17.120 -0.5012 -0.0186 -0.9600
 6608TIP3   OH241238   0.246   6.475   0.508 -0.1816 -0.5028 -0.6080
 6608TIP3    H141239   0.335   6.481   0.544 -0.3994 -1.5164  0.1446
 6608TIP3    H241240   0.257   6.434   0.423  0.2564  1.1755 -1.4097
 6609TIP3   OH241241   1.356   4.787  11.789 -0.3068 -0.1023  0.2999
 6609TIP3    H141242   1.448   4.799  11.814  0.1978 -0.7085 -1.1950
 6609TIP3    H241243   1.332   4.703  11.826 -0.2487  0.0341  0.6527
 6610TIP3   OH241244   5.268   0.293   1.540  0.2314  0.3265  0.5910
 6610TIP3    H141245   5.247   0.264   1.629 -0.7064 -3.3346 -0.6603
 6610TIP3    H241246   5.362   0.280   1.531  0.3052  0.5800  0.9736
 6611TIP3   OH241247   2.602   3.870  14.863  0.0854  0.3548  0.3417
 6611TIP3    H141248   2.578   3.789  14.907 -0.0109 -1.5828 -2.9189
 6611TIP3    H241249   2.519   3.907  14.833  0.2990  0.0600 -0.6546
 6612TIP3   OH241250   0.107   1.435   4.956 -0.4107 -0.4253 -0.2919
 6612TIP3    H141251   0.148   1.351   4.934  1.1991  0.1364  0.4160
 6612TIP3    H241252   0.152   1.464   5.035 -1.2172  0.9234 -0.2882
 6613TIP3   OH241253   3.996   2.526   0.314  0.0664  0.0982  0.0187
 6613TIP3    H141254   4.073   2.470   0.308  0.8423  1.2771 -2.3896
 6613TIP3    H241255   3.950   2.514   0.231 -2.1611 -0.2509  1.2239
 6614TIP3   OH241256   2.564   2.029   1.390 -0.0276  0.4322 -0.0883
 6614TIP3    H141257   2.485   2.079   1.410  0.3059  0.3164  1.6862
 6614TIP3    H241258   2.538   1.967   1.322 -1.1169  1.2752 -0.4414
 6615TIP3   OH241259   6.725   2.793   1.002 -0.2023 -0.1113 -0.6690
 6615TIP3    H141260   6.726   2.870   1.058 -1.3362 -0.4719 -0.1053
 6615TIP3    H241261   6.639   2.753   1.019  0.1049 -1.1329 -1.4344
 6616TIP3   OH241262   0.152   0.523   4.293 -0.3412 -0.4066  0.3782
 6616TIP3    H141263   0.212   0.517   4.219 -1.1629 -0.4929 -0.3033
 6616TIP3    H241264   0.071   0.558   4.255 -0.7384 -0.3468  1.2564
 6617TIP3   OH241265   3.976   1.475   4.842 -0.8928 -0.8931  0.4958
 6617TIP3    H141266   4.014   1.519   4.765 -0.2791  0.0864  1.3299
 6617TIP3    H241267   3.890   1.444   4.812 -1.8491  1.8264  0.1133
 6618TIP3   OH241268   4.583   5.702   4.088  0.4955 -0.2273 -0.2855
 6618TIP3    H141269   4.548   5.707   4.177 -0.8835 -0.7156 -0.7761
 6618TIP3    H241270   4.560   5.614   4.058  2.8817 -0.8869 -0.3717
 6619TIP3   OH241271   1.943   4.835   5.608  0.1139 -0.0957 -0.1166
 6619TIP3    H141272   1.948   4.918   5.559 -1.4684 -0.1935 -0.5093
 6619TIP3    H241273   1.975   4.769   5.546 -1.5262 -0.1652 -0.9590
 6620TIP3   OH241274   5.840   5.791   3.063 -0.6681 -0.2579 -0.3720
 6620TIP3    H141275   5.881   5.854   3.123  1.6014 -1.1064 -0.9164
 6620TIP3    H241276   5.861   5.824   2.976 -1.1057 -0.7705 -0.6770
 6621TIP3   OH241277   1.463   1.998   5.346  0.5095 -0.4949  0.5610
 6621TIP3    H141278   1.414   1.949   5.412  0.8419 -0.4449  0.8398
 6621TIP3    H241279   1.498   2.074   5.392  1.6525 -1.0206  0.5814
 6622TIP3   OH241280   3.598   3.290   1.217  0.5020  0.0586  0.0317
 6622TIP3    H141281   3.621   3.230   1.289 -1.2462  3.2141  3.6024
 6622TIP3    H241282   3.503   3.286   1.212  0.5074  0.9701 -1.1747
 6623TIP3   OH241283   0.080   0.595   4.772  0.3245 -0.2835 -0.1884
 6623TIP3    H141284   0.000   0.601   4.823  0.5974 -0.5941  0.2775
 6623TIP3    H241285   0.061   0.645   4.692 -0.3927 -0.5084 -0.1648
 6624TIP3   OH241286   0.775   0.298   4.034  0.6900  0.0475 -0.4792
 6624TIP3    H141287   0.764   0.242   3.957  0.7581  0.5309 -0.8456
 6624TIP3    H241288   0.834   0.248   4.091  0.1753 -0.5738 -0.4791
 6625TIP3   OH241289   0.431   0.758   5.746  0.0416  0.1423  0.2770
 6625TIP3    H141290   0.514   0.731   5.785 -0.0385  0.6477  0.8048
 6625TIP3    H241291   0.374   0.779   5.820  0.0279  1.5401 -0.0900
 6626TIP3   OH241292   6.259   6.245  12.797 -0.1342  0.4388 -0.5476
 6626TIP3    H141293   6.197   6.197  12.852 -1.2171 -0.0509 -2.1233
 6626TIP3    H241294   6.297   6.311  12.855  0.3410 -1.3689  1.3105
 6627TIP3   OH241295   3.662   0.445  15.769 -0.0357 -0.6383  0.6701
 6627TIP3    H141296   3.571   0.429  15.744  0.6381 -1.6404 -1.3537
 6627TIP3    H241297   3.700   0.491  15.694  1.5901 -1.9001  0.6738
 6628TIP3   OH241298   2.290   1.844   4.542  0.3461  0.7758  0.2042
 6628TIP3    H141299   2.263   1.930   4.509  0.0626  0.3898 -0.6002
 6628TIP3    H241300   2.210   1.805   4.575  0.6112  1.1184  1.3034
 6629TIP3   OH241301   2.327   5.317   3.422  0.2661  0.1204 -0.4943
 6629TIP3    H141302   2.345   5.407   3.450 -0.0661 -0.1387  0.5885
 6629TIP3    H241303   2.254   5.326   3.360  0.5958  0.6442 -0.8174
 6630TIP3   OH241304   4.284   4.252  14.676 -0.1250 -0.3210 -0.7393
 6630TIP3    H141305   4.278   4.248  14.771  0.8948  1.0536 -0.5807
 6630TIP3    H241306   4.200   4.219  14.645 -0.8958  0.2212  0.6690
 6631TIP3   OH241307   0.569   2.540  14.802 -0.7036 -0.2568  0.1293
 6631TIP3    H141308   0.499   2.482  14.771 -1.1050  0.1934  0.1745
 6631TIP3    H241309   0.527   2.595  14.868 -0.3167  0.0465  0.1259
 6632TIP3   OH241310   5.273   5.247  16.116 -0.3024 -0.1155 -0.0118
 6632TIP3    H141311   5.315   5.180  16.061 -1.8623 -0.8266 -0.3915
 6632TIP3    H241312   5.183   5.217  16.126 -1.0150  1.8594 -0.0441
 6633TIP3   OH241313   3.589   3.617  15.404  0.3565  0.3865  0.1669
 6633TIP3    H141314   3.620   3.566  15.329 -0.3632 -0.7285  0.6035
 6633TIP3    H241315   3.667   3.658  15.439  0.6187  1.5396 -1.6123
 6634TIP3   OH241316   5.999   0.642   4.807 -0.3668  0.4928 -0.0329
 6634TIP3    H141317   5.929   0.576   4.809  0.1674 -0.1282 -0.9138
 6634TIP3    H241318   6.078   0.593   4.828  0.2123  0.5837 -1.8278
 6635TIP3   OH241319   6.034   3.946  16.716  0.4571 -0.4238  0.2267
 6635TIP3    H141320   5.949   3.935  16.673  0.0190  1.3377  0.5811
 6635TIP3    H241321   6.082   3.866  16.694 -0.9331 -1.0297 -0.7783
 6636TIP3   OH241322   5.177   2.091   5.909 -0.4194 -0.0059  0.2849
 6636TIP3    H141323   5.261   2.075   5.952  0.4582 -0.0704 -1.3562
 6636TIP3    H241324   5.176   2.029   5.836 -2.0225 -0.1717  0.4218
 6637TIP3   OH241325   6.573   6.468  14.685  0.5540  0.6829  0.0693
 6637TIP3    H141326   6.489   6.478  14.639 -0.1504 -0.3119  1.0622
 6637TIP3    H241327   6.561   6.517  14.766  1.3367  1.4056 -0.2374
 6638TIP3   OH241328   6.598   2.214  11.200 -0.6057  0.4219  0.0150
 6638TIP3    H141329   6.541   2.250  11.268 -0.2358  0.2931  0.3968
 6638TIP3    H241330   6.594   2.120  11.214  1.2757  0.4871  1.3547
 6639TIP3   OH241331   5.126   4.412  16.460 -0.4172 -0.2275 -0.1894
 6639TIP3    H141332   5.063   4.399  16.388  1.9626 -0.0605 -2.4371
 6639TIP3    H241333   5.155   4.502  16.450  1.6673 -0.8985 -0.5316
 6640TIP3   OH241334   3.189   5.901  16.942 -0.4919 -0.0775 -0.7340
 6640TIP3    H141335   3.260   5.895  17.006 -0.3239  1.2198 -0.7709
 6640TIP3    H241336   3.169   5.810  16.920  3.3084 -0.5749 -3.0697
 6641TIP3   OH241337   0.033   3.697   3.786  0.8571 -0.1558 -0.7619
 6641TIP3    H141338  -0.058   3.672   3.801  1.0280  0.6325  2.0512
 6641TIP3    H241339   0.084   3.620   3.812  1.0610  0.2509  0.0793
 6642TIP3   OH241340   6.402   5.534  12.120 -0.6051 -0.3110  0.0420
 6642TIP3    H141341   6.320   5.528  12.070 -0.9045  0.3936  0.4321
 6642TIP3    H241342   6.387   5.477  12.195 -0.1099 -1.4640 -0.7122
 6643TIP3   OH241343   2.442   2.925   4.585 -0.0727 -0.1041  0.3308
 6643TIP3    H141344   2.372   2.991   4.589  0.0719  0.0223  0.7840
 6643TIP3    H241345   2.522   2.976   4.576 -0.0245 -0.2454 -0.0504
 6644TIP3   OH241346   3.351   5.117  15.147  0.3064  0.0354 -0.0757
 6644TIP3    H141347   3.350   5.206  15.114  0.1318  0.7244  1.6766
 6644TIP3    H241348   3.427   5.113  15.205  0.3623 -0.9735 -0.1988
 6645TIP3   OH241349   6.096   0.161   3.895 -0.4123  0.1463  0.4748
 6645TIP3    H141350   6.164   0.132   3.955  0.4714  0.5827 -0.2815
 6645TIP3    H241351   6.015   0.150   3.944  0.2134 -0.1859  1.4807
 6646TIP3   OH241352   1.922   5.028   1.769 -0.2644  0.3483  0.1311
 6646TIP3    H141353   1.942   5.083   1.694 -2.6960  0.5696 -0.4367
 6646TIP3    H241354   1.887   5.089   1.834 -0.1272 -0.1225  0.6507
 6647TIP3   OH241355   3.283   1.547   0.255  0.2239 -0.3051 -0.0763
 6647TIP3    H141356   3.378   1.559   0.263  0.0497  1.3989 -0.1341
 6647TIP3    H241357   3.258   1.605   0.183 -1.1926  1.2814  1.5850
 6648TIP3   OH241358   6.237   1.930  12.949  0.0007  0.3690  0.0297
 6648TIP3    H141359   6.198   2.013  12.978 -1.0687 -0.2451  0.3943
 6648TIP3    H241360   6.194   1.864  13.002 -0.6852 -0.6315 -1.7073
 6649TIP3   OH241361   5.303   5.382  16.933  0.4787  0.1327 -0.5562
 6649TIP3    H141362   5.345   5.318  16.875  0.2386  1.6202 -2.4739
 6649TIP3    H241363   5.350   5.374  17.015  0.6238 -2.3046 -0.8090
 6650TIP3   OH241364   6.243   5.135  15.875 -0.0960  0.0889 -0.4900
 6650TIP3    H141365   6.158   5.179  15.878  0.4684  1.3408 -1.6698
 6650TIP3    H241366   6.306   5.203  15.898  0.5928 -0.9116  0.7212
 6651TIP3   OH241367   1.217   1.720  16.847 -0.2022  0.6708 -0.2349
 6651TIP3    H141368   1.235   1.764  16.764 -0.8955 -2.2065 -2.0294
 6651TIP3    H241369   1.144   1.769  16.885  0.5406  2.4230 -0.9650
 6652TIP3   OH241370   0.360   4.524  13.036  0.0823 -0.0131 -0.1875
 6652TIP3    H141371   0.435   4.488  13.083 -0.9308 -1.3825  0.4452
 6652TIP3    H241372   0.365   4.619  13.051  1.2749 -0.1553  0.4168
 6653TIP3   OH241373   0.582   1.604   5.333 -0.2006 -0.6270 -0.3309
 6653TIP3    H141374   0.561   1.511   5.326 -0.7066 -0.5473  0.0868
 6653TIP3    H241375   0.522   1.647   5.271  0.6675 -0.6589 -1.2158
 6654TIP3   OH241376   3.976   5.003  15.598 -0.0941 -0.0446  0.1431
 6654TIP3    H141377   3.977   5.034  15.689  0.6673  0.6259 -0.0746
 6654TIP3    H241378   4.024   4.921  15.601  0.5804  0.3388  0.2467
 6655TIP3   OH241379   3.037   4.058  16.400 -0.3511  0.0627  0.3260
 6655TIP3    H141380   3.090   4.002  16.456 -0.6371  1.2085  1.7821
 6655TIP3    H241381   2.947   4.028  16.413 -0.5637  1.1569  1.5076
 6656TIP3   OH241382   5.835   5.913  11.286  0.2780  0.0183 -0.1873
 6656TIP3    H141383   5.899   5.870  11.343 -1.5788 -0.4893  1.6494
 6656TIP3    H241384   5.758   5.857  11.291 -0.3807  0.6469 -2.2630
 6657TIP3   OH241385   4.886   5.163  14.837 -0.0552  0.1340  0.4402
 6657TIP3    H141386   4.979   5.156  14.855 -0.3750 -2.6498  1.4462
 6657TIP3    H241387   4.850   5.208  14.914  0.2500 -0.4425  0.9300
 6658TIP3   OH241388   6.597   5.142   2.999  0.1822 -0.3754  0.4153
 6658TIP3    H141389   6.588   5.061   2.950 -0.4510 -0.9701  1.4622
 6658TIP3    H241390   6.592   5.211   2.933  1.5355 -1.1958 -0.5852
 6659TIP3   OH241391   1.599   0.685   1.445  0.1748  0.0659  0.7890
 6659TIP3    H141392   1.556   0.739   1.378  1.5763  0.0163 -0.2183
 6659TIP3    H241393   1.690   0.678   1.414  0.1313 -2.6128  1.0448
 6660TIP3   OH241394   3.561   6.363   0.650 -0.0360 -0.4885 -0.3597
 6660TIP3    H141395   3.542   6.389   0.559  1.1674 -1.9668 -1.0851
 6660TIP3    H241396   3.550   6.267   0.649  2.3132 -0.8186  0.4219
 6661TIP3   OH241397   3.682   4.094  15.272 -0.6429  0.0556 -0.4454
 6661TIP3    H141398   3.686   4.144  15.190  1.5323 -1.9131 -1.6710
 6661TIP3    H241399   3.640   4.011  15.247  0.8214 -0.9154  0.1576
 6662TIP3   OH241400   1.851   5.690  17.016  0.1874 -0.2587  0.9241
 6662TIP3    H141401   1.904   5.755  17.062 -1.1709  0.2237  1.8558
 6662TIP3    H241402   1.851   5.720  16.925 -0.6730  1.2666  1.3892
 6663TIP3   OH241403   3.190   4.333   5.785  0.2497 -0.0314  0.2871
 6663TIP3    H141404   3.177   4.381   5.866 -0.2245  0.6463 -0.1766
 6663TIP3    H241405   3.265   4.375   5.744  0.1461 -0.0090  0.1184
 6664TIP3   OH241406   4.254   0.455  13.965  0.2486  0.3580 -0.0089
 6664TIP3    H141407   4.329   0.408  13.927 -0.0902  0.8618 -1.3651
 6664TIP3    H241408   4.222   0.510  13.894 -1.5331  0.0224  0.4774
 6665TIP3   OH241409   6.182   4.882  11.563 -0.3494 -0.0440  0.2964
 6665TIP3    H141410   6.248   4.831  11.516 -1.2218  0.2185 -1.2891
 6665TIP3    H241411   6.146   4.820  11.627  0.0804 -0.7779 -0.1551
 6666TIP3   OH241412   1.255   4.194   4.647  0.4567 -0.0776  0.0566
 6666TIP3    H141413   1.239   4.274   4.698 -0.3223  0.4372 -0.9487
 6666TIP3    H241414   1.205   4.126   4.692 -3.4429  1.1310 -1.9923
 6667TIP3   OH241415   3.263   5.281   2.597  0.4486  0.0299 -0.0785
 6667TIP3    H141416   3.326   5.339   2.555 -1.5390  2.4320  0.0219
 6667TIP3    H241417   3.263   5.202   2.544  0.9702  1.3738 -2.2064
 6668TIP3   OH241418   4.788   3.767  14.935 -0.0298 -0.1535  0.0265
 6668TIP3    H141419   4.803   3.675  14.913  0.6682  0.4176 -2.1728
 6668TIP3    H241420   4.875   3.805  14.936 -0.2493  0.3555  1.7142
 6669TIP3   OH241421   5.456   6.432  12.236  0.0389 -0.0775  0.5316
 6669TIP3    H141422   5.385   6.489  12.265  0.4341  0.5263  0.3353
 6669TIP3    H241423   5.467   6.368  12.306 -0.5574 -0.0519  0.6544
 6670TIP3   OH241424   1.367   4.099   3.633 -0.2678 -0.4497 -0.1639
 6670TIP3    H141425   1.417   4.135   3.706 -0.1617 -0.1834 -0.3701
 6670TIP3    H241426   1.278   4.090   3.667  0.4193 -3.5934  1.1776
 6671TIP3   OH241427   3.351   4.160  16.533 -0.1332 -0.4571  0.0595
 6671TIP3    H141428   3.369   4.120  16.448 -3.4248  1.6465 -1.8667
 6671TIP3    H241429   3.288   4.101  16.575 -1.0161  0.0887 -0.4702
 6672TIP3   OH241430   3.718   4.748   3.477 -0.4403 -0.0774  0.7697
 6672TIP3    H141431   3.777   4.792   3.537  0.4272  0.1493 -0.2317
 6672TIP3    H241432   3.655   4.815   3.451  1.2182  0.8237 -1.2043
 6673TIP3   OH241433   0.423   2.409   3.629 -0.2040  0.1320  0.0024
 6673TIP3    H141434   0.367   2.483   3.607  0.3611  0.6720  0.3718
 6673TIP3    H241435   0.478   2.396   3.551  1.8057  2.0516  1.0086
 6674TIP3   OH241436   1.406   2.416  17.163 -0.3605 -0.0896  0.0604
 6674TIP3    H141437   1.488   2.401  17.116 -0.5920  0.8902 -0.6909
 6674TIP3    H241438   1.426   2.486  17.225 -1.0917  1.5669 -1.4898
 6675TIP3   OH241439   1.289   3.179   1.625 -0.4321 -0.3593  0.8513
 6675TIP3    H141440   1.294   3.146   1.715 -1.8164  1.5874  1.7120
 6675TIP3    H241441   1.196   3.198   1.611 -0.1978 -0.3046 -0.8913
 6676TIP3   OH241442   6.767   1.190  12.873  0.6444  0.1911  0.2298
 6676TIP3    H141443   6.730   1.166  12.958  1.4311 -0.9797  0.2764
 6676TIP3    H241444   6.816   1.271  12.890 -0.7289  0.9979  0.4586
 6677TIP3   OH241445   1.109   4.928   0.211 -0.0513 -0.1427 -0.1568
 6677TIP3    H141446   1.094   4.885   0.296 -1.7583 -0.0512 -0.3746
 6677TIP3    H241447   1.052   5.004   0.213 -0.9469 -0.7259 -1.7960
 6678TIP3   OH241448   5.743   5.232  12.183 -0.9800 -0.0291 -0.0151
 6678TIP3    H141449   5.677   5.188  12.236  0.9235 -1.1481  1.6052
 6678TIP3    H241450   5.791   5.287  12.246 -0.6547  1.1113 -1.2252
 6679TIP3   OH241451   4.456   2.706   3.234 -0.3808  0.6533  0.0471
 6679TIP3    H141452   4.400   2.782   3.218 -2.2185 -1.0470 -2.4337
 6679TIP3    H241453   4.394   2.634   3.253  1.1979 -0.5378  0.9302
 6680TIP3   OH241454   5.227   6.618  13.502  0.3867  0.1066  0.1539
 6680TIP3    H141455   5.179   6.540  13.531  0.6285  0.2816  1.0801
 6680TIP3    H241456   5.313   6.585  13.475  0.6379  0.0773  0.9375
 6681TIP3   OH241457   5.115   0.019   3.061  0.2102 -0.0414  0.1464
 6681TIP3    H141458   5.181  -0.017   3.002  0.2034 -1.2185  0.8278
 6681TIP3    H241459   5.116   0.113   3.044  1.2557 -0.1860 -0.6608
 6682TIP3   OH241460   5.035   5.210  12.298 -0.4860 -0.2531  0.3700
 6682TIP3    H141461   5.016   5.130  12.249 -0.2711  0.2982 -0.6375
 6682TIP3    H241462   4.951   5.233  12.339  0.0498 -2.5486  3.1420
 6683TIP3   OH241463   2.370   3.120  15.340 -0.0063  0.8574 -0.4674
 6683TIP3    H141464   2.372   3.141  15.434  0.6024 -0.9068 -0.0458
 6683TIP3    H241465   2.462   3.122  15.314  0.0287 -0.6283 -0.5277
 6684TIP3   OH241466   0.504   2.896  17.048 -0.6041 -0.4746  0.1714
 6684TIP3    H141467   0.458   2.958  17.105 -1.0049  0.7075 -1.3842
 6684TIP3    H241468   0.582   2.871  17.098 -1.1058  0.2549  1.3648
 6685TIP3   OH241469   3.315   6.557   3.219 -0.4114  0.2082  0.6750
 6685TIP3    H141470   3.319   6.467   3.253 -1.2716  0.7707  2.3858
 6685TIP3    H241471   3.362   6.609   3.284 -1.0498  1.1644  0.3954
 6686TIP3   OH241472   2.996   4.831  11.471  0.6559  0.2361  0.4546
 6686TIP3    H141473   2.950   4.906  11.433  0.7862 -1.1497 -2.7017
 6686TIP3    H241474   3.086   4.862  11.484  0.9448  0.4085 -1.7001
 6687TIP3   OH241475   0.690   0.334   5.702 -0.2213  0.7140 -0.2164
 6687TIP3    H141476   0.617   0.381   5.663 -0.2476  0.6747 -0.2147
 6687TIP3    H241477   0.752   0.322   5.630  0.4292  2.0104  0.1052
 6688TIP3   OH241478   2.392   4.157   1.762  0.1044 -0.1195  0.1649
 6688TIP3    H141479   2.356   4.156   1.851 -0.2970  2.0065  0.0739
 6688TIP3    H241480   2.316   4.162   1.705  0.4120  0.5564 -0.1961
 6689TIP3   OH241481   1.155   1.036   1.299 -0.4276 -0.0241 -0.1139
 6689TIP3    H141482   1.123   1.097   1.365 -0.2318  1.4216 -1.3145
 6689TIP3    H241483   1.102   0.957   1.312 -0.0886  0.0261  2.0482
 6690TIP3   OH241484   5.161   3.096  12.963 -0.0446 -0.1067 -0.3906
 6690TIP3    H141485   5.101   3.085  12.889 -0.7795  0.8766  0.0414
 6690TIP3    H241486   5.248   3.101  12.924 -0.2481 -1.2927 -1.0486
 6691TIP3   OH241487   3.552   6.746  13.921  0.1382  0.4621 -0.1007
 6691TIP3    H141488   3.626   6.739  13.860  0.4206  0.8029  0.1924
 6691TIP3    H241489   3.586   6.710  14.003 -0.4076 -0.4818 -0.2741
 6692TIP3   OH241490   5.097   5.734  13.675  0.1508  0.0966  0.0824
 6692TIP3    H141491   5.180   5.716  13.719  0.7490 -1.0068 -1.3972
 6692TIP3    H241492   5.072   5.821  13.707  1.2369 -0.0658  1.4915
 6693TIP3   OH241493   6.076   0.579   6.352  0.4428 -0.4191  0.5209
 6693TIP3    H141494   6.162   0.619   6.367 -0.1254  0.4710  1.5759
 6693TIP3    H241495   6.069   0.510   6.418  0.5472 -0.8236  0.1114
 6694TIP3   OH241496   1.111   5.974   4.504  0.1651 -0.3259  0.2369
 6694TIP3    H141497   1.193   5.943   4.542 -0.3059  0.0457  1.6550
 6694TIP3    H241498   1.129   6.064   4.478  0.5751 -0.6754 -0.7031
 6695TIP3   OH241499   5.933   4.347   3.727  0.3012  0.5797 -0.3287
 6695TIP3    H141500   5.970   4.262   3.749 -1.6290  0.1683  1.6428
 6695TIP3    H241501   5.995   4.410   3.765  0.1935 -0.0347  0.9175
 6696TIP3   OH241502   1.721   5.281  11.333 -0.1879 -0.2059  0.3532
 6696TIP3    H141503   1.665   5.355  11.311  0.7122  0.5383  0.4986
 6696TIP3    H241504   1.683   5.207  11.285  0.3700  0.8686 -1.8737
 6697TIP3   OH241505   2.818   0.659  17.081 -0.2794 -0.3358  0.2873
 6697TIP3    H141506   2.896   0.715  17.085  0.1956 -1.0206  0.8966
 6697TIP3    H241507   2.831   0.606  17.002 -0.8388  0.5389 -0.4172
 6698TIP3   OH241508   1.312   5.506  15.234 -0.2450  0.4578 -0.4613
 6698TIP3    H141509   1.370   5.564  15.284  0.5994 -0.4971 -0.2819
 6698TIP3    H241510   1.355   5.420  15.239 -1.3249 -0.1290 -0.9308
 6699TIP3   OH241511   4.359   3.121  14.003  1.0370 -0.3866 -0.7705
 6699TIP3    H141512   4.449   3.108  14.032  0.3790  1.3560  2.6068
 6699TIP3    H241513   4.367   3.166  13.919  3.4254  1.4448  0.3231
 6700TIP3   OH241514   3.226   4.161  15.093  0.8173 -0.5926  0.1649
 6700TIP3    H141515   3.294   4.211  15.139 -0.7283  0.1299  1.7913
 6700TIP3    H241516   3.191   4.222  15.029  0.3108 -0.2460  0.7588
 6701TIP3   OH241517   6.309   4.054  15.811  0.0208  0.2269 -0.6431
 6701TIP3    H141518   6.391   4.097  15.788  0.9531  0.3167  2.4053
 6701TIP3    H241519   6.336   3.976  15.861 -1.7348 -1.5587 -2.2716
 6702TIP3   OH241520   6.724   5.624  11.475 -0.5338 -0.0085 -0.4064
 6702TIP3    H141521   6.717   5.543  11.425 -1.9129  0.2765 -0.7302
 6702TIP3    H241522   6.679   5.605  11.558 -2.4905  0.9042 -1.1850
 6703TIP3   OH241523   6.722   3.368  10.701 -0.4531  0.7307 -0.7965
 6703TIP3    H141524   6.709   3.397  10.791 -0.0819 -1.8198  0.1809
 6703TIP3    H241525   6.656   3.415  10.651 -1.8461  0.9549  1.1130
 6704TIP3   OH241526   4.739   6.628   6.031  0.2569  0.1111  0.0381
 6704TIP3    H141527   4.647   6.654   6.042  0.3194 -0.1287  1.2258
 6704TIP3    H241528   4.785   6.671   6.103  0.6784 -1.6864  0.8967
 6705TIP3   OH241529   6.399   2.147  13.437 -0.9577  0.6520 -0.2903
 6705TIP3    H141530   6.471   2.103  13.484 -0.5126  0.2845 -1.2940
 6705TIP3    H241531   6.443   2.208  13.378 -1.5203  1.1703 -0.1777
 6706TIP3   OH241532   1.335   3.425  11.485 -0.6742  0.1788 -0.6703
 6706TIP3    H141533   1.347   3.491  11.553  0.4614  0.5581 -1.2102
 6706TIP3    H241534   1.328   3.475  11.404  0.6326 -0.3711 -1.1401
 6707TIP3   OH241535   6.109   1.469   4.792  0.3777 -0.0906 -0.0883
 6707TIP3    H141536   6.175   1.453   4.859 -0.8008 -2.3139  0.6441
 6707TIP3    H241537   6.151   1.442   4.710  1.5604  1.9311 -0.2103
 6708TIP3   OH241538   3.002   4.178   4.841 -0.1577 -0.6314  0.2224
 6708TIP3    H141539   3.017   4.268   4.867  3.4161 -0.9631 -0.1735
 6708TIP3    H241540   2.939   4.183   4.769  1.4832  1.8073 -1.1684
 6709TIP3   OH241541   5.883   5.960   5.658  0.2265 -0.5920 -0.1775
 6709TIP3    H141542   5.947   5.904   5.613 -0.3988 -0.8448 -0.7681
 6709TIP3    H241543   5.806   5.960   5.601  0.8559  2.4849 -1.2492
 6710TIP3   OH241544   6.603   1.574   0.857 -0.1937  0.4478 -0.2371
 6710TIP3    H141545   6.589   1.543   0.947  0.5402  2.1905  0.5167
 6710TIP3    H241546   6.548   1.652   0.849 -0.1433  0.3959 -1.2679
 6711TIP3   OH241547   4.669   0.387   1.644 -0.2806 -0.1275  0.6699
 6711TIP3    H141548   4.666   0.373   1.738 -2.0147 -0.7205  0.5594
 6711TIP3    H241549   4.580   0.370   1.614  0.8645 -3.2536 -1.5050
 6712TIP3   OH241550   2.393   1.421  16.539  0.4183  0.2290  0.5847
 6712TIP3    H141551   2.349   1.426  16.454  0.2217 -0.2123  0.6577
 6712TIP3    H241552   2.460   1.489  16.535  0.8582 -0.2366 -0.1822
 6713TIP3   OH241553   6.760   6.052  16.091 -0.2554 -0.4536  0.0920
 6713TIP3    H141554   6.766   6.042  15.997  0.9639 -0.2319  0.1352
 6713TIP3    H241555   6.720   6.138  16.104 -1.7465 -1.0674 -0.2076
 6714TIP3   OH241556   4.916   2.300  12.282 -0.0189 -0.5223  0.3904
 6714TIP3    H141557   4.935   2.219  12.330  0.1729 -0.1457  0.9613
 6714TIP3    H241558   5.002   2.336  12.261 -0.0980 -0.0149  0.9185
 6715TIP3   OH241559   1.583   0.077  11.676  0.2259 -0.3417  0.4880
 6715TIP3    H141560   1.555   0.131  11.750 -1.5742 -0.1440 -0.2661
 6715TIP3    H241561   1.538   0.115  11.601  1.8034 -0.6997 -0.6846
 6716TIP3   OH241562   2.864   3.332  15.637 -0.0725  0.4454 -0.0478
 6716TIP3    H141563   2.841   3.249  15.595 -0.2194  0.8533 -0.7898
 6716TIP3    H241564   2.813   3.398  15.590  0.8703  1.0860 -0.1984
 6717TIP3   OH241565   3.366   0.941  16.228 -0.0820  0.3963 -0.3676
 6717TIP3    H141566   3.329   0.900  16.306 -0.7060  0.9996 -0.3324
 6717TIP3    H241567   3.455   0.966  16.254  0.4152 -1.1427 -0.4835
 6718TIP3   OH241568   2.647   0.249   4.085 -0.1222  0.0436 -0.5259
 6718TIP3    H141569   2.567   0.302   4.085 -0.2387 -0.0782  1.3345
 6718TIP3    H241570   2.638   0.192   4.008 -1.7991  0.0502 -0.3748
 6719TIP3   OH241571   1.281   3.842   2.083 -0.4516  0.4057 -0.1026
 6719TIP3    H141572   1.214   3.907   2.102  1.1653  1.9750  0.4920
 6719TIP3    H241573   1.359   3.874   2.128  1.2258 -0.3581 -2.2930
 6720TIP3   OH241574   3.604   5.785   6.465  0.0690  0.1326  0.1885
 6720TIP3    H141575   3.565   5.871   6.480 -0.1255  0.3442 -1.3305
 6720TIP3    H241576   3.632   5.756   6.551 -0.8635  1.2327  0.8967
 6721TIP3   OH241577   2.258   4.870  16.502 -0.0571  0.1115 -0.3088
 6721TIP3    H141578   2.332   4.826  16.460  0.1373 -0.1815  0.3299
 6721TIP3    H241579   2.286   4.884  16.593 -1.6033 -2.0514  0.5929
 6722TIP3   OH241580   5.114   2.855   6.060  0.9326  0.1533 -0.0903
 6722TIP3    H141581   5.210   2.857   6.055  1.1480 -3.9026 -0.7702
 6722TIP3    H241582   5.095   2.812   6.143  0.0286 -3.3334 -1.8949
 6723TIP3   OH241583   3.354   6.691   0.035 -0.3959  0.2481  0.0571
 6723TIP3    H141584   3.302   6.772   0.030 -2.1236 -0.8225  0.1986
 6723TIP3    H241585   3.442   6.722   0.058 -1.3069  1.9887  1.5250
 6724TIP3   OH241586   0.531   4.050   3.750 -0.4523  0.3983 -0.7388
 6724TIP3    H141587   0.502   4.098   3.672 -1.7596 -1.0903 -1.2245
 6724TIP3    H241588   0.532   3.958   3.723  0.5227 -0.0188  0.5935
 6725TIP3   OH241589   6.737   6.224   4.723 -0.2461  0.3692 -0.1082
 6725TIP3    H141590   6.804   6.268   4.775 -1.5245  1.8803  0.3254
 6725TIP3    H241591   6.765   6.132   4.721  1.3353  0.7908  0.8178
 6726TIP3   OH241592   4.091   0.857  11.990 -0.2960 -0.8488  0.0958
 6726TIP3    H141593   4.060   0.891  11.906  1.1480 -1.7739 -0.8564
 6726TIP3    H241594   4.032   0.895  12.055 -0.0731  1.7734 -1.0922
 6727TIP3   OH241595   6.602   6.306  16.340 -0.5949 -1.1241  0.5967
 6727TIP3    H141596   6.663   6.262  16.399  1.8118  1.5406  0.3588
 6727TIP3    H241597   6.648   6.308  16.256 -0.4442  1.8400  0.6495
 6728TIP3   OH241598   1.147   5.665  13.946  0.2888 -0.5878 -0.0066
 6728TIP3    H141599   1.073   5.710  13.905  0.8538 -0.4470 -0.9022
 6728TIP3    H241600   1.119   5.650  14.037  0.3734  2.3403  0.6095
 6729TIP3   OH241601   6.277   5.950   1.115 -0.6559 -0.7908  0.6238
 6729TIP3    H141602   6.339   5.880   1.095 -0.4645  0.1284 -2.6562
 6729TIP3    H241603   6.191   5.910   1.103 -0.5505 -0.3870 -2.2373
 6730TIP3   OH241604   5.096   1.165  16.254  0.2930  0.2965  0.0866
 6730TIP3    H141605   5.065   1.144  16.166 -0.5866  0.7760  0.2701
 6730TIP3    H241606   5.136   1.084  16.285  0.9928  0.2420 -0.8981
 6731TIP3   OH241607   6.115   4.254   0.260  1.0166  0.4164 -0.1617
 6731TIP3    H141608   6.162   4.208   0.191 -0.2392 -0.0868 -0.7206
 6731TIP3    H241609   6.098   4.188   0.327 -1.6783 -0.3119 -1.4149
 6732TIP3   OH241610   4.561   3.098  16.719  0.0176  0.5676  0.2342
 6732TIP3    H141611   4.487   3.061  16.767  0.1879  1.6697  1.3974
 6732TIP3    H241612   4.634   3.039  16.737 -0.1905  0.3660  0.4199
 6733TIP3   OH241613   4.141   0.922   5.175 -0.0015 -0.1802  0.2158
 6733TIP3    H141614   4.195   0.999   5.189 -0.5521  0.2305  0.1400
 6733TIP3    H241615   4.131   0.916   5.080 -0.7324  0.2178  0.2554
 6734TIP3   OH241616   1.833   6.220  11.141  0.5820 -0.1816  0.1635
 6734TIP3    H141617   1.921   6.189  11.117  0.3716 -1.6771  1.1655
 6734TIP3    H241618   1.774   6.171  11.084  0.3255 -0.3592  0.5754
 6735TIP3   OH241619   0.769   6.616  15.749  0.3474  0.0905 -0.0473
 6735TIP3    H141620   0.825   6.671  15.695  0.1367  1.1366  0.7640
 6735TIP3    H241621   0.695   6.672  15.772 -0.7765 -1.0844 -0.6368
 6736TIP3   OH241622   3.145   1.408   0.679 -0.1901 -0.3343  0.4193
 6736TIP3    H141623   3.129   1.498   0.708 -0.2457  0.2071 -1.2254
 6736TIP3    H241624   3.240   1.396   0.688 -0.1713 -0.0824  0.5482
 6737TIP3   OH241625   6.668   0.924  11.696 -0.3237  0.2817 -0.5458
 6737TIP3    H141626   6.717   1.004  11.712  0.9899 -0.8344  1.3599
 6737TIP3    H241627   6.730   0.854  11.712 -2.0021 -1.1633  0.0077
 6738TIP3   OH241628   2.071   2.333  15.492 -0.9371 -0.3502  0.1772
 6738TIP3    H141629   2.037   2.360  15.578 -1.0456  0.7067 -0.1773
 6738TIP3    H241630   2.056   2.239  15.489  0.0967 -0.6004  1.7780
 6739TIP3   OH241631   2.311   6.459  11.833  0.2989  0.2649  0.4550
 6739TIP3    H141632   2.261   6.453  11.752  0.3806  2.7327  0.1208
 6739TIP3    H241633   2.347   6.372  11.847 -2.1229 -0.9656 -0.5718
 6740TIP3   OH241634   1.413   5.353  12.087  0.1571  0.2958  0.6827
 6740TIP3    H141635   1.372   5.275  12.126 -1.7039  1.1099  0.4704
 6740TIP3    H241636   1.495   5.321  12.050 -0.4547 -1.5187  0.7858
 6741TIP3   OH241637   5.892   1.381   6.095 -0.1934  0.0557  0.6269
 6741TIP3    H141638   5.962   1.438   6.064 -1.0809  0.0957 -1.4794
 6741TIP3    H241639   5.935   1.297   6.111  0.3545  0.0256 -0.8188
 6742TIP3   OH241640   1.963   1.969   4.490 -0.0677 -0.5557  0.2912
 6742TIP3    H141641   1.981   1.993   4.581  1.1139  0.9704 -0.2848
 6742TIP3    H241642   1.946   2.053   4.446 -2.6530 -1.3944 -0.5390
 6743TIP3   OH241643   6.000   0.348   6.538  0.3022 -0.6858 -0.5213
 6743TIP3    H141644   5.922   0.320   6.585 -0.2288 -0.1895 -1.1009
 6743TIP3    H241645   6.013   0.281   6.471  0.2376 -0.6512 -0.5689
 6744TIP3   OH241646   0.605   4.802  11.514 -0.1064  0.3360 -0.5822
 6744TIP3    H141647   0.684   4.766  11.554  0.0862  0.5433 -0.7739
 6744TIP3    H241648   0.585   4.880  11.566 -0.2739  0.1995 -0.4389
 6745TIP3   OH241649   4.794   5.228   2.747  0.1729 -0.5961  0.2881
 6745TIP3    H141650   4.880   5.218   2.788 -0.2305 -2.1010  0.8212
 6745TIP3    H241651   4.742   5.273   2.813 -0.1595 -2.0268  1.0436
 6746TIP3   OH241652   0.228   3.542   3.480  0.5127  0.3951  0.7046
 6746TIP3    H141653   0.156   3.600   3.454  0.3266  1.1587  2.7317
 6746TIP3    H241654   0.185   3.464   3.514  0.7407 -0.3833 -0.7194
 6747TIP3   OH241655   5.456   0.175  13.427 -0.1152  1.2459  0.0683
 6747TIP3    H141656   5.520   0.230  13.473 -0.4943  1.3028  0.5339
 6747TIP3    H241657   5.371   0.213  13.450 -0.3225  1.0836 -0.4348
 6748TIP3   OH241658   4.014   0.719   5.306  0.3645  0.2122  0.6314
 6748TIP3    H141659   4.033   0.802   5.262 -0.9933 -0.4777 -1.4263
 6748TIP3    H241660   4.094   0.668   5.298 -0.4458 -0.7480 -3.2599
 6749TIP3   OH241661   1.396   1.219   1.603 -0.1788  0.4328  0.2390
 6749TIP3    H141662   1.477   1.264   1.628  0.4831 -0.6993  0.1709
 6749TIP3    H241663   1.402   1.133   1.644 -1.0459  0.0926 -0.3171
 6750TIP3   OH241664   6.107   1.703  13.086 -0.2670 -0.2155  0.7612
 6750TIP3    H141665   6.018   1.678  13.110  0.4135 -1.4378  2.1513
 6750TIP3    H241666   6.160   1.627  13.109  1.0454  0.2078 -0.7370
 6751TIP3   OH241667   0.758   0.957   3.700  0.1089 -0.6212  0.0385
 6751TIP3    H141668   0.777   1.034   3.755  0.3357 -0.1726 -0.6582
 6751TIP3    H241669   0.817   0.889   3.734 -1.1229 -0.9620  1.6289
 6752TIP3   OH241670   1.638   6.119  16.822  0.2458 -0.4270 -0.0381
 6752TIP3    H141671   1.699   6.191  16.804 -1.0685  0.5261 -0.8145
 6752TIP3    H241672   1.591   6.107  16.740  1.0617 -2.8329 -0.2379
 6753TIP3   OH241673   4.048   5.348   5.829  0.0111 -0.3899 -0.6687
 6753TIP3    H141674   3.962   5.376   5.863  1.1802  2.4611  0.2979
 6753TIP3    H241675   4.085   5.296   5.900 -0.0100  0.3943 -0.0611
 6754TIP3   OH241676   4.127   5.845   5.418  0.3289 -0.1007 -0.1234
 6754TIP3    H141677   4.120   5.776   5.484  0.6447 -0.1290 -0.1192
 6754TIP3    H241678   4.133   5.926   5.468  0.6016 -0.1250 -0.1153
 6755TIP3   OH241679   3.579   3.956  11.449 -0.4391 -0.3678  0.5378
 6755TIP3    H141680   3.601   4.030  11.391  0.7604 -0.3805  0.9611
 6755TIP3    H241681   3.631   3.883  11.416 -2.4888 -1.4163 -0.6229
 6756TIP3   OH241682   5.572   3.469  11.716 -0.0854 -0.6829  0.6059
 6756TIP3    H141683   5.596   3.562  11.717 -1.3961 -0.1882 -2.2484
 6756TIP3    H241684   5.653   3.424  11.692  0.3226 -0.1651  0.9740
 6757TIP3   OH241685   3.852   1.324   2.556 -0.1669 -0.4808  0.2793
 6757TIP3    H141686   3.806   1.322   2.640  0.5010  1.8282  0.7787
 6757TIP3    H241687   3.800   1.384   2.502  0.5154 -0.3500 -0.2503
 6758TIP3   OH241688   0.950   2.199   3.896  0.2853  0.2546  0.2742
 6758TIP3    H141689   1.010   2.157   3.834  0.1300  0.4371 -0.0019
 6758TIP3    H241690   0.865   2.198   3.852  0.0407 -0.1759  0.7453
 6759TIP3   OH241691   5.537   3.448  12.562  0.4068  0.0412  0.2210
 6759TIP3    H141692   5.570   3.535  12.585 -0.3127  0.5584 -0.6255
 6759TIP3    H241693   5.614   3.402  12.529  1.2891 -0.4599  2.7888
 6760TIP3   OH241694   2.610   3.651  12.035 -0.3702 -0.1972  0.5623
 6760TIP3    H141695   2.684   3.712  12.041 -1.3527  1.3592 -1.7103
 6760TIP3    H241696   2.646   3.574  11.992 -0.1887  0.9260 -1.4275
 6761TIP3   OH241697   6.074   5.545  13.140 -0.0522  0.4509  0.2851
 6761TIP3    H141698   6.043   5.617  13.195  0.6256  1.4120 -0.5494
 6761TIP3    H241699   6.017   5.471  13.163 -0.2592  1.0240  1.7159
 6762TIP3   OH241700   3.884   1.721   0.038 -0.1836 -0.3915 -0.3476
 6762TIP3    H141701   3.836   1.743  -0.041  0.2721  1.2580 -0.2135
 6762TIP3    H241702   3.973   1.751   0.021 -0.0722 -0.0314  0.7626
 6763TIP3   OH241703   2.116   0.934  14.589 -0.1675 -0.0726  0.0570
 6763TIP3    H141704   2.043   0.932  14.527 -0.0188  0.7735 -0.1574
 6763TIP3    H241705   2.163   1.015  14.568  1.2029 -0.9090 -0.2233
 6764TIP3   OH241706   0.249   6.315  17.106 -0.8029 -0.4262 -0.6833
 6764TIP3    H141707   0.243   6.285  17.015 -1.5698 -0.8889 -0.4879
 6764TIP3    H241708   0.170   6.369  17.118 -0.0248  0.7576 -0.6866
 6765TIP3   OH241709   4.862   6.255   1.620  0.5233 -0.2036 -0.1139
 6765TIP3    H141710   4.862   6.283   1.712 -0.8763  0.1262 -0.2042
 6765TIP3    H241711   4.936   6.303   1.581  0.6175  0.2808  0.6473
 6766TIP3   OH241712   1.076   3.188   0.123  0.0386 -0.0601 -0.5306
 6766TIP3    H141713   1.100   3.113   0.068 -0.4494 -0.4327 -0.2553
 6766TIP3    H241714   1.142   3.254   0.105  1.0547 -0.9212 -0.0413
 6767TIP3   OH241715   3.565   3.904  13.549  0.1290 -0.1686  0.3767
 6767TIP3    H141716   3.576   3.990  13.510  2.8405 -1.4075 -2.0132
 6767TIP3    H241717   3.589   3.915  13.641  0.8840  1.5519 -0.0009
 6768TIP3   OH241718   6.504   5.558   2.017 -0.3211 -0.2186 -0.4281
 6768TIP3    H141719   6.475   5.482   1.966 -2.0046 -0.1675  0.3873
 6768TIP3    H241720   6.581   5.527   2.065 -1.5879 -1.7599  0.6857
 6769TIP3   OH241721   5.844   6.526  15.572 -0.7166  0.3041  0.5462
 6769TIP3    H141722   5.898   6.601  15.594  0.1296 -0.4156  0.9652
 6769TIP3    H241723   5.793   6.509  15.651 -0.1588 -0.1884  0.8043
 6770TIP3   OH241724   3.059   5.247   0.404 -0.0360  0.1019  0.5115
 6770TIP3    H141725   3.145   5.259   0.444  0.2561 -1.2555  0.3570
 6770TIP3    H241726   3.077   5.195   0.325 -0.5301  2.9513 -1.6518
 6771TIP3   OH241727   2.592   2.067   3.024 -0.8833 -0.0446  0.2950
 6771TIP3    H141728   2.558   2.086   3.112 -2.5390 -0.3141 -0.2580
 6771TIP3    H241729   2.514   2.059   2.969  0.1476  2.0892 -1.6408
 6772TIP3   OH241730   5.401   3.345  16.001 -0.2264  0.2092  0.5772
 6772TIP3    H141731   5.407   3.440  15.985  1.4508  0.6201  3.0750
 6772TIP3    H241732   5.357   3.337  16.085 -1.0158 -1.3120  0.0592
 6773TIP3   OH241733   1.217   5.806  14.188 -0.8312 -0.0077 -0.6850
 6773TIP3    H141734   1.156   5.749  14.236 -1.7503  0.7760 -0.8767
 6773TIP3    H241735   1.161   5.877  14.155  0.3495  1.2252 -0.0963
 6774TIP3   OH241736   0.624   3.486   4.585  0.4958  0.1404 -0.7029
 6774TIP3    H141737   0.720   3.485   4.585  0.6198  2.2717  0.9962
 6774TIP3    H241738   0.602   3.555   4.648 -2.1905 -1.7889  0.6688
 6775TIP3   OH241739   4.089   4.498   2.514  0.3097  0.1123 -0.1546
 6775TIP3    H141740   4.132   4.572   2.472  0.2204  1.1419  1.4880
 6775TIP3    H241741   4.160   4.450   2.557  0.0196  1.1974  1.6337
 6776TIP3   OH241742   2.930   6.021   6.362  0.2006  0.8213 -0.0275
 6776TIP3    H141743   2.867   6.060   6.300  1.5078  1.7666 -0.8003
 6776TIP3    H241744   2.886   6.025   6.447 -0.7222  1.5976 -0.5280
 6777TIP3   OH241745   4.610   2.949   4.208 -0.1043  0.7264  0.7284
 6777TIP3    H141746   4.619   3.035   4.167  1.1634 -0.8049 -2.5731
 6777TIP3    H241747   4.692   2.936   4.255  0.8669  0.3648 -0.9690
 6778TIP3   OH241748   5.351   6.241  12.082 -0.3828 -0.4402 -0.1604
 6778TIP3    H141749   5.366   6.328  12.117 -1.0554 -0.3975  0.0303
 6778TIP3    H241750   5.260   6.241  12.052 -0.1948 -0.8682 -0.7707
 6779TIP3   OH241751   0.334   6.413  12.792  0.0123 -0.0123 -0.2945
 6779TIP3    H141752   0.289   6.360  12.857 -0.5447  1.6074  0.6979
 6779TIP3    H241753   0.265   6.466  12.752  0.5771  0.1365 -1.1013
 6780TIP3   OH241754   1.566   2.261  11.463 -0.1862 -0.1745  0.3512
 6780TIP3    H141755   1.506   2.284  11.535  0.0789  2.0232 -0.0666
 6780TIP3    H241756   1.512   2.268  11.384  0.0771 -0.4638  0.1429
 6781TIP3   OH241757   6.531   5.584   5.335  0.4400  0.4078 -0.1975
 6781TIP3    H141758   6.592   5.589   5.262  2.1875 -4.2305  0.6151
 6781TIP3    H241759   6.463   5.524   5.305 -1.3103  1.9050  0.5655
 6782TIP3   OH241760   4.439   1.395   2.763  0.4595  0.9674 -0.5050
 6782TIP3    H141761   4.389   1.333   2.709 -0.6126  1.0412  0.3657
 6782TIP3    H241762   4.382   1.412   2.838  2.4758 -0.2832  1.4281
 6783TIP3   OH241763   3.171   2.545   2.093  0.1092  0.2305 -0.1782
 6783TIP3    H141764   3.114   2.511   2.162 -1.7517  3.3644  0.0434
 6783TIP3    H241765   3.240   2.592   2.141  0.1286  0.4739 -0.4441
 6784TIP3   OH241766   3.524   2.502  13.941  0.1634  0.2533  0.0807
 6784TIP3    H141767   3.581   2.478  14.014 -0.2501 -1.2036 -0.0319
 6784TIP3    H241768   3.551   2.590  13.916  2.0633 -0.2294  0.3084
 6785TIP3   OH241769   4.738   0.823   2.226  0.1665 -0.4163 -0.2818
 6785TIP3    H141770   4.814   0.783   2.184  2.1517  1.6834  1.0570
 6785TIP3    H241771   4.687   0.748   2.259  1.7214 -1.8985 -1.0858
 6786TIP3   OH241772   4.190   5.903  11.701  0.2560 -0.2180  0.2421
 6786TIP3    H141773   4.272   5.951  11.701 -0.7187  1.5129 -0.4265
 6786TIP3    H241774   4.216   5.811  11.697  2.1460  0.2798  0.3585
 6787TIP3   OH241775   6.740   5.469  15.149  0.7723 -0.4308 -0.1420
 6787TIP3    H141776   6.678   5.437  15.214 -1.8723  1.6208 -1.4757
 6787TIP3    H241777   6.774   5.551  15.185  0.2654  0.0637 -0.7675
 6788TIP3   OH241778   0.081   4.936  12.883 -0.7642 -0.2472  0.2108
 6788TIP3    H141779   0.163   4.977  12.857 -0.4101 -1.4382 -0.6505
 6788TIP3    H241780   0.091   4.844  12.857 -1.2925 -1.0375  2.5708
 6789TIP3   OH241781   4.130   2.623  12.978 -0.1231  0.2041  0.3575
 6789TIP3    H141782   4.200   2.617  12.913  0.1449  0.2115  0.6418
 6789TIP3    H241783   4.147   2.705  13.023 -1.6291  1.3483 -1.0559
 6790TIP3   OH241784   5.374   1.954   3.882 -0.4592  0.8403 -0.5212
 6790TIP3    H141785   5.347   1.887   3.817 -0.2315 -0.5025  0.7175
 6790TIP3    H241786   5.323   1.933   3.960  0.8402  1.0877  0.4269
 6791TIP3   OH241787   3.813   4.419   3.759  0.3025  0.1318  0.0551
 6791TIP3    H141788   3.763   4.360   3.703 -0.9895  2.1183 -1.0153
 6791TIP3    H241789   3.868   4.469   3.699  0.0213  1.2559  0.6994
 6792TIP3   OH241790   3.669   0.763   1.502 -0.3380  0.1559  0.0672
 6792TIP3    H141791   3.655   0.713   1.422  0.3961 -1.8605  1.1319
 6792TIP3    H241792   3.603   0.729   1.563 -0.5282  1.2729  0.5023
 6793TIP3   OH241793   1.116   5.202  12.998  0.4628 -0.0640  0.5367
 6793TIP3    H141794   1.038   5.239  13.040  0.8375  0.9135  0.3967
 6793TIP3    H241795   1.081   5.154  12.922  0.1345  3.1095 -1.4954
 6794TIP3   OH241796   1.876   5.506  15.717  0.0425 -0.2213 -0.2561
 6794TIP3    H141797   1.808   5.459  15.669  0.3170 -1.1596  0.2472
 6794TIP3    H241798   1.957   5.460  15.695  0.4564  0.5622 -0.4394
 6795TIP3   OH241799   3.071   6.212  14.718  0.0569 -0.2764 -0.5263
 6795TIP3    H141800   3.049   6.298  14.753  0.6231 -0.5861  0.6215
 6795TIP3    H241801   3.097   6.230  14.627 -0.2439  0.6995 -0.4347
 6796TIP3   OH241802   5.476   4.822  15.264 -0.2004 -0.6449  0.4340
 6796TIP3    H141803   5.420   4.828  15.341 -0.0178  1.0644  0.4718
 6796TIP3    H241804   5.529   4.744  15.279 -0.8936 -0.9296  1.5341
 6797TIP3   OH241805   2.010   2.192  16.863 -0.1388 -0.1477 -0.4943
 6797TIP3    H141806   2.094   2.202  16.818 -0.7108  0.1202 -1.5516
 6797TIP3    H241807   1.997   2.098  16.869  0.0737 -0.1894 -0.6508
 6798TIP3   OH241808   3.918   6.645   2.949 -0.0749  0.7570 -0.5803
 6798TIP3    H141809   3.952   6.621   2.862  0.9560  4.5318 -1.3985
 6798TIP3    H241810   3.956   6.731   2.966 -2.3745  1.3132  2.4946
 6799TIP3   OH241811   6.368   4.165   2.255 -0.0405  0.1809  0.0854
 6799TIP3    H141812   6.373   4.212   2.172 -2.9947 -1.3258 -1.1018
 6799TIP3    H241813   6.338   4.077   2.232  0.1206 -0.6539  2.6585
 6800TIP3   OH241814   0.043   1.073  15.615  0.4390 -0.1982  0.1374
 6800TIP3    H141815   0.106   1.015  15.659  0.9919 -0.9532 -1.5589
 6800TIP3    H241816  -0.003   1.016  15.553  1.2164  1.1932 -1.8222
 6801TIP3   OH241817   2.318   3.601   0.426 -0.0476  0.4066  0.2580
 6801TIP3    H141818   2.352   3.569   0.509  0.7920 -0.2784 -0.3281
 6801TIP3    H241819   2.374   3.560   0.360 -0.7342  0.8894 -0.6474
 6802TIP3   OH241820   2.146   4.118   4.237  0.3202 -0.1206  0.1947
 6802TIP3    H141821   2.117   4.093   4.325  0.4966  1.9361  0.8877
 6802TIP3    H241822   2.235   4.082   4.230  0.8778  0.9300  1.4640
 6803TIP3   OH241823   1.534   3.679   4.122  0.0699  0.3100 -0.2671
 6803TIP3    H141824   1.469   3.649   4.186 -0.0853 -0.6601 -0.8618
 6803TIP3    H241825   1.575   3.755   4.164  0.6390 -0.8429  1.4004
 6804TIP3   OH241826   3.164   6.627   1.793  0.5216  0.2658  0.1097
 6804TIP3    H141827   3.174   6.546   1.843 -3.6778  0.8319  2.3250
 6804TIP3    H241828   3.197   6.695   1.850  2.3999  0.3571 -1.0180
 6805TIP3   OH241829   5.703   0.766   0.610 -0.0775 -0.1207  0.3194
 6805TIP3    H141830   5.786   0.718   0.602 -0.4173 -0.6404 -0.1464
 6805TIP3    H241831   5.649   0.712   0.668 -0.8391 -0.8438 -1.0297
 6806TIP3   OH241832   6.435   5.541   4.025  0.1611 -0.0282 -0.1610
 6806TIP3    H141833   6.515   5.564   3.979  1.1746 -1.7271  0.6704
 6806TIP3    H241834   6.365   5.558   3.961  1.0592  2.1851 -0.6447
 6807TIP3   OH241835   1.606   0.386  11.331  0.4276  0.0056 -0.2894
 6807TIP3    H141836   1.623   0.432  11.249  0.8099 -1.5513 -1.1056
 6807TIP3    H241837   1.555   0.309  11.307 -0.5797  0.1825  1.1150
 6808TIP3   OH241838   6.184   4.265   5.071 -0.0272 -0.3198  0.2742
 6808TIP3    H141839   6.190   4.216   4.989  1.2126 -0.2282  0.2908
 6808TIP3    H241840   6.251   4.226   5.127  1.7430  1.9961 -0.0684
 6809TIP3   OH241841   4.155   4.589   1.436 -0.0791  0.0942 -0.2547
 6809TIP3    H141842   4.148   4.612   1.343 -1.7176 -2.4604 -0.8832
 6809TIP3    H241843   4.101   4.511   1.445  1.8447 -1.0896  2.4017
 6810TIP3   OH241844   6.499   4.362   3.404 -0.1532 -0.0369  0.4396
 6810TIP3    H141845   6.538   4.420   3.338  0.9143 -1.1010  0.1014
 6810TIP3    H241846   6.452   4.296   3.353 -1.8614  0.8021  0.8335
 6811TIP3   OH241847   4.986   4.215   6.158  0.0505 -0.4353  0.1648
 6811TIP3    H141848   5.045   4.155   6.204  0.8868 -0.2933 -0.6888
 6811TIP3    H241849   5.010   4.206   6.066 -1.6220 -0.7669 -0.2823
 6812TIP3   OH241850   6.513   0.495   1.122  0.5430 -0.5161  0.2229
 6812TIP3    H141851   6.587   0.464   1.174  0.3639 -1.3795 -0.0258
 6812TIP3    H241852   6.524   0.590   1.119 -0.3370 -0.1908  3.2500
 6813TIP3   OH241853   5.995   0.056   2.813 -0.3824  0.1203  0.5374
 6813TIP3    H141854   5.985  -0.017   2.752  1.8474  0.2208 -0.0650
 6813TIP3    H241855   5.932   0.121   2.784 -0.4711 -0.4748 -0.6761
 6814TIP3   OH241856   2.986   4.297   6.131  0.6436 -0.2361  0.1560
 6814TIP3    H141857   3.035   4.216   6.134  0.2390 -0.4477  1.4591
 6814TIP3    H241858   2.902   4.273   6.091  0.1901 -0.6641  1.3242
 6815TIP3   OH241859   2.801   5.677   5.633 -0.0825 -0.2179  0.1525
 6815TIP3    H141860   2.896   5.676   5.638 -0.0766  0.5945  0.3873
 6815TIP3    H241861   2.782   5.667   5.540  0.2502  0.1622  0.0393
 6816TIP3   OH241862   6.138   6.774   0.101 -0.0386  0.4508  0.1782
 6816TIP3    H141863   6.151   6.738   0.189 -2.8084  1.2055  1.0208
 6816TIP3    H241864   6.082   6.850   0.116 -0.1267  0.9146 -2.2219
 6817TIP3   OH241865   0.495   5.403  13.747  0.3827 -0.4052  0.0512
 6817TIP3    H141866   0.467   5.473  13.806  0.1115  0.2706 -0.8716
 6817TIP3    H241867   0.494   5.324  13.802  2.2535  0.5226  1.5680
 6818TIP3   OH241868   0.177   2.336  12.984  0.1928 -0.0930  0.5395
 6818TIP3    H141869   0.223   2.291  12.914 -1.9814 -1.8046  0.1247
 6818TIP3    H241870   0.246   2.380  13.033  1.9935 -0.6222 -1.3813
 6819TIP3   OH241871   4.698   6.365   0.421  0.1721 -0.2433 -0.3003
 6819TIP3    H141872   4.627   6.381   0.483  0.2635 -0.0581 -0.2426
 6819TIP3    H241873   4.700   6.269   0.411 -1.6191 -0.1434 -2.1270
 6820TIP3   OH241874   4.544   2.338   4.549 -0.5761  0.0257  0.0708
 6820TIP3    H141875   4.476   2.280   4.514  0.4300 -1.3485  0.3011
 6820TIP3    H241876   4.529   2.422   4.505 -1.6887 -0.5823 -0.7589
 6821TIP3   OH241877   4.598   1.121   1.410 -0.2208  0.2740  0.2607
 6821TIP3    H141878   4.657   1.182   1.365  0.1538 -0.7557 -0.6987
 6821TIP3    H241879   4.530   1.177   1.448 -0.3396  1.2266 -1.2708
 6822TIP3   OH241880   0.643   5.900  14.607  0.6402 -0.3496  0.0011
 6822TIP3    H141881   0.671   5.961  14.674 -1.7428  0.0921  0.6901
 6822TIP3    H241882   0.699   5.919  14.532  1.9169  0.6110  1.1525
 6823TIP3   OH241883   4.458   3.838  16.264  0.1836  0.1531  0.5699
 6823TIP3    H141884   4.507   3.867  16.340 -3.3974  4.8747  1.5491
 6823TIP3    H241885   4.379   3.797  16.300 -0.7134  0.7962 -0.5847
 6824TIP3   OH241886   5.689   1.125  14.430  0.1413  0.3731  0.2086
 6824TIP3    H141887   5.638   1.045  14.417 -1.4577  1.2756  0.6385
 6824TIP3    H241888   5.760   1.099  14.489 -0.2527 -0.7636  0.2085
 6825TIP3   OH241889   0.126   0.618   1.770 -0.4890  0.4684  0.1614
 6825TIP3    H141890   0.042   0.587   1.803  1.3340 -1.3748  3.5290
 6825TIP3    H241891   0.158   0.547   1.715 -0.3456  0.3880  0.3488
 6826TIP3   OH241892   0.758   1.301   4.616 -0.7261  0.1492 -0.4436
 6826TIP3    H141893   0.671   1.342   4.610 -0.3870  0.9360 -0.0415
 6826TIP3    H241894   0.797   1.337   4.695  0.4347  0.7095 -1.2424
 6827TIP3   OH241895   3.724   3.093   0.203 -0.1697  0.1961 -0.0218
 6827TIP3    H141896   3.791   3.025   0.199  0.0916  0.5157 -2.5405
 6827TIP3    H241897   3.644   3.046   0.226  0.4095 -0.6068  0.4018
 6828TIP3   OH241898   0.450   6.654  12.131  0.0273  0.0535  0.0241
 6828TIP3    H141899   0.484   6.743  12.141  1.4293 -0.4587  0.1165
 6828TIP3    H241900   0.444   6.620  12.220 -1.0265  0.2274  0.0272
 6829TIP3   OH241901   4.572   1.354  16.312 -1.1744 -0.0831  0.0888
 6829TIP3    H141902   4.577   1.441  16.353 -1.3488 -0.5646  1.1587
 6829TIP3    H241903   4.655   1.313  16.336 -1.2583 -0.3508 -0.0856
 6830TIP3   OH241904   4.774   2.759   3.858  0.4167  0.0251  0.4369
 6830TIP3    H141905   4.841   2.691   3.850 -0.0567 -0.2999 -0.9773
 6830TIP3    H241906   4.692   2.715   3.835  0.0940  1.0545 -0.4939
 6831TIP3   OH241907   1.903   3.222   4.345  0.4054  0.4325 -0.4844
 6831TIP3    H141908   1.811   3.211   4.368 -0.1297  0.3387 -2.4957
 6831TIP3    H241909   1.933   3.135   4.321  0.5060  0.7616 -1.5734
 6832TIP3   OH241910   4.016   4.507   3.294 -0.2782  0.3070 -0.3855
 6832TIP3    H141911   3.988   4.536   3.207 -1.0356 -0.2399 -0.3387
 6832TIP3    H241912   4.025   4.412   3.286 -0.0214  0.2924  0.0405
 6833TIP3   OH241913   2.739   2.820   1.691 -0.2428  0.2426  0.0621
 6833TIP3    H141914   2.732   2.914   1.673  0.2488  0.3138  0.2431
 6833TIP3    H241915   2.735   2.779   1.605 -2.3492  0.2996  0.0805
 6834TIP3   OH241916   4.998   5.439   2.358 -0.2318  0.3768  0.3418
 6834TIP3    H141917   4.937   5.445   2.431 -0.7705 -0.7756  0.0230
 6834TIP3    H241918   4.962   5.496   2.291  0.6095  1.9473  1.1747
 6835TIP3   OH241919   3.293   1.916  13.918  0.0890 -0.2181 -0.1318
 6835TIP3    H141920   3.242   1.905  13.837 -0.6954  0.1642  0.3094
 6835TIP3    H241921   3.248   1.984  13.966  0.3340 -0.7122  0.8145
 6836TIP3   OH241922   0.220   3.483  16.492 -0.1853 -0.4831  0.4284
 6836TIP3    H141923   0.210   3.388  16.488  0.9401 -0.6608  1.3838
 6836TIP3    H241924   0.188   3.507  16.579 -1.4435  0.1730 -0.1789
 6837TIP3   OH241925   2.293   3.098  12.875 -0.3278  0.6684  0.2956
 6837TIP3    H141926   2.351   3.035  12.832 -0.9850  0.5916 -0.5070
 6837TIP3    H241927   2.327   3.104  12.964  0.3059 -0.1269  0.1278
 6838TIP3   OH241928   3.813   0.679  12.923 -1.0101  0.8591  0.8974
 6838TIP3    H141929   3.817   0.766  12.883  1.5047 -0.0165 -1.0634
 6838TIP3    H241930   3.848   0.691  13.011  0.6912  1.6337  0.1464
 6839TIP3   OH241931   5.553   3.875  17.138  0.3251 -0.2115  0.2279
 6839TIP3    H141932   5.493   3.885  17.064 -0.3341  0.8891  0.8815
 6839TIP3    H241933   5.627   3.825  17.103  0.1457  0.5178 -1.2348
 6840TIP3   OH241934   4.429   6.627  12.578 -0.0035  0.3861 -0.1739
 6840TIP3    H141935   4.463   6.582  12.501  0.6561  1.4499 -0.5292
 6840TIP3    H241936   4.433   6.562  12.648 -2.6083 -1.3017 -1.4517
 6841TIP3   OH241937   4.381   1.090  13.831 -0.1311  0.3865  0.0071
 6841TIP3    H141938   4.312   1.026  13.818  0.0720  0.1562  0.0398
 6841TIP3    H241939   4.388   1.099  13.926  0.6175 -0.4134  0.0452
 6842TIP3   OH241940   4.918   6.251   3.657  0.2129 -0.4199 -0.5502
 6842TIP3    H141941   4.997   6.224   3.610 -0.2103 -0.8639 -0.9976
 6842TIP3    H241942   4.877   6.170   3.685  0.5327 -0.1764  0.7429
 6843TIP3   OH241943   2.953   4.098  11.967 -0.2316  0.2619 -0.3322
 6843TIP3    H141944   2.891   4.027  11.952 -0.7421  0.7743 -0.6892
 6843TIP3    H241945   2.899   4.173  11.994 -0.3585  1.9734 -4.5942
 6844TIP3   OH241946   3.520   1.619  12.165  0.4332  0.2385  0.3072
 6844TIP3    H141947   3.430   1.616  12.132  0.2716  1.9918  0.4625
 6844TIP3    H241948   3.565   1.550  12.117 -1.3484 -1.8491  1.4423
 6845TIP3   OH241949   4.736   2.434   4.709 -0.0815 -0.1128 -0.1414
 6845TIP3    H141950   4.794   2.366   4.742  0.3633  0.3746  0.1020
 6845TIP3    H241951   4.668   2.387   4.662  2.9593 -0.7021 -4.6646
 6846TIP3   OH241952   2.653   0.690  12.149  0.0366  0.4403 -0.3953
 6846TIP3    H141953   2.610   0.613  12.188 -0.9263  1.1292 -0.0492
 6846TIP3    H241954   2.656   0.671  12.055  0.1297 -0.1629 -0.2773
 6847TIP3   OH241955   1.297   2.756   1.717  0.2936  0.2414  0.1074
 6847TIP3    H141956   1.346   2.772   1.636  0.6667  0.6798  0.4122
 6847TIP3    H241957   1.330   2.823   1.778 -0.7755  0.6264  0.2786
 6848TIP3   OH241958   1.167   1.967  15.660  0.2785  0.0038  0.1101
 6848TIP3    H141959   1.212   1.912  15.725  0.6957 -0.4924 -0.5794
 6848TIP3    H241960   1.239   2.010  15.613 -0.0461  1.8164  1.1807
 6849TIP3   OH241961   2.812   3.733   0.983  0.3692 -0.5961  0.6586
 6849TIP3    H141962   2.763   3.661   1.023  0.1585 -1.0119 -0.3122
 6849TIP3    H241963   2.832   3.702   0.895  1.3455  0.0515  0.6390
 6850TIP3   OH241964   0.966   3.715  12.950  0.8781  0.0820  0.0541
 6850TIP3    H141965   0.994   3.703  13.040  2.2265 -1.0254 -0.4681
 6850TIP3    H241966   1.039   3.682  12.898  1.3350  3.2789 -1.5224
 6851TIP3   OH241967   4.913   0.563   1.189  0.5265  0.1890 -0.2959
 6851TIP3    H141968   4.987   0.507   1.164  0.2796 -0.0539 -0.4976
 6851TIP3    H241969   4.922   0.574   1.284  0.1554 -0.8389 -0.1179
 6852TIP3   OH241970   2.299   5.242   2.418  0.0462  0.1866 -0.0533
 6852TIP3    H141971   2.361   5.176   2.388  0.3293  1.4771 -2.5968
 6852TIP3    H241972   2.353   5.311   2.456 -0.1771 -0.4828  1.5650
 6853TIP3   OH241973   4.233   4.329   1.096 -0.0946 -0.2934  0.4561
 6853TIP3    H141974   4.179   4.395   1.053  0.7705 -0.2860 -0.6610
 6853TIP3    H241975   4.177   4.294   1.165 -1.3953 -0.0237 -0.4177
 6854TIP3   OH241976   1.418   4.006   2.306  0.9243 -0.3245 -0.4100
 6854TIP3    H141977   1.457   4.082   2.349  2.2430 -1.1296 -0.1249
 6854TIP3    H241978   1.333   3.996   2.348  1.0555  0.5416  0.0887
 6855TIP3   OH241979   1.616   1.844   0.243 -0.0057 -0.8624 -0.0551
 6855TIP3    H141980   1.633   1.829   0.150 -0.5991 -1.8906 -0.0173
 6855TIP3    H241981   1.672   1.781   0.288 -0.8175 -1.4077  0.2159
 6856TIP3   OH241982   2.249   0.969  16.470  0.0745  0.2171 -0.0619
 6856TIP3    H141983   2.189   1.038  16.439  1.0492  0.4074 -1.6817
 6856TIP3    H241984   2.205   0.887  16.448 -0.6619  0.3094  1.0008
 6857TIP3   OH241985   0.231   5.649  12.641  0.3441 -0.0424 -0.4574
 6857TIP3    H141986   0.211   5.677  12.730 -1.3183 -0.0996 -0.7803
 6857TIP3    H241987   0.208   5.725  12.587  0.3001 -0.3873 -0.9284
 6858TIP3   OH241988   3.370   4.539  11.911 -0.3565 -0.2319 -0.4011
 6858TIP3    H141989   3.328   4.469  11.862 -0.0101 -0.8870  0.2131
 6858TIP3    H241990   3.347   4.619  11.864  2.6903 -1.0347 -3.6324
 6859TIP3   OH241991   6.428   3.105  16.439 -0.4471  0.6938  0.0241
 6859TIP3    H141992   6.505   3.129  16.491 -1.2669  1.2977  0.9808
 6859TIP3    H241993   6.434   3.009  16.431  0.3682  0.7317  0.1407
 6860TIP3   OH241994   2.759   2.016   2.812  0.3786 -0.5272  0.4825
 6860TIP3    H141995   2.713   2.032   2.895 -0.7978 -1.6710  0.0940
 6860TIP3    H241996   2.782   1.923   2.816  1.9284 -0.1792  0.2748
 6861TIP3   OH241997   0.783   4.118   3.874  0.2895 -0.2935  0.4041
 6861TIP3    H141998   0.695   4.086   3.860 -0.4476  1.8249 -0.2799
 6861TIP3    H241999   0.820   4.126   3.786  0.7885 -0.1889  0.6171
 6862TIP3   OH242000   0.149   4.785   1.037 -0.2297 -0.2853  0.1865
 6862TIP3    H142001   0.199   4.730   0.977  1.2689  0.9683  0.2252
 6862TIP3    H242002   0.188   4.770   1.123  3.1387  3.7735 -0.3372
 6863TIP3   OH242003   1.831   2.192  17.083 -0.0617 -0.3556 -0.1058
 6863TIP3    H142004   1.878   2.256  17.137 -1.8088  1.3009 -0.4463
 6863TIP3    H242005   1.872   2.199  16.997  0.3377 -0.3450  0.0829
 6864TIP3   OH242006   2.296   3.095  14.559  0.0639 -0.4144  0.1259
 6864TIP3    H142007   2.220   3.037  14.569 -0.0262 -0.5165 -1.0435
 6864TIP3    H242008   2.261   3.174  14.517  0.6039 -0.4985 -0.4986
 6865TIP3   OH242009   3.723   2.663  15.973 -0.0987  0.6313  0.1445
 6865TIP3    H142010   3.749   2.739  16.025  0.1064  0.8416 -0.2612
 6865TIP3    H242011   3.630   2.652  15.992  0.2859 -0.2266  1.7272
 6866TIP3   OH242012   3.018   2.672  16.606 -0.4584 -0.4444  0.0152
 6866TIP3    H142013   2.990   2.583  16.584  0.3013 -0.5468 -0.6076
 6866TIP3    H242014   3.110   2.663  16.632 -1.4270 -0.4108  4.0011
 6867TIP3   OH242015   0.425   2.652   3.428 -0.0774  0.0346 -0.4623
 6867TIP3    H142016   0.465   2.613   3.351  1.0252 -0.7029  0.4491
 6867TIP3    H242017   0.340   2.608   3.435  0.4685 -1.0580 -0.3795
 6868TIP3   OH242018   3.545   0.524   0.618  0.2155 -0.3349 -0.2168
 6868TIP3    H142019   3.471   0.463   0.615  1.8276 -2.4113 -0.6229
 6868TIP3    H242020   3.601   0.497   0.545  1.9498  0.3639  0.7944
 6869TIP3   OH242021   6.024   1.031  12.911  0.0198  1.1223 -0.0941
 6869TIP3    H142022   6.080   0.979  12.969  0.5948  0.0983 -1.5236
 6869TIP3    H242023   5.993   0.970  12.845  0.1174  2.4183 -1.4081
 6870TIP3   OH242024   5.714   2.299   0.261  0.1136  0.5775  0.0175
 6870TIP3    H142025   5.665   2.219   0.279 -0.9372  1.0546 -0.5572
 6870TIP3    H242026   5.803   2.271   0.245 -0.1208 -0.4119  0.4019
 6871TIP3   OH242027   3.013   0.139   5.099  0.1040 -0.3919 -0.4890
 6871TIP3    H142028   2.986   0.176   5.015  1.3095  1.0283 -0.2911
 6871TIP3    H242029   2.996   0.045   5.091  0.9976 -0.4108 -2.6417
 6872TIP3   OH242030   0.731   1.240  14.332  0.3956  0.6095 -0.3478
 6872TIP3    H142031   0.751   1.252  14.239 -0.4015  0.2531 -0.5708
 6872TIP3    H242032   0.735   1.328  14.369 -0.7801  0.9758 -1.0385
 6873TIP3   OH242033   2.679   0.558   2.780 -0.5917 -0.0134  0.5852
 6873TIP3    H142034   2.597   0.531   2.821 -0.2364 -2.2432  0.0040
 6873TIP3    H242035   2.747   0.534   2.843 -0.3247  1.3061  0.8289
 6874TIP3   OH242036   2.044   4.327   0.059  0.4694 -0.6145  0.3511
 6874TIP3    H142037   1.966   4.381   0.044  0.6703 -0.5955 -0.6583
 6874TIP3    H242038   2.091   4.373   0.129  1.1068  1.0687 -1.0855
 6875TIP3   OH242039   5.656   5.640   4.720  0.4794 -0.3754  0.0583
 6875TIP3    H142040   5.574   5.653   4.767  0.0284 -2.3521 -0.1144
 6875TIP3    H242041   5.667   5.720   4.669 -0.3641  0.7058  1.5061
 6876TIP3   OH242042   3.172   1.042  14.306 -0.0872  0.2809  0.1971
 6876TIP3    H142043   3.181   0.961  14.356 -0.6696  0.1487  0.0994
 6876TIP3    H242044   3.081   1.042  14.277  0.2771  0.2696 -0.9983
 6877TIP3   OH242045   1.915   4.714   3.807 -0.3767 -0.1256  0.1818
 6877TIP3    H142046   1.923   4.713   3.711  1.3817 -1.2230  0.2907
 6877TIP3    H242047   1.877   4.800   3.827  2.9285  1.8952 -1.3022
 6878TIP3   OH242048   4.042   4.656  15.480  0.0101  0.0731 -0.4307
 6878TIP3    H142049   4.101   4.582  15.462 -0.4308 -0.2917 -0.3998
 6878TIP3    H242050   3.955   4.618  15.472 -0.3167  1.1703 -3.0863
 6879TIP3   OH242051   3.647   2.900  16.571 -0.5230  0.0362 -0.5054
 6879TIP3    H142052   3.572   2.900  16.512 -1.3135 -0.1235  0.4817
 6879TIP3    H242053   3.610   2.887  16.658  0.7894 -1.8439 -0.1593
 6880TIP3   OH242054   3.252   5.286   5.878  0.5562 -0.2200 -0.0928
 6880TIP3    H142055   3.185   5.351   5.899  0.1095 -0.6804 -0.0649
 6880TIP3    H242056   3.303   5.326   5.807 -1.4450 -0.9466 -2.0681
 6881TIP3   OH242057   5.828   1.204   4.973  0.6546 -0.8069 -0.5858
 6881TIP3    H142058   5.836   1.156   4.890  0.4375 -0.9557 -0.5212
 6881TIP3    H242059   5.830   1.296   4.947  1.1259 -0.8485 -0.7041
 6882TIP3   OH242060   0.654   1.134  13.174 -0.0205  0.6326 -0.6819
 6882TIP3    H142061   0.605   1.103  13.251 -0.0780  1.2968 -0.4360
 6882TIP3    H242062   0.673   1.055  13.124 -3.4265  0.5044 -2.0609
 6883TIP3   OH242063   2.931   4.576  16.858 -0.1098  0.0753 -0.1244
 6883TIP3    H142064   3.004   4.566  16.798  1.6903 -1.3262  2.1236
 6883TIP3    H242065   2.872   4.503  16.837  0.0951  0.0704 -0.6912
 6884TIP3   OH242066   6.394   3.704  11.832  0.0277 -0.2070  0.0045
 6884TIP3    H142067   6.385   3.647  11.756 -0.5100  0.4701 -0.4615
 6884TIP3    H242068   6.486   3.731  11.831  0.2895 -1.0737  0.2436
 6885TIP3   OH242069   2.671   5.899   5.706  0.0629 -0.5292 -0.1348
 6885TIP3    H142070   2.725   5.823   5.683  2.0059  0.9566 -0.7997
 6885TIP3    H242071   2.598   5.896   5.644  0.3836 -1.5878 -0.4833
 6886TIP3   OH242072   3.878   5.836   5.789  0.4485 -0.2313 -0.1733
 6886TIP3    H142073   3.971   5.821   5.806 -0.2490 -2.7713  1.9997
 6886TIP3    H242074   3.845   5.877   5.868 -0.2008  1.2831 -1.1900
 6887TIP3   OH242075   6.029   6.204   2.934 -0.1997 -0.2038  0.1399
 6887TIP3    H142076   6.012   6.297   2.953  0.5298  0.0382 -0.3051
 6887TIP3    H242077   6.049   6.203   2.840 -2.1207 -1.1174 -0.2840
 6888TIP3   OH242078   5.433   2.142  13.601  0.7466 -0.1089 -0.9930
 6888TIP3    H142079   5.422   2.059  13.556  1.0954 -1.4128  1.1949
 6888TIP3    H242080   5.471   2.119  13.686 -2.0499  1.8693  1.0031
 6889TIP3   OH242081   3.232   2.729  16.111 -0.2998  0.3719  0.6034
 6889TIP3    H142082   3.286   2.727  16.190 -0.8033 -0.9398  0.9296
 6889TIP3    H242083   3.186   2.813  16.115  0.7734  0.9545  0.9487
 6890TIP3   OH242084   3.445   2.806  15.932  0.0213  0.7349 -0.0498
 6890TIP3    H142085   3.387   2.808  15.856  0.1138  1.8401 -0.1003
 6890TIP3    H242086   3.393   2.765  16.001 -0.2310  0.1717 -0.5653
 6891TIP3   OH242087   0.765   5.405   0.602 -0.2637 -0.1744 -0.6282
 6891TIP3    H142088   0.672   5.382   0.609 -0.2329 -0.2522 -0.4828
 6891TIP3    H242089   0.765   5.497   0.574 -0.4297  1.0748  2.9395
 6892TIP3   OH242090   4.409   2.275  16.936 -0.3184  0.5528  0.1779
 6892TIP3    H142091   4.499   2.255  16.962 -0.8512 -0.5301  1.2690
 6892TIP3    H242092   4.361   2.195  16.954 -1.4939  1.0858 -0.4981
 6893TIP3   OH242093   3.173   1.105  10.973  0.0142 -0.0894 -0.2690
 6893TIP3    H142094   3.176   1.180  10.914  0.6100  0.1718  0.0866
 6893TIP3    H242095   3.149   1.031  10.917  0.0469  0.2507 -0.7334
 6894TIP3   OH242096   5.915   0.902  11.591 -0.4784 -0.3061 -0.3780
 6894TIP3    H142097   5.890   0.817  11.555 -1.1954  0.1932 -1.1002
 6894TIP3    H242098   5.896   0.964  11.521 -1.6792  0.6680  0.7592
 6895TIP3   OH242099   4.493   4.113   0.654  0.1835 -0.3062  0.4712
 6895TIP3    H142100   4.439   4.167   0.712  0.1212  0.0863  0.0516
 6895TIP3    H242101   4.531   4.047   0.712 -0.4877 -0.3870  0.8258
 6896TIP3   OH242102   0.677   4.052   2.509  0.9754  0.5098  0.5147
 6896TIP3    H142103   0.608   3.994   2.476  1.1932 -0.7069  2.0836
 6896TIP3    H242104   0.640   4.140   2.502  0.6213  0.2385 -1.9138
 6897TIP3   OH242105   3.541   4.353  16.600 -0.3334  0.0778 -0.2641
 6897TIP3    H142106   3.466   4.294  16.599 -1.3129  1.2773  0.2567
 6897TIP3    H242107   3.505   4.437  16.629  1.4281  0.3738  1.2065
 6898TIP3   OH242108   0.159   0.006  10.331 -0.0468  0.4980  0.4688
 6898TIP3    H142109   0.154  -0.089  10.339  1.0097  0.3678 -0.1436
 6898TIP3    H242110   0.251   0.023  10.310 -0.8236  1.3670 -2.7491
 6899TIP3   OH242111   5.373   3.231  13.669 -0.0784 -0.0130 -0.3077
 6899TIP3    H142112   5.332   3.178  13.601  0.6066  0.4420 -1.1014
 6899TIP3    H242113   5.300   3.280  13.707 -0.3815  0.3141 -1.2616
 6900TIP3   OH242114   3.372   5.141  14.184  1.1641  0.0690 -0.1035
 6900TIP3    H142115   3.376   5.045  14.182 -0.0171  0.0038 -1.5736
 6900TIP3    H242116   3.414   5.166  14.267 -0.3516 -1.8138  1.3081
 6901TIP3   OH242117   2.159   3.120  14.198 -0.0388  0.1752 -0.0717
 6901TIP3    H142118   2.142   3.047  14.257  2.5787  1.0098  1.9221
 6901TIP3    H242119   2.123   3.196  14.243 -0.9722  0.4056 -1.1761
 6902TIP3   OH242120   4.410   5.393  14.640  0.5227 -0.5319  0.2032
 6902TIP3    H142121   4.411   5.302  14.610  1.4308 -0.7969  0.9941
 6902TIP3    H242122   4.333   5.400  14.696  0.3304 -0.7541 -0.0350
 6903TIP3   OH242123   4.045   5.587  11.098  0.3535 -0.0574 -0.3468
 6903TIP3    H142124   3.961   5.610  11.138  0.5215  0.7456 -0.4320
 6903TIP3    H242125   4.026   5.582  11.004  0.6533  1.4508 -0.5194
 6904TIP3   OH242126   6.568   3.427   4.780  0.2858 -0.0107 -0.2465
 6904TIP3    H142127   6.639   3.404   4.719  0.4854  1.3753 -0.5607
 6904TIP3    H242128   6.602   3.502   4.829 -0.0274 -0.8429  1.3290
 6905TIP3   OH242129   0.426   2.391  16.647  0.0578 -0.5786 -0.5947
 6905TIP3    H142130   0.377   2.396  16.565 -0.5440 -1.0445 -0.2659
 6905TIP3    H242131   0.462   2.303  16.648 -0.2758 -0.7115 -0.1664
 6906TIP3   OH242132   2.305   4.088   0.916  0.2157 -0.0021 -0.1451
 6906TIP3    H142133   2.283   4.058   0.827  0.3369  0.5350 -0.3600
 6906TIP3    H242134   2.319   4.182   0.906  0.9366 -0.0558  0.3161
 6907TIP3   OH242135   1.882   5.020   4.989 -0.0910 -0.0607 -0.6262
 6907TIP3    H142136   1.900   5.113   4.979  0.5838 -0.1446 -0.3044
 6907TIP3    H242137   1.831   5.014   5.070 -1.6763  0.1908 -1.5884
 6908TIP3   OH242138   5.745   0.885  16.324 -0.2721  0.1242  0.0565
 6908TIP3    H142139   5.830   0.897  16.366  0.2398 -2.7319 -0.0007
 6908TIP3    H242140   5.725   0.971  16.287  2.0195  1.1832  1.0439
 6909TIP3   OH242141   2.174   1.444  16.942 -0.3571  0.4539 -0.4282
 6909TIP3    H142142   2.140   1.395  16.868 -0.1194 -0.2858 -0.0581
 6909TIP3    H242143   2.254   1.398  16.967 -0.2240  0.9243  0.0438
 6910TIP3   OH242144   6.307   6.514  13.697  0.1377  0.0948  0.0039
 6910TIP3    H142145   6.383   6.549  13.650 -0.5951  2.0345  0.1764
 6910TIP3    H242146   6.295   6.572  13.772  0.1261 -1.8260  1.5743
 6911TIP3   OH242147   5.483   4.793  13.459  0.0581  0.4180 -0.2595
 6911TIP3    H142148   5.405   4.746  13.430  0.1000  0.4524 -0.4305
 6911TIP3    H242149   5.557   4.742  13.425  0.1229  0.0177  0.4784
 6912TIP3   OH242150   6.496   1.297   0.235 -0.2574 -0.1195  0.4141
 6912TIP3    H142151   6.426   1.326   0.177 -0.1971 -1.5088 -0.4159
 6912TIP3    H242152   6.577   1.329   0.195 -0.0200 -2.9077 -1.5895
 6913TIP3   OH242153   5.774   4.672   2.726 -0.1199 -0.2675  0.2319
 6913TIP3    H142154   5.697   4.620   2.702  0.9683 -2.0074  0.3772
 6913TIP3    H242155   5.802   4.636   2.810  0.0736  1.2740  0.8667
 6914TIP3   OH242156   6.691   3.355  15.920  0.2487 -0.1721  0.0208
 6914TIP3    H142157   6.725   3.425  15.976  0.6019 -1.3435  1.3333
 6914TIP3    H242158   6.596   3.360  15.932  0.2122  0.5740 -0.5159
 6915TIP3   OH242159   5.158   5.285  12.976  0.2530  0.5596 -0.0326
 6915TIP3    H142160   5.225   5.225  13.010 -1.0379 -0.8507  0.1184
 6915TIP3    H242161   5.119   5.324  13.054 -1.2772 -1.0997  0.1087
 6916TIP3   OH242162   0.687   5.083   1.494 -0.2454  0.1127 -0.5502
 6916TIP3    H142163   0.661   5.030   1.569  1.5567 -2.6121 -1.6705
 6916TIP3    H242164   0.634   5.048   1.421  0.1380  0.6725 -1.1055
 6917TIP3   OH242165   2.638   5.704  12.728 -0.0768  0.6881  0.5661
 6917TIP3    H142166   2.556   5.732  12.769 -0.1341  1.5567 -0.1019
 6917TIP3    H242167   2.633   5.739  12.639  0.4631 -0.3433  0.1098
 6918TIP3   OH242168   1.315   2.092  13.733  0.0058 -0.4811 -0.2869
 6918TIP3    H142169   1.247   2.068  13.796  1.8360 -2.0786  1.2403
 6918TIP3    H242170   1.319   2.187  13.736 -0.2954 -0.4968  1.7136
 6919TIP3   OH242171   2.183   4.013   5.091 -0.1886  0.0849  0.7442
 6919TIP3    H142172   2.210   4.102   5.067 -2.7089  0.4951 -0.9244
 6919TIP3    H242173   2.120   4.025   5.162 -0.7467 -0.3212  0.3300
 6920TIP3   OH242174   1.301   6.629   0.281 -0.7048 -0.0010  0.1177
 6920TIP3    H142175   1.281   6.543   0.318 -0.2258  0.0848  0.5748
 6920TIP3    H242176   1.368   6.666   0.339 -1.1450  0.8209  0.1193
 6921TIP3   OH242177   4.190   1.203   0.018  0.5855  0.3795  0.0054
 6921TIP3    H142178   4.181   1.248  -0.066 -2.9161 -1.7280 -0.9582
 6921TIP3    H242179   4.130   1.248   0.077  1.1386  0.3042  0.6406
 6922TIP3   OH242180   0.655   0.300  12.841  0.0798 -0.5592 -0.4352
 6922TIP3    H142181   0.596   0.375  12.835  0.9000  0.2112  0.6294
 6922TIP3    H242182   0.736   0.336  12.878  0.7706 -1.8284 -0.6391
 6923TIP3   OH242183   2.529   3.557  11.747  0.1312  0.4197 -0.1070
 6923TIP3    H142184   2.576   3.549  11.664  0.6353  0.5699  0.1593
 6923TIP3    H242185   2.553   3.643  11.780 -0.8180  0.7500 -0.2551
 6924TIP3   OH242186   2.952   3.908   0.391 -0.4434 -0.1183  0.1633
 6924TIP3    H142187   2.918   3.835   0.442  0.3787  0.0280  0.9412
 6924TIP3    H242188   2.924   3.986   0.439 -0.4103  0.0445 -0.0820
 6925TIP3   OH242189   4.698   1.606  16.001 -0.0312  0.6835 -0.7306
 6925TIP3    H142190   4.618   1.644  16.039 -1.6895 -3.2652  0.2395
 6925TIP3    H242191   4.679   1.600  15.908 -1.4636 -1.1920 -0.3819
 6926TIP3   OH242192   6.457   4.715   0.346 -0.6486  0.1541 -0.2140
 6926TIP3    H142193   6.513   4.645   0.311 -0.2290  0.9293 -1.1417
 6926TIP3    H242194   6.374   4.705   0.299 -0.8357 -0.1556  0.1761
 6927TIP3   OH242195   2.616   1.047   3.751 -0.2245  0.5402 -0.0062
 6927TIP3    H142196   2.613   1.142   3.765  1.1250  1.0164 -2.4524
 6927TIP3    H242197   2.629   1.011   3.838  1.7045  2.7660  0.7296
 6928TIP3   OH242198   6.231   0.742   4.592  0.2221 -0.2485  0.7317
 6928TIP3    H142199   6.161   0.689   4.630 -1.4277  1.0718 -0.3207
 6928TIP3    H242200   6.312   0.696   4.615 -1.0427 -2.4708  0.9759
 6929TIP3   OH242201   1.106   2.211   5.759 -0.0829 -0.4171 -0.0735
 6929TIP3    H142202   1.040   2.144   5.777 -0.3566 -0.6205 -1.6539
 6929TIP3    H242203   1.184   2.181   5.806 -0.5979 -1.1071  0.3701
 6930TIP3   OH242204   4.030   1.777  15.475 -0.7045 -0.2455 -0.0274
 6930TIP3    H142205   4.043   1.831  15.397  1.6017 -0.2130  0.2954
 6930TIP3    H242206   4.045   1.687  15.444 -1.2458 -0.3735  0.0860
 6931TIP3   OH242207   0.722   2.916   2.283 -0.1460  0.0554  0.1060
 6931TIP3    H142208   0.705   2.825   2.306 -0.0148 -0.3372 -1.2465
 6931TIP3    H242209   0.772   2.911   2.201 -0.4461  1.3545 -0.1818
 6932TIP3   OH242210   2.131   0.370   3.362  0.5026  1.3870  0.4347
 6932TIP3    H142211   2.214   0.418   3.364 -0.5370  3.2930  0.4708
 6932TIP3    H242212   2.140   0.303   3.429  2.1812  1.2446  0.1061
 6933TIP3   OH242213   4.655   5.509  14.183 -0.0210 -0.2295 -0.0278
 6933TIP3    H142214   4.725   5.572  14.200  0.6741 -0.8856 -0.4586
 6933TIP3    H242215   4.598   5.554  14.121  1.3174 -0.5923 -1.5838
 6934TIP3   OH242216   0.332   0.281  11.699  0.6535  0.2745 -0.0359
 6934TIP3    H142217   0.374   0.266  11.784  1.7808 -0.8700 -0.7535
 6934TIP3    H242218   0.403   0.308  11.641 -0.1614  1.3645 -0.5594
 6935TIP3   OH242219   1.214   4.957  17.066  0.4214  0.3977 -0.2078
 6935TIP3    H142220   1.193   4.935  17.157 -2.4332  0.8069 -0.6921
 6935TIP3    H242221   1.287   4.899  17.045  0.7964 -0.1140  2.1473
 6936TIP3   OH242222   0.455   1.201  12.270 -0.1540  0.1908 -0.1249
 6936TIP3    H142223   0.489   1.240  12.189 -2.5198  1.1690 -0.7414
 6936TIP3    H242224   0.367   1.236  12.278 -1.3283 -2.7045  0.9731
 6937TIP3   OH242225   6.327   2.982   4.348 -0.2488 -0.0005 -0.1179
 6937TIP3    H142226   6.375   2.965   4.428 -3.4043  0.4350  2.0593
 6937TIP3    H242227   6.318   2.897   4.306  0.5360 -0.4069  0.5332
 6938TIP3   OH242228   0.058   3.086   6.308 -0.0751  0.1452 -0.3377
 6938TIP3    H142229  -0.009   3.140   6.266  0.6620  1.0669 -0.3557
 6938TIP3    H242230   0.011   3.008   6.338 -1.1420  0.7589 -0.3786
 6939TIP3   OH242231   3.669   1.935   1.495  0.4644 -0.8853  0.1295
 6939TIP3    H142232   3.707   1.994   1.431 -0.9288  0.2428  0.2938
 6939TIP3    H242233   3.597   1.984   1.534  0.0692 -2.2323  1.2028
 6940TIP3   OH242234   4.368   0.771  13.976  0.4907 -0.0117 -0.6028
 6940TIP3    H142235   4.384   0.707  13.907 -0.5001 -1.4687  0.4640
 6940TIP3    H242236   4.274   0.789  13.970  1.0046  2.7833 -2.0333
 6941TIP3   OH242237   6.668   5.930   2.105 -0.4891 -0.0320 -0.3972
 6941TIP3    H142238   6.635   6.019   2.086 -1.0116  0.8221  3.6486
 6941TIP3    H242239   6.757   5.944   2.137 -0.0815 -1.1747 -0.9961
 6942TIP3   OH242240   2.513   1.638  15.314 -0.2481 -0.1451  0.5642
 6942TIP3    H142241   2.521   1.566  15.376 -0.7105 -0.2403  0.5134
 6942TIP3    H242242   2.446   1.610  15.252  0.2567 -0.0777 -0.0247
 6943TIP3   OH242243   6.250   1.695  17.196 -0.0157  0.1266  0.3305
 6943TIP3    H142244   6.207   1.613  17.220 -2.3460  1.6833  1.9079
 6943TIP3    H242245   6.325   1.701  17.254 -0.6411 -0.2722  1.2019
 6944TIP3   OH242246   5.506   1.140  15.918  0.4988 -0.2454 -0.4310
 6944TIP3    H142247   5.499   1.106  15.829  1.6666 -2.6739  0.3126
 6944TIP3    H242248   5.418   1.131  15.954  0.3089 -0.4952 -0.9441
 6945TIP3   OH242249   1.619   2.696   5.080 -0.7314  0.0258  0.3300
 6945TIP3    H142250   1.685   2.757   5.115 -1.2542  0.7112  0.1428
 6945TIP3    H242251   1.668   2.640   5.020  0.0758 -0.8155  1.7348
 6946TIP3   OH242252   0.816   5.589  14.553 -0.4941  0.0785  0.1107
 6946TIP3    H142253   0.765   5.610  14.631 -1.1347  1.9375 -0.7572
 6946TIP3    H242254   0.785   5.502  14.527 -1.2595  0.0244  1.1399
 6947TIP3   OH242255   1.770   5.987  15.597  0.0951  0.2007 -0.0956
 6947TIP3    H142256   1.739   5.939  15.520  0.8829  0.4490 -0.5680
 6947TIP3    H242257   1.690   6.024  15.635 -0.3467 -0.2561 -0.5612
 6948TIP3   OH242258   1.340   4.319  15.816  0.1334 -0.4466  0.3587
 6948TIP3    H142259   1.299   4.235  15.837  0.1788 -0.4915  0.2656
 6948TIP3    H242260   1.282   4.360  15.752  1.7299 -1.8254 -2.1278
 6949TIP3   OH242261   3.909   3.584   0.910  0.0173  0.1348  0.1853
 6949TIP3    H142262   3.962   3.530   0.970  1.0964 -0.6220 -1.3883
 6949TIP3    H242263   3.819   3.562   0.932  0.3916 -0.4042  1.2800
 6950TIP3   OH242264   1.853   3.995  10.592  0.6106 -0.5869  0.4120
 6950TIP3    H142265   1.776   4.012  10.646 -0.8382  2.7387 -2.3032
 6950TIP3    H242266   1.913   4.067  10.611  1.3449 -1.0013 -0.2570
 6951TIP3   OH242267   0.437   5.211  15.269  0.3009 -0.0418  0.2752
 6951TIP3    H142268   0.527   5.240  15.281  0.7537 -1.3110  0.1454
 6951TIP3    H242269   0.433   5.182  15.177 -0.7001  1.4905 -0.1936
 6952TIP3   OH242270   5.750   4.042   1.993 -0.0490  0.1419 -0.4051
 6952TIP3    H142271   5.771   4.133   1.970  2.4789  0.2510  1.7877
 6952TIP3    H242272   5.694   4.050   2.070 -0.1304 -0.1791 -0.4310
 6953TIP3   OH242273   4.128   4.918   4.002  0.9546  0.2399  0.1471
 6953TIP3    H142274   4.150   4.848   3.941 -2.2027 -0.4100 -0.4194
 6953TIP3    H242275   4.120   4.996   3.947 -0.5443 -0.0632 -0.0977
 6954TIP3   OH242276   3.145   1.012   3.833  0.1871 -0.4880  0.4398
 6954TIP3    H142277   3.089   1.090   3.837  0.2806 -0.3748 -0.2946
 6954TIP3    H242278   3.233   1.047   3.816  0.1953 -0.7630 -0.0965
 6955TIP3   OH242279   6.365   3.418  11.360  0.2007  0.0363 -0.4280
 6955TIP3    H142280   6.424   3.447  11.291  0.9645 -1.5243 -0.4751
 6955TIP3    H242281   6.402   3.335  11.390  0.7964  1.3600  2.9718
 6956TIP3   OH242282   4.318   5.849  12.249  0.1285  0.5572  0.8429
 6956TIP3    H142283   4.278   5.799  12.321  0.0591 -0.4039  0.1540
 6956TIP3    H242284   4.412   5.842  12.264  0.1032  2.6338  2.3396
 6957TIP3   OH242285   4.793   4.484  11.529  0.4843  0.6154  0.1114
 6957TIP3    H142286   4.824   4.397  11.505  0.2358  0.6829 -0.4559
 6957TIP3    H242287   4.700   4.484  11.506  0.0877  0.4908  1.5844
 6958TIP3   OH242288   5.426   0.621  16.340  0.5690  0.2207  0.5557
 6958TIP3    H142289   5.518   0.606  16.363  0.0542 -1.9933  1.4734
 6958TIP3    H242290   5.387   0.655  16.421 -0.0896 -2.2571  1.3754
 6959TIP3   OH242291   3.793   1.875  16.474 -0.3210 -0.4831 -0.2512
 6959TIP3    H142292   3.821   1.965  16.455  2.3934 -1.3575 -0.8744
 6959TIP3    H242293   3.864   1.820  16.440 -3.4610 -3.1691 -3.2837
 6960TIP3   OH242294   0.908   3.511   3.356 -0.5041 -0.2389  0.1820
 6960TIP3    H142295   0.840   3.460   3.401 -0.3524 -0.8547 -0.2685
 6960TIP3    H242296   0.935   3.577   3.420 -1.4913 -0.0112  0.3837
 6961TIP3   OH242297   2.704   0.159  10.986  0.2975 -0.1848  0.4773
 6961TIP3    H142298   2.671   0.069  10.991  2.7723 -1.3893 -2.2910
 6961TIP3    H242299   2.778   0.160  11.047  0.1336  0.1009  0.6782
 6962TIP3   OH242300   3.582   0.195  11.402  0.0425  0.4608  0.1270
 6962TIP3    H142301   3.597   0.211  11.309 -1.6289 -0.0496 -0.2687
 6962TIP3    H242302   3.632   0.263  11.447 -0.3327  1.6547 -1.2074
 6963TIP3   OH242303   2.626   1.173   4.779  0.3258 -0.3051 -0.1941
 6963TIP3    H142304   2.697   1.236   4.773 -1.2351  1.6235  0.5836
 6963TIP3    H242305   2.581   1.178   4.695 -0.1857  0.1463  0.0952
 6964TIP3   OH242306   0.409   2.627  14.996 -1.0724  0.8598  0.2421
 6964TIP3    H142307   0.329   2.575  14.998  0.3872 -1.5212  0.8351
 6964TIP3    H242308   0.449   2.614  15.082  1.3943 -0.5426 -0.9898
 6965TIP3   OH242309   5.610   6.439   0.302 -0.8344  0.1165  0.0315
 6965TIP3    H142310   5.674   6.468   0.368  0.3202 -2.4460  0.1485
 6965TIP3    H242311   5.662   6.427   0.223 -1.4358 -0.6765 -0.2465
 6966TIP3   OH242312   2.621   6.686  11.626  0.2069 -0.3832  0.5496
 6966TIP3    H142313   2.666   6.769  11.639 -1.5183  0.5771  0.7913
 6966TIP3    H242314   2.611   6.677  11.531  0.3986 -0.3181  0.5236
 6967TIP3   OH242315   0.210   0.038   5.610  0.2486  0.3006  0.1882
 6967TIP3    H142316   0.117   0.027   5.630  0.5746  1.8120  2.9238
 6967TIP3    H242317   0.254  -0.030   5.661  0.7614  0.9953  0.7006
 6968TIP3   OH242318   6.207   3.734   6.453 -0.4537 -0.4592 -0.3158
 6968TIP3    H142319   6.248   3.652   6.427  0.8941  0.2971 -0.6563
 6968TIP3    H242320   6.205   3.730   6.549  1.8528  0.0994 -0.1780
 6969TIP3   OH242321   3.982   2.931  17.173 -0.2965 -0.0144  0.2673
 6969TIP3    H142322   4.018   3.005  17.124  0.7160 -0.9890 -0.5141
 6969TIP3    H242323   3.997   2.855  17.117 -0.7922 -0.8972  1.2900
 6970TIP3   OH242324   1.825   5.798   3.426  0.3341  0.2621 -0.1022
 6970TIP3    H142325   1.914   5.829   3.409 -0.4091  1.5360 -1.9953
 6970TIP3    H242326   1.787   5.864   3.485  0.5155 -0.1103  0.4432
 6971TIP3   OH242327   1.661   2.421   5.157 -0.3945 -0.3653 -0.4819
 6971TIP3    H142328   1.584   2.379   5.196 -0.4225  0.9823  1.0592
 6971TIP3    H242329   1.631   2.510   5.138 -0.0021 -0.6362 -2.5342
 6972TIP3   OH242330   4.565   4.660  15.983  0.5442 -0.6689 -0.9865
 6972TIP3    H142331   4.514   4.580  15.994 -0.1589 -0.1408 -0.2447
 6972TIP3    H242332   4.536   4.717  16.055 -0.5286  1.0666 -2.6862
 6973TIP3   OH242333   5.714   2.272   3.327  0.8073 -0.0573 -0.0921
 6973TIP3    H142334   5.685   2.296   3.414  0.3997  1.3380 -0.5795
 6973TIP3    H242335   5.641   2.222   3.290  0.2853  0.7981 -0.2262
 6974TIP3   OH242336   0.371   2.695   4.145 -0.0826  0.1344  0.3374
 6974TIP3    H142337   0.368   2.771   4.204 -0.1477  1.2489 -1.0288
 6974TIP3    H242338   0.451   2.707   4.094 -0.5073 -0.2607 -0.4557
 6975TIP3   OH242339   3.297   4.256   1.778  0.1860  0.4233  0.2666
 6975TIP3    H142340   3.291   4.282   1.870 -1.1977  1.5290 -0.1017
 6975TIP3    H242341   3.217   4.206   1.762  0.2178  0.5961 -0.4560
 6976TIP3   OH242342   1.515   0.751  14.641 -0.2904 -0.4984  0.1652
 6976TIP3    H142343   1.487   0.716  14.557  1.2172 -2.0541  0.2425
 6976TIP3    H242344   1.568   0.681  14.679  1.0849  1.0949  1.3276
 6977TIP3   OH242345   4.607   6.040  12.596 -0.2064  0.6404  0.5265
 6977TIP3    H142346   4.574   6.056  12.508 -2.0502  0.1617  1.0714
 6977TIP3    H242347   4.601   5.945  12.608  1.0377  0.5815  0.8104
 6978TIP3   OH242348   0.875   5.004   3.163  0.3450 -0.3397  0.3135
 6978TIP3    H142349   0.784   5.021   3.186 -0.5918 -2.7108 -1.2267
 6978TIP3    H242350   0.911   4.959   3.239 -0.7457 -2.1767 -0.2004
 6979TIP3   OH242351   5.002   3.129   0.536  0.7581 -0.1964  0.3363
 6979TIP3    H142352   4.977   3.057   0.594  2.7688 -0.7669  0.5745
 6979TIP3    H242353   4.990   3.208   0.589  0.3685 -0.5057  0.7227
 6980TIP3   OH242354   6.499   4.328   2.441 -0.2633  0.1806 -0.3252
 6980TIP3    H142355   6.478   4.254   2.384  0.2483  0.2809 -0.6534
 6980TIP3    H242356   6.430   4.392   2.423 -0.1090  0.2108 -0.8325
 6981TIP3   OH242357   2.417   2.199   2.691  0.2221 -0.2492 -0.9892
 6981TIP3    H142358   2.460   2.260   2.751  0.8040 -2.2646  0.8120
 6981TIP3    H242359   2.325   2.202   2.715  0.2567 -0.0874 -0.8748
 6982TIP3   OH242360   4.571   3.185   0.929  0.3230  0.1847  0.5998
 6982TIP3    H142361   4.619   3.170   1.011 -1.6466 -1.7227  1.5301
 6982TIP3    H242362   4.586   3.106   0.878 -0.2041  0.4306  0.0524
 6983TIP3   OH242363   1.258   6.589  13.616  0.2445  0.4941  0.1819
 6983TIP3    H142364   1.265   6.560  13.707  1.0620  0.2033  0.0349
 6983TIP3    H242365   1.169   6.624  13.609 -0.0746 -0.1466  0.8975
 6984TIP3   OH242366   1.855   5.107  15.762  0.1893  0.7796 -0.2314
 6984TIP3    H142367   1.924   5.173  15.753  1.0903 -0.1848 -0.5592
 6984TIP3    H242368   1.815   5.125  15.847  1.8566  0.4325  0.6596
 6985TIP3   OH242369   0.488   5.278  11.297 -0.1850  0.2989  0.1482
 6985TIP3    H142370   0.543   5.293  11.220 -0.3289  2.5002  0.4149
 6985TIP3    H242371   0.402   5.311  11.272 -0.3146  0.7407  1.1189
 6986TIP3   OH242372   4.924   0.997   1.621  0.2181  0.6456 -0.2206
 6986TIP3    H142373   4.938   1.058   1.694 -1.0216 -0.8816  1.3959
 6986TIP3    H242374   5.011   0.964   1.601  0.4171 -0.3521  1.9692
 6987TIP3   OH242375   1.599   5.683   0.015 -0.0006  0.2332 -0.1521
 6987TIP3    H142376   1.631   5.767  -0.017 -0.8809  0.6887  0.1197
 6987TIP3    H242377   1.575   5.635  -0.064 -0.1081  0.4991 -0.2830
 6988TIP3   OH242378   4.696   2.449  17.089  0.0152 -0.2324  0.3207
 6988TIP3    H142379   4.657   2.523  17.043 -1.6553 -1.2184  0.0218
 6988TIP3    H242380   4.781   2.480  17.119 -0.3405  1.5549 -0.4046
 6989TIP3   OH242381   3.318   1.562  10.782 -0.3055 -0.4602  0.0647
 6989TIP3    H142382   3.401   1.516  10.792  0.1129  0.3048  0.1803
 6989TIP3    H242383   3.331   1.645  10.827 -1.2729 -0.5007  0.4313
 6990TIP3   OH242384   2.334   1.623  13.190 -0.6650 -0.0882 -0.2503
 6990TIP3    H142385   2.410   1.667  13.152  0.4016 -1.5277  0.1268
 6990TIP3    H242386   2.261   1.683  13.174  0.5837  1.4668 -0.3692
 6991TIP3   OH242387   5.047   2.602  13.149  0.6160  0.3847  0.6210
 6991TIP3    H142388   4.959   2.581  13.116  1.5442 -2.3186 -0.4254
 6991TIP3    H242389   5.077   2.673  13.092 -0.6482  0.9664  0.6311
 6992TIP3   OH242390   6.663   4.854  10.466  0.0446 -0.4558 -0.1278
 6992TIP3    H142391   6.672   4.817  10.377 -0.4440 -0.0260 -0.3596
 6992TIP3    H242392   6.617   4.785  10.515  0.6976 -0.8699 -0.0925
 6993TIP3   OH242393   2.669   4.832  12.325  0.0523  0.1049 -0.1529
 6993TIP3    H142394   2.634   4.836  12.236 -0.5816  1.3015  0.1268
 6993TIP3    H242395   2.648   4.744  12.355 -0.9589  0.1443 -0.7001
 6994TIP3   OH242396   3.434   3.834  15.590 -0.8536 -0.5634 -0.3375
 6994TIP3    H142397   3.391   3.750  15.602 -1.8413 -0.3524 -2.0107
 6994TIP3    H242398   3.367   3.899  15.614 -0.2185 -0.2491  0.6078
 6995TIP3   OH242399   0.713   1.453  14.812 -0.6663  0.3965  0.1361
 6995TIP3    H142400   0.791   1.461  14.867 -1.4966  2.6450  1.0923
 6995TIP3    H242401   0.665   1.379  14.848  0.1665  0.1018  0.6508
 6996TIP3   OH242402   2.993   0.397   5.233 -0.3559  0.0683 -0.0714
 6996TIP3    H142403   3.009   0.373   5.324 -0.5663 -0.2173 -0.1079
 6996TIP3    H242404   3.007   0.316   5.184  1.2098  0.5407 -0.4773
 6997TIP3   OH242405   2.008   2.071  15.890  0.2403 -0.2507  0.3150
 6997TIP3    H142406   2.067   1.998  15.908 -1.0296 -1.5467 -0.5746
 6997TIP3    H242407   1.929   2.051  15.941  0.0937  0.8244  0.5336
 6998TIP3   OH242408   6.538   3.593  12.702  0.3237 -0.0515 -0.3969
 6998TIP3    H142409   6.479   3.666  12.683 -1.6092 -0.9005  1.8143
 6998TIP3    H242410   6.530   3.535  12.627 -0.1489  0.7720 -0.9981
 6999TIP3   OH242411   0.525   1.853   2.525  0.2627 -0.2422 -0.2278
 6999TIP3    H142412   0.435   1.859   2.556  1.3604  0.9523  3.1857
 6999TIP3    H242413   0.527   1.909   2.447 -1.8112  0.1045 -0.0992
 7000TIP3   OH242414   4.145   1.969  14.599  0.1430 -0.4108  0.7196
 7000TIP3    H142415   4.108   1.925  14.523  1.8075  0.0599 -0.4077
 7000TIP3    H242416   4.087   2.043  14.615  0.2471 -0.0052 -0.6568
 7001TIP3   OH242417   0.084   2.606   1.875  0.0662 -0.3363 -0.1796
 7001TIP3    H142418   0.065   2.598   1.782 -1.7748  1.1513  0.0189
 7001TIP3    H242419   0.147   2.678   1.880  1.0264 -1.1392 -0.3249
 7002TIP3   OH242420   0.357   2.882   3.292 -0.4061  0.1361  0.0227
 7002TIP3    H142421   0.276   2.831   3.302 -1.3064  1.6249  0.6330
 7002TIP3    H242422   0.417   2.844   3.356 -0.9238 -0.4157  0.1914
 7003TIP3   OH242423   2.594   4.050  12.506  0.1801 -0.7034 -0.5366
 7003TIP3    H142424   2.539   3.985  12.549  0.3819 -0.6699 -0.2236
 7003TIP3    H242425   2.590   4.126  12.564  0.2624 -0.5736 -0.7001
 7004TIP3   OH242426   0.391   4.808   2.370  0.6501 -0.3190  0.6165
 7004TIP3    H142427   0.409   4.774   2.282  0.3685  0.0116  0.4253
 7004TIP3    H242428   0.346   4.736   2.415  1.4029 -0.7296  0.7160
 7005TIP3   OH242429   1.080   4.578   3.364 -0.3437 -0.0971  0.3198
 7005TIP3    H142430   1.133   4.568   3.285  1.3591  0.1301  1.3873
 7005TIP3    H242431   1.071   4.672   3.374 -0.1203 -0.1132  0.6725
 7006TIP3   OH242432   3.831   4.243  11.609  0.0248  0.1727  0.4270
 7006TIP3    H142433   3.797   4.221  11.695 -0.0219 -0.8851  0.1534
 7006TIP3    H242434   3.813   4.337  11.599 -2.0827 -0.1632  0.6195
 7007TIP3   OH242435   6.467   3.695   4.483  0.3209  0.3362 -0.1062
 7007TIP3    H142436   6.507   3.625   4.430 -2.3890 -0.4185 -1.3433
 7007TIP3    H242437   6.418   3.748   4.420  0.9646  2.4164  1.0542
 7008TIP3   OH242438   4.164   0.132  14.632  0.1454  0.1103  0.0327
 7008TIP3    H142439   4.132   0.115  14.543 -0.6618 -0.1319  0.3606
 7008TIP3    H242440   4.255   0.161  14.620  0.2106 -0.4282 -0.8298
 7009TIP3   OH242441   2.684   0.346  15.067  0.5419 -0.2920  0.3210
 7009TIP3    H142442   2.681   0.355  15.162 -1.7932  1.4995  0.1804
 7009TIP3    H242443   2.604   0.299  15.045  2.1790 -2.8411 -0.6888
 7010TIP3   OH242444   2.915   3.842  15.663 -0.0469  0.0785 -0.1186
 7010TIP3    H142445   2.880   3.756  15.640  0.9928 -0.6400  0.8866
 7010TIP3    H242446   2.958   3.829  15.747 -0.7461  1.8254  0.5645
 7011TIP3   OH242447   4.161   5.451  12.215 -0.1777 -0.0573 -0.5484
 7011TIP3    H142448   4.143   5.454  12.309  0.6630  1.3170 -0.4053
 7011TIP3    H242449   4.080   5.485  12.175 -0.5977 -0.7955 -0.3497
 7012TIP3   OH242450   3.827   3.882   2.429  0.4809  0.6317  0.2478
 7012TIP3    H142451   3.777   3.858   2.351 -1.7778 -1.3714  2.1573
 7012TIP3    H242452   3.803   3.973   2.446 -0.7072  0.4252 -0.2133
 7013TIP3   OH242453   4.052   6.580   4.625  0.0834 -0.0644  0.4895
 7013TIP3    H142454   4.143   6.566   4.599  0.1756  0.9320  0.2594
 7013TIP3    H242455   4.043   6.533   4.709  0.4467 -1.2369 -0.1046
 7014TIP3   OH242456   6.053   6.717   3.096  0.0773  0.0541  0.1046
 7014TIP3    H142457   6.129   6.705   3.153 -0.0753  0.9821  0.5220
 7014TIP3    H242458   6.016   6.801   3.123 -0.8293 -0.1695 -0.4076
 7015TIP3   OH242459   4.546   1.894   0.425  0.4066  0.3507 -0.3386
 7015TIP3    H142460   4.599   1.930   0.496 -2.3485  0.4659  1.8353
 7015TIP3    H242461   4.567   1.801   0.425 -0.6803  0.0362  1.8167
 7016TIP3   OH242462   6.578   6.609   2.917  0.4807  0.5350 -1.2388
 7016TIP3    H142463   6.537   6.545   2.858  1.3441  1.5050 -2.9527
 7016TIP3    H242464   6.565   6.693   2.875  2.2281  1.1324 -0.6813
 7017TIP3   OH242465   3.173   3.382  11.969  0.0954 -0.0426 -0.3031
 7017TIP3    H142466   3.184   3.287  11.971  1.2367 -0.0370 -2.4504
 7017TIP3    H242467   3.079   3.396  11.980 -0.2927 -1.5303 -1.3994
 7018TIP3   OH242468   5.800   3.358  11.883 -0.5337  0.4057  0.6860
 7018TIP3    H142469   5.857   3.415  11.832 -1.1366 -0.6388 -1.2575
 7018TIP3    H242470   5.758   3.302  11.818 -3.0113  0.4444  2.1274
 7019TIP3   OH242471   5.635   4.947   1.868 -0.3680  0.2268 -0.6791
 7019TIP3    H142472   5.552   4.972   1.829 -0.7001  0.3730  0.1053
 7019TIP3    H242473   5.657   5.019   1.927 -1.0435 -1.0178  1.1701
 7020TIP3   OH242474   2.359   1.063  14.878 -0.7095 -0.2127 -0.4451
 7020TIP3    H142475   2.282   1.118  14.883  0.0263  0.8787 -0.7585
 7020TIP3    H242476   2.414   1.104  14.811 -0.0507 -1.2211 -0.5560
 7021TIP3   OH242477   3.201   5.534  13.482 -0.0382  0.4805 -0.5190
 7021TIP3    H142478   3.207   5.438  13.481  1.5343  0.3702  2.9458
 7021TIP3    H242479   3.201   5.560  13.390  0.4958 -2.7777 -1.5565
 7022TIP3   OH242480   3.087   5.778  15.140 -0.3517 -0.0534 -0.1195
 7022TIP3    H142481   3.068   5.762  15.047 -1.5493 -0.9799  0.2616
 7022TIP3    H242482   3.005   5.757  15.185  0.1812  0.4965  1.1457
 7023TIP3   OH242483   0.174   5.395  14.595 -0.4566  0.1281 -0.4955
 7023TIP3    H142484   0.181   5.299  14.592  0.3779  0.1919 -1.3955
 7023TIP3    H242485   0.262   5.425  14.574 -0.6655  1.0972  0.0021
 7024TIP3   OH242486   2.666   2.584  12.849 -0.5109 -0.0129 -0.5473
 7024TIP3    H142487   2.741   2.543  12.892 -0.8015  0.8896  0.9016
 7024TIP3    H242488   2.666   2.548  12.761  1.7007  0.0402 -0.6298
 7025TIP3   OH242489   6.610   2.995   4.230 -0.1752 -0.2943  0.3701
 7025TIP3    H142490   6.638   3.086   4.218 -0.6531 -0.1395  0.3898
 7025TIP3    H242491   6.532   3.002   4.285  0.0494 -0.7530  0.7516
 7026TIP3   OH242492   0.313   6.641   2.659 -0.0184 -0.3216 -0.1192
 7026TIP3    H142493   0.354   6.726   2.642 -0.8014 -0.2608 -1.9232
 7026TIP3    H242494   0.277   6.650   2.748 -0.0414  1.2130 -0.2517
 7027TIP3   OH242495   2.929   3.061  12.793  0.3748 -0.6146  0.1777
 7027TIP3    H142496   3.014   3.031  12.826  0.9828  0.5449 -0.2741
 7027TIP3    H242497   2.947   3.088  12.703 -0.7688 -1.5850 -0.3750
 7028TIP3   OH242498   3.253   4.871  14.110  0.3378 -0.6896 -0.5246
 7028TIP3    H142499   3.185   4.807  14.092  1.0565 -1.5294 -0.3297
 7028TIP3    H242500   3.256   4.926  14.031 -1.3130  0.0821 -0.0808
 7029TIP3   OH242501   0.302   2.331  15.180  0.2509 -0.0159 -0.1294
 7029TIP3    H142502   0.299   2.424  15.202 -3.4800 -0.7146  3.4277
 7029TIP3    H242503   0.362   2.293  15.244  1.7411 -0.2080 -1.5553
 7030TIP3   OH242504   5.277   1.644   5.792 -0.4940 -0.6067 -0.0431
 7030TIP3    H142505   5.206   1.601   5.743 -1.4775  1.2612 -0.3259
 7030TIP3    H242506   5.242   1.730   5.815  2.0040  0.7794 -1.0340
 7031TIP3   OH242507   5.486   5.184   4.195  0.1555 -0.1535  0.1489
 7031TIP3    H142508   5.465   5.092   4.181  0.3694 -0.1615 -0.1307
 7031TIP3    H242509   5.498   5.220   4.107 -0.0994  0.1839  0.2490
 7032TIP3   OH242510   2.568   6.098  10.875 -0.1832 -0.2601 -0.5211
 7032TIP3    H142511   2.572   6.009  10.840  0.6450 -0.3583 -0.2115
 7032TIP3    H242512   2.545   6.152  10.800 -1.3551 -0.8070 -0.5706
 7033TIP3   OH242513   2.934   1.986   4.149  0.1148 -0.1013 -0.0639
 7033TIP3    H142514   2.888   1.926   4.207 -2.2016  1.1821 -0.4328
 7033TIP3    H242515   3.013   1.939   4.123  0.0270 -1.6435  2.1974
 7034TIP3   OH242516   0.156   2.750  17.051  0.3841  0.4606  0.1347
 7034TIP3    H142517   0.222   2.700  17.098 -1.3588 -2.5267 -0.3749
 7034TIP3    H242518   0.174   2.732  16.959 -1.5938 -1.2151 -0.0000
 7035TIP3   OH242519   4.146   6.200   6.129  0.2137  0.5138 -0.6370
 7035TIP3    H142520   4.153   6.275   6.188  1.0217 -1.3254  1.7885
 7035TIP3    H242521   4.234   6.163   6.128 -0.0186 -0.0408 -2.3045
 7036TIP3   OH242522   2.573   4.105   0.360  0.0224 -0.4385 -0.9530
 7036TIP3    H142523   2.550   4.178   0.303  0.6054  0.4276 -0.1084
 7036TIP3    H242524   2.493   4.053   0.366 -1.0453  1.2293  0.0458
 7037TIP3   OH242525   0.183   5.826  14.642  0.2266 -0.9966  0.6551
 7037TIP3    H142526   0.104   5.874  14.616  0.9568 -0.5579 -0.8751
 7037TIP3    H242527   0.151   5.759  14.703 -1.2570 -0.5310  0.4359
 7038TIP3   OH242528   0.475   5.857  16.318  0.0411  0.1470 -0.2635
 7038TIP3    H142529   0.555   5.909  16.320 -1.1931  2.1380  0.3177
 7038TIP3    H242530   0.489   5.790  16.385  0.8418  1.0778  0.5415
 7039TIP3   OH242531   1.433   1.383  15.247 -0.0496 -0.0719  0.2351
 7039TIP3    H142532   1.437   1.434  15.166 -0.3675 -1.4447 -0.6707
 7039TIP3    H242533   1.521   1.391  15.284  0.4476 -0.3813 -0.8516
 7040TIP3   OH242534   1.541   6.187   0.827  0.8648 -0.2928  0.2730
 7040TIP3    H142535   1.558   6.093   0.830 -0.0398 -0.4598  0.5908
 7040TIP3    H242536   1.557   6.212   0.736 -0.1900 -1.0328 -0.1415
 7041TIP3   OH242537   2.837   6.395  16.253 -0.0455 -0.3541 -0.1817
 7041TIP3    H142538   2.756   6.430  16.216 -0.0419  0.2148  0.3231
 7041TIP3    H242539   2.808   6.341  16.327  0.0514  0.1456  0.2257
 7042TIP3   OH242540   1.844   4.229  16.939 -0.9097  0.1546 -0.2815
 7042TIP3    H142541   1.756   4.265  16.943  0.1833  2.9876  1.6655
 7042TIP3    H242542   1.845   4.158  17.004 -1.0139  2.1869  2.0654
 7043TIP3   OH242543   4.829   1.839  15.700  0.2853 -0.2881  0.0628
 7043TIP3    H142544   4.746   1.790  15.694  0.2620 -0.5258  1.8375
 7043TIP3    H242545   4.882   1.805  15.628 -0.5892 -1.2680 -0.1430
 7044TIP3   OH242546   6.224   0.672  12.670  0.0315  0.1088 -0.2823
 7044TIP3    H142547   6.207   0.581  12.645 -0.2733  0.2518 -0.6000
 7044TIP3    H242548   6.289   0.665  12.740  1.1410 -0.2961 -1.3098
 7045TIP3   OH242549   2.887   0.089  12.914 -0.3748 -0.2833 -0.0006
 7045TIP3    H142550   2.913   0.013  12.966 -1.7359  0.1192  1.3006
 7045TIP3    H242551   2.958   0.152  12.926 -0.3428 -0.4692  0.7928
 7046TIP3   OH242552   2.692   5.170   0.958  0.5849 -0.1277  0.7870
 7046TIP3    H142553   2.687   5.256   1.001  0.4097 -0.5314  1.5938
 7046TIP3    H242554   2.662   5.108   1.024 -1.4171 -0.6058 -0.4679
 7047TIP3   OH242555   4.056   2.651   5.341 -0.0797  0.3167 -0.3431
 7047TIP3    H142556   4.141   2.678   5.376 -0.0491  0.4554 -0.5217
 7047TIP3    H242557   4.013   2.733   5.317 -0.0094  0.2137 -0.8416
 7048TIP3   OH242558   4.638   2.210  15.829 -0.5210  0.0911  0.0348
 7048TIP3    H142559   4.561   2.163  15.863 -0.5637 -0.2711 -0.5427
 7048TIP3    H242560   4.675   2.253  15.906 -1.8708  1.1063  0.1677
 7049TIP3   OH242561   3.599   3.659  12.396  0.2545 -0.5694 -0.1796
 7049TIP3    H142562   3.624   3.716  12.469 -0.3718 -1.3510  0.6700
 7049TIP3    H242563   3.504   3.660  12.396  0.2230 -1.8298  0.0388
 7050TIP3   OH242564   1.102   0.112  11.363 -0.6253 -0.0988  0.2105
 7050TIP3    H142565   1.148   0.103  11.447  0.0602 -1.5812 -0.2694
 7050TIP3    H242566   1.111   0.025  11.323 -0.3361  0.7604 -1.6891
 7051TIP3   OH242567   4.462   5.797  11.324  0.4280  0.5848 -0.0112
 7051TIP3    H142568   4.470   5.819  11.231 -0.0949  0.9833  0.0334
 7051TIP3    H242569   4.412   5.869  11.362  1.6090  1.0021  0.8142
 7052TIP3   OH242570   0.797   5.077   5.383  0.0322 -0.3822 -0.1151
 7052TIP3    H142571   0.851   5.110   5.311  1.0977  0.7290  1.1312
 7052TIP3    H242572   0.745   5.006   5.344 -0.3646  0.9976 -2.2534
 7053TIP3   OH242573   1.272   4.895   1.608  0.1775  0.6267  0.0559
 7053TIP3    H142574   1.187   4.925   1.576 -0.0180 -0.3963 -0.4052
 7053TIP3    H242575   1.252   4.821   1.665  0.7817 -0.0932 -0.6248
 7054TIP3   OH242576   5.244   3.533   1.052  0.2548  0.3971 -0.0234
 7054TIP3    H142577   5.164   3.557   1.007  0.0373 -0.3197 -0.0350
 7054TIP3    H242578   5.309   3.522   0.982  0.3740  0.9885 -0.0124
 7055TIP3   OH242579   2.527   4.457   3.368 -0.1779 -0.0543 -0.2934
 7055TIP3    H142580   2.478   4.375   3.376 -0.7830  0.3355  0.0919
 7055TIP3    H242581   2.618   4.432   3.384 -0.0903 -0.9536 -1.9686
 7056TIP3   OH242582   0.803   2.282   6.363  0.3552 -0.0496 -0.0292
 7056TIP3    H142583   0.851   2.364   6.350  1.0540 -0.6313 -1.3104
 7056TIP3    H242584   0.803   2.240   6.277  0.4754 -1.6396  0.7116
 7057TIP3   OH242585   3.740   0.582  15.544 -0.6637 -0.3514  0.2479
 7057TIP3    H142586   3.691   0.594  15.463 -1.9872 -0.5537  0.9928
 7057TIP3    H242587   3.808   0.518  15.521 -1.5563 -1.0810 -0.5010
 7058TIP3   OH242588   1.096   6.193  10.969  0.1885 -0.5610  0.0204
 7058TIP3    H142589   1.104   6.205  10.875  2.5113  0.0009  0.2139
 7058TIP3    H242590   1.139   6.270  11.007  0.7751 -1.5628  1.4980
 7059TIP3   OH242591   2.833   1.771   5.210 -0.4256  0.5337  0.5202
 7059TIP3    H142592   2.823   1.691   5.260 -1.7811  1.2594  1.4844
 7059TIP3    H242593   2.831   1.841   5.276  0.9536  1.3653 -0.2714
 7060TIP3   OH242594   4.619   1.209   5.915  0.2022 -0.1873 -0.8449
 7060TIP3    H142595   4.590   1.172   5.998 -1.2232  0.5989 -0.9628
 7060TIP3    H242596   4.590   1.300   5.918  1.8892  0.3940 -1.3869
 7061TIP3   OH242597   0.680   0.008  13.302  0.2305  0.6603 -0.5102
 7061TIP3    H142598   0.589   0.034  13.318  0.3763  1.4478 -0.9127
 7061TIP3    H242599   0.686  -0.003  13.207  0.3394 -0.2586 -0.4050
 7062TIP3   OH242600   5.188   6.670  10.572 -0.6055  0.1117  1.0767
 7062TIP3    H142601   5.278   6.641  10.560  0.6473  3.8656 -0.1001
 7062TIP3    H242602   5.140   6.633  10.498  0.1548 -1.2013  1.2205
 7063TIP3   OH242603   4.476   6.502  11.576  0.0381  0.2263 -0.2789
 7063TIP3    H142604   4.565   6.477  11.552 -0.3080 -0.3972 -0.9731
 7063TIP3    H242605   4.484   6.593  11.605  0.7552  0.5013 -1.2633
 7064TIP3   OH242606   5.349   1.162  11.256  0.0816 -0.1958  0.0933
 7064TIP3    H142607   5.347   1.102  11.330 -1.1630  0.4228  0.5911
 7064TIP3    H242608   5.419   1.129  11.199  0.5158 -1.1357  1.1527
 7065TIP3   OH242609   1.441   5.221  15.907 -0.2628 -0.2474 -0.4853
 7065TIP3    H142610   1.517   5.279  15.915 -0.4781 -0.0474  0.1202
 7065TIP3    H242611   1.471   5.137  15.941 -0.8281  0.2948  1.4412
 7066TIP3   OH242612   1.461   0.599  16.479 -0.1876  0.2599  0.5744
 7066TIP3    H142613   1.390   0.648  16.520  0.1650  0.7129  0.6461
 7066TIP3    H242614   1.453   0.620  16.386 -0.9514 -0.7220  0.3938
 7067TIP3   OH242615   4.638   1.584   4.776  0.2147  0.2731 -0.0652
 7067TIP3    H142616   4.728   1.553   4.776  0.3141  0.5307  1.0942
 7067TIP3    H242617   4.614   1.590   4.868 -1.4639 -1.1742 -0.3368
 7068TIP3   OH242618   0.428   6.718   3.887 -0.4587 -0.6797 -0.5745
 7068TIP3    H142619   0.478   6.766   3.821 -1.0610 -0.7346 -1.0741
 7068TIP3    H242620   0.464   6.629   3.883  0.5290 -0.3351  0.2231
 7069TIP3   OH242621   3.953   5.815  11.845  0.4645  0.8065  0.2863
 7069TIP3    H142622   4.037   5.861  11.835  0.9668  0.0114  0.6986
 7069TIP3    H242623   3.888   5.876  11.811  0.8663  2.6795  2.5574
 7070TIP3   OH242624   2.866   5.354   5.293  0.0140 -0.4787 -0.5335
 7070TIP3    H142625   2.812   5.431   5.314 -0.9701 -1.3028  0.0536
 7070TIP3    H242626   2.939   5.359   5.355 -1.5579 -1.5392  1.5093
 7071TIP3   OH242627   2.118   5.447   2.403  0.3804  0.8824 -0.0084
 7071TIP3    H142628   2.172   5.371   2.426 -0.1844  0.8396  1.2641
 7071TIP3    H242629   2.165   5.521   2.441  0.0052  0.9448  0.3404
 7072TIP3   OH242630   6.050   3.856   0.060 -0.1309  0.2833  0.2262
 7072TIP3    H142631   6.047   3.845  -0.035 -0.7800 -0.3502  0.3115
 7072TIP3    H242632   5.958   3.862   0.086  0.0106 -0.4273  0.9117
 7073TIP3   OH242633   4.254   3.396  13.987 -0.3994 -0.3095 -0.4361
 7073TIP3    H142634   4.296   3.309  13.985 -1.3425 -0.7738 -0.7273
 7073TIP3    H242635   4.222   3.405  14.077 -1.0188 -0.6303 -0.6156
 7074TIP3   OH242636   4.209   4.786   4.667 -0.6469 -0.1226 -0.0542
 7074TIP3    H142637   4.181   4.752   4.751 -1.3528  1.1857  0.2690
 7074TIP3    H242638   4.130   4.787   4.613  0.0594 -2.3084 -1.2686
 7075TIP3   OH242639   3.009   2.151  14.187 -0.6228  0.2519  0.0203
 7075TIP3    H142640   2.914   2.161  14.188 -0.9444 -2.0693  2.4501
 7075TIP3    H242641   3.034   2.172  14.097 -3.4178  0.7547 -0.7372
 7076TIP3   OH242642   1.770   4.502   5.542  0.2372 -0.0124  0.6730
 7076TIP3    H142643   1.736   4.456   5.618  0.5666 -1.0198  0.2263
 7076TIP3    H242644   1.826   4.438   5.497 -0.3809  0.3678 -0.7109
 7077TIP3   OH242645   1.351   4.386  16.877 -0.5771 -0.4874 -0.2558
 7077TIP3    H142646   1.302   4.407  16.797  1.1043  0.8687 -1.0051
 7077TIP3    H242647   1.285   4.352  16.937 -2.5182  1.6133 -1.0453
 7078TIP3   OH242648   0.721   4.480  11.400  0.9232 -0.1247  0.3328
 7078TIP3    H142649   0.755   4.431  11.475 -0.9690 -0.4191  1.0675
 7078TIP3    H242650   0.750   4.570  11.416  1.6084 -0.4043  0.7359
 7079TIP3   OH242651   4.847   6.124  15.610  0.5281 -0.0794 -0.4115
 7079TIP3    H142652   4.877   6.156  15.695  0.6937  1.8866 -1.1628
 7079TIP3    H242653   4.926   6.116  15.557  0.2743  0.1982 -0.8421
 7080TIP3   OH242654   3.706   6.080   1.087 -0.2365 -0.0657  0.1485
 7080TIP3    H142655   3.737   6.054   1.000 -0.1651  3.1495 -0.8876
 7080TIP3    H242656   3.753   6.021   1.147  2.0694 -0.3792 -1.8026
 7081TIP3   OH242657   1.687   1.943   5.175 -0.1981  0.0951 -0.0319
 7081TIP3    H142658   1.727   1.856   5.171  1.5843  0.7511  1.8731
 7081TIP3    H242659   1.622   1.937   5.245 -0.5139  0.1621 -0.3119
 7082TIP3   OH242660   2.184   0.156  16.608 -0.2283 -0.0402  0.2168
 7082TIP3    H142661   2.109   0.177  16.552  0.5789  1.3652 -0.3884
 7082TIP3    H242662   2.148   0.098  16.675 -1.4607 -0.8426 -1.0917
 7083TIP3   OH242663   6.503   6.711  13.996  0.4661  0.5009 -0.1930
 7083TIP3    H142664   6.551   6.703  13.914 -0.3635  2.2745 -0.8795
 7083TIP3    H242665   6.414   6.737  13.971  0.4412  2.0219  1.2686
 7084TIP3   OH242666   4.890   2.787   4.542  0.3932  0.0900 -0.6554
 7084TIP3    H142667   4.916   2.745   4.624 -0.4490 -0.4337 -0.6452
 7084TIP3    H242668   4.857   2.716   4.488  1.5902  0.3330 -1.7349
 7085TIP3   OH242669   5.147   1.120   1.170  0.5185 -0.0436 -0.1562
 7085TIP3    H142670   5.086   1.051   1.147 -0.1836 -0.5939  2.9965
 7085TIP3    H242671   5.092   1.193   1.197  1.2203 -0.0922  1.4842
 7086TIP3   OH242672   4.714   6.111   0.338 -0.2858 -0.3661  0.0941
 7086TIP3    H142673   4.737   6.062   0.416  4.3353 -0.2650 -0.9433
 7086TIP3    H242674   4.703   6.045   0.270  1.6462 -0.2755 -0.3617
 7087TIP3   OH242675   2.215   4.504   2.402 -0.0588  0.3252  0.0374
 7087TIP3    H142676   2.291   4.474   2.452 -0.2369  1.1876  0.8451
 7087TIP3    H242677   2.253   4.544   2.323  0.3268  0.6771  0.3987
 7088TIP3   OH242678   4.744   1.316  15.805  0.2735 -0.1056 -0.3669
 7088TIP3    H142679   4.722   1.228  15.773 -0.1753 -0.2055  0.2180
 7088TIP3    H242680   4.693   1.326  15.885  0.0600  0.8221 -0.6114
 7089TIP3   OH242681   4.940   1.997   5.613 -0.0065  0.4020  0.2914
 7089TIP3    H142682   5.033   2.002   5.638 -0.0143  1.3478  0.1703
 7089TIP3    H242683   4.895   1.969   5.692  0.3688  0.0988  0.3970
 7090TIP3   OH242684   5.754   3.873  14.565 -0.7703  0.1904  0.0452
 7090TIP3    H142685   5.732   3.802  14.505 -1.0359  1.0978 -0.9447
 7090TIP3    H242686   5.849   3.864  14.578 -0.4949  0.6679 -1.4334
 7091TIP3   OH242687   4.697   5.680   2.138 -0.0546 -0.2070 -0.6882
 7091TIP3    H142688   4.649   5.612   2.090 -0.3991 -1.7771  1.6981
 7091TIP3    H242689   4.654   5.683   2.224  1.6687  1.1670  0.1850
 7092TIP3   OH242690   0.479   0.589  13.186  0.2511 -0.0908  0.1522
 7092TIP3    H142691   0.566   0.629  13.188 -0.2094  0.9316  0.1372
 7092TIP3    H242692   0.434   0.623  13.263 -0.7549  0.8459 -0.8072
 7093TIP3   OH242693   6.177   1.177  15.918  0.1145  0.0533  0.1356
 7093TIP3    H142694   6.196   1.172  16.011  0.4885  1.1380  0.1402
 7093TIP3    H242695   6.128   1.097  15.898 -0.6036  0.1481  1.4036
 7094TIP3   OH242696   6.394   3.408  15.921  0.1590 -0.2665  0.1083
 7094TIP3    H142697   6.377   3.473  15.989  0.7330  1.4426 -1.3109
 7094TIP3    H242698   6.311   3.399  15.874  0.3473  0.2191 -0.3247
 7095TIP3   OH242699   1.217   0.177   1.079 -0.0388 -0.0172  0.4251
 7095TIP3    H142700   1.139   0.201   1.129 -0.4513 -1.3498  0.4769
 7095TIP3    H242701   1.239   0.255   1.029 -1.1176  0.5398  0.7875
 7096TIP3   OH242702   1.927   3.124   0.972  0.1685 -0.2735 -0.6729
 7096TIP3    H142703   2.006   3.072   0.981  0.8209  0.9066  0.6869
 7096TIP3    H242704   1.876   3.104   1.051 -0.0945  0.2846 -0.6976
 7097TIP3   OH242705   0.290   4.258   5.411 -0.1854  0.2590 -0.1407
 7097TIP3    H142706   0.334   4.324   5.464 -0.7518  0.6401 -0.1325
 7097TIP3    H242707   0.357   4.227   5.350  0.0412  0.9799 -0.2662
 7098TIP3   OH242708   5.528   1.327  16.124 -0.0787 -0.0573 -0.6524
 7098TIP3    H142709   5.602   1.299  16.178 -0.0548  0.9779 -0.1333
 7098TIP3    H242710   5.527   1.264  16.051  0.8889 -0.4911 -0.3137
 7099TIP3   OH242711   5.892   0.495  16.585  0.4686 -0.3636  0.3050
 7099TIP3    H142712   5.874   0.430  16.517 -0.5419 -1.0095  1.1492
 7099TIP3    H242713   5.891   0.444  16.667 -0.3940  0.7213  0.9859
 7100TIP3   OH242714   2.829   1.773   3.452  0.0137  0.0396 -0.1557
 7100TIP3    H142715   2.759   1.809   3.507 -0.2005  1.8558 -1.5361
 7100TIP3    H242716   2.789   1.698   3.408 -0.4913 -0.0563  0.4531
 7101TIP3   OH242717   5.516   1.938   5.626 -0.7353  0.3719  0.0973
 7101TIP3    H142718   5.483   1.874   5.564  0.5163  0.2505 -0.4651
 7101TIP3    H242719   5.562   2.003   5.573 -0.2566  0.6466  0.8194
 7102TIP3   OH242720   5.296   5.093  11.415  0.5663 -0.3381  0.2448
 7102TIP3    H142721   5.290   5.084  11.319  1.3959 -0.9225  0.2356
 7102TIP3    H242722   5.247   5.018  11.449  0.3932 -0.2119  0.2695
 7103TIP3   OH242723   5.749   5.659   0.056  0.1472 -0.1090 -0.0195
 7103TIP3    H142724   5.723   5.741   0.099  1.7929  0.7194 -0.4962
 7103TIP3    H242725   5.732   5.675  -0.037  3.5005  1.0829 -0.5812
 7104TIP3   OH242726   2.839   4.657   3.283  0.8220 -0.0887  0.2132
 7104TIP3    H142727   2.888   4.618   3.355 -0.3857  0.3871  1.3214
 7104TIP3    H242728   2.903   4.712   3.238  1.8036 -1.0646  0.3753
 7105TIP3   OH242729   5.770   0.345  11.178 -0.0664 -0.2168  0.2599
 7105TIP3    H142730   5.776   0.261  11.222 -0.4117  0.1689  1.0608
 7105TIP3    H242731   5.809   0.330  11.091  2.0640 -0.5923  1.2200
 7106TIP3   OH242732   2.497   2.474   3.826 -0.6935  0.2232  0.0481
 7106TIP3    H142733   2.429   2.459   3.760  0.1328 -0.3545 -0.7009
 7106TIP3    H242734   2.488   2.566   3.849 -1.9671  0.0643  0.2425
 7107TIP3   OH242735   3.906   6.107   3.796 -0.6798  0.1330  0.9680
 7107TIP3    H142736   3.854   6.168   3.848 -2.3781  0.5429 -1.0531
 7107TIP3    H242737   3.848   6.033   3.782  0.1168 -0.4173  0.5032
 7108TIP3   OH242738   3.863   4.939  12.165 -0.1839  0.3059  0.6230
 7108TIP3    H142739   3.930   4.971  12.104 -0.3907 -3.0203 -1.6245
 7108TIP3    H242740   3.848   5.012  12.224  2.5558  2.5813 -1.1997
 7109TIP3   OH242741   2.338   1.081   4.780 -0.3638  0.5583 -0.1350
 7109TIP3    H142742   2.248   1.052   4.788 -0.6276  1.0269 -1.1857
 7109TIP3    H242743   2.356   1.078   4.686 -0.1944  3.0622 -0.2543
 7110TIP3   OH242744   2.383   6.209  11.899  0.3715  0.0359  0.7889
 7110TIP3    H142745   2.402   6.131  11.846  1.0476  0.7963 -0.1158
 7110TIP3    H242746   2.409   6.183  11.988  0.2793 -0.8826  0.5617
 7111TIP3   OH242747   0.057   2.318   0.348 -0.0982  0.0710 -0.0115
 7111TIP3    H142748   0.069   2.299   0.441  0.1282 -0.1737 -0.0898
 7111TIP3    H242749   0.140   2.359   0.322  0.1105 -0.5159 -0.2736
 7112TIP3   OH242750   4.729   0.507  15.266  0.1569  0.0269  0.4006
 7112TIP3    H142751   4.671   0.436  15.293  0.4966  0.2219  1.7007
 7112TIP3    H242752   4.814   0.485  15.305  1.4186 -1.0039 -2.6059
 7113TIP3   OH242753   6.504   3.831   0.847 -0.0885 -0.4029 -0.0110
 7113TIP3    H142754   6.433   3.887   0.813  0.9870  0.5330 -0.8159
 7113TIP3    H242755   6.526   3.870   0.931 -0.3968 -0.5828  0.1560
 7114TIP3   OH242756   6.484   3.960  15.235  0.3588 -0.6275 -0.4920
 7114TIP3    H142757   6.435   4.009  15.169 -0.7169 -2.2196 -0.9233
 7114TIP3    H242758   6.422   3.948  15.307  0.8071 -0.8263 -0.1313
 7115TIP3   OH242759   1.568   5.877   5.203 -0.2064 -0.1114 -0.0522
 7115TIP3    H142760   1.587   5.970   5.190  1.2925 -0.4132 -0.1168
 7115TIP3    H242761   1.628   5.849   5.271 -0.1497 -1.2054 -0.5308
 7116TIP3   OH242762   6.577   2.398   1.749 -0.3791 -0.4635  0.1548
 7116TIP3    H142763   6.641   2.329   1.765 -0.7538 -0.5240  1.4922
 7116TIP3    H242764   6.617   2.451   1.680  0.3633 -1.4305 -0.1885
 7117TIP3   OH242765   2.586   6.771  15.376  0.1672  0.1708  0.5575
 7117TIP3    H142766   2.540   6.686  15.377  0.1573  0.1498  2.7598
 7117TIP3    H242767   2.678   6.748  15.383  0.1688  0.3173  1.0768
 7118TIP3   OH242768   0.636   3.165   5.696  0.3185  0.5757  0.3830
 7118TIP3    H142769   0.709   3.112   5.727  0.9498  1.1208 -0.1502
 7118TIP3    H242770   0.558   3.123   5.734  0.9876  0.6900  1.9460
 7119TIP3   OH242771   3.613   5.848   2.751  0.4811  0.3592 -0.1964
 7119TIP3    H142772   3.674   5.832   2.823  0.4192  1.2946  0.0785
 7119TIP3    H242773   3.633   5.779   2.688 -0.5781 -1.4955  1.3912
 7120TIP3   OH242774   3.408   1.382   3.059  0.6528  0.2582 -0.3211
 7120TIP3    H142775   3.438   1.468   3.030  1.0449  0.3299  0.2746
 7120TIP3    H242776   3.485   1.326   3.049  0.8168  0.3017  0.6296
 7121TIP3   OH242777   1.624   3.543   2.609 -0.3059 -0.1527 -0.1755
 7121TIP3    H142778   1.709   3.497   2.610 -0.1972  0.0196  2.1802
 7121TIP3    H242779   1.575   3.506   2.682 -1.7352  0.7579 -0.6316
 7122TIP3   OH242780   3.900   4.111  15.787 -0.2004  0.3012  0.3658
 7122TIP3    H142781   3.934   4.022  15.789  2.0516  1.0998  0.8917
 7122TIP3    H242782   3.855   4.123  15.871 -0.1047 -0.1751  0.4820
 7123TIP3   OH242783   2.555   4.975  16.972  0.7097  0.0862 -0.2728
 7123TIP3    H142784   2.579   5.050  16.917 -0.6761 -0.1789 -1.3016
 7123TIP3    H242785   2.633   4.920  16.972  0.9072  0.3206 -1.6455
 7124TIP3   OH242786   2.437   3.472   5.783  0.0471  0.4242  0.2506
 7124TIP3    H142787   2.408   3.553   5.826 -0.9467 -0.5392  1.4525
 7124TIP3    H242788   2.533   3.478   5.783  0.0068  1.2118  1.0880
 7125TIP3   OH242789   4.479   2.208   3.811  0.2951 -1.0401  0.3328
 7125TIP3    H142790   4.466   2.114   3.828  2.3690 -1.4922 -0.3346
 7125TIP3    H242791   4.548   2.212   3.745  1.3085  0.9729  1.3906
 7126TIP3   OH242792   3.661   3.521   1.507  0.0453  0.6025  0.2629
 7126TIP3    H142793   3.626   3.561   1.587  1.3003 -0.0384  1.1766
 7126TIP3    H242794   3.587   3.473   1.470 -0.8665  1.8385  0.3917
 7127TIP3   OH242795   2.979   1.087  12.663 -0.4538 -0.0803 -0.0888
 7127TIP3    H142796   2.908   1.060  12.721 -1.6168  1.3247 -0.8005
 7127TIP3    H242797   3.058   1.079  12.717 -1.0515 -2.1821  0.5517
 7128TIP3   OH242798   6.572   5.510   3.735  0.1628  0.3894 -0.0379
 7128TIP3    H142799   6.643   5.514   3.671  1.0236  0.3868  0.8935
 7128TIP3    H242800   6.591   5.581   3.797  1.4638 -1.8192  2.3032
 7129TIP3   OH242801   1.723   3.968   4.475 -0.1859 -0.0227  0.1159
 7129TIP3    H142802   1.806   3.977   4.520 -0.3369 -0.8034  0.5595
 7129TIP3    H242803   1.677   4.050   4.493  1.0362  1.0423 -1.3271
 7130TIP3   OH242804   4.583   2.923  14.679  0.2150 -0.4989 -0.3051
 7130TIP3    H142805   4.591   2.971  14.596 -0.5830  0.7465  0.3090
 7130TIP3    H242806   4.665   2.874  14.686  1.0163  0.6829 -1.0328
 7131TIP3   OH242807   6.660   4.427   2.700 -0.7169  0.3343  0.3169
 7131TIP3    H142808   6.618   4.376   2.770  0.7428  0.7621  1.5772
 7131TIP3    H242809   6.624   4.392   2.619 -2.9079  0.1859  1.2727
 7132TIP3   OH242810   0.539   3.518   0.767 -0.7715  0.1014  0.3497
 7132TIP3    H142811   0.538   3.542   0.859  0.1997  0.9424  0.1519
 7132TIP3    H242812   0.556   3.599   0.720  3.5532 -0.9001 -0.2801
 7133TIP3   OH242813   3.141   6.715   5.310  0.0421  0.5841  0.5365
 7133TIP3    H142814   3.190   6.772   5.370 -0.2931  1.8962 -0.4149
 7133TIP3    H242815   3.049   6.738   5.325 -0.3490 -1.6037  2.0370
 7134TIP3   OH242816   3.437   0.174  11.020 -0.5624 -0.0298 -0.1887
 7134TIP3    H142817   3.439   0.263  10.985 -1.2054 -0.6941 -2.0395
 7134TIP3    H242818   3.517   0.133  10.986  0.5325  0.2155  1.8969
 7135TIP3   OH242819   4.907   2.108   5.358 -0.5959 -0.3847  0.4932
 7135TIP3    H142820   4.847   2.178   5.382 -0.0956 -0.9036  3.6884
 7135TIP3    H242821   4.962   2.095   5.435  2.1943 -1.4359 -1.4800
 7136TIP3   OH242822   4.355   1.854  12.719 -0.2520  0.5488  0.3447
 7136TIP3    H142823   4.379   1.945  12.700  1.0155  0.1128 -0.2251
 7136TIP3    H242824   4.269   1.843  12.677 -1.3451  2.0173  2.0623
 7137TIP3   OH242825   3.946   0.758   2.820 -0.4415  0.6305 -0.1123
 7137TIP3    H142826   4.003   0.828   2.788 -0.1135  1.0710  1.3766
 7137TIP3    H242827   3.999   0.679   2.814  0.6301  1.1424  1.9359
 7138TIP3   OH242828   1.258   3.638  15.085 -0.5488 -0.2706  0.1177
 7138TIP3    H142829   1.224   3.584  15.013  0.2947 -1.1271  0.3403
 7138TIP3    H242830   1.316   3.579  15.134 -0.6409  0.4722  1.1485
 7139TIP3   OH242831   6.526   0.743   3.224 -0.5542 -0.3804 -0.7229
 7139TIP3    H142832   6.568   0.668   3.184  0.0243 -0.8219  0.6391
 7139TIP3    H242833   6.444   0.754   3.175  0.0301 -0.9832 -1.8660
 7140TIP3   OH242834   0.094   1.251   0.458 -0.1935  0.2691 -0.0385
 7140TIP3    H142835   0.129   1.232   0.545  0.5907 -0.0225 -0.4082
 7140TIP3    H242836   0.150   1.201   0.398 -0.7411  0.4420 -0.7067
 7141TIP3   OH242837   3.715   6.139  11.354 -0.7076 -0.3615  0.3731
 7141TIP3    H142838   3.763   6.146  11.436 -3.4777 -1.4456  2.2289
 7141TIP3    H242839   3.672   6.224  11.344  0.3156  0.0868 -0.5101
 7142TIP3   OH242840   2.523   1.108   0.737  0.5099  0.0285 -0.1489
 7142TIP3    H142841   2.589   1.106   0.668 -0.6926  1.0998 -1.3914
 7142TIP3    H242842   2.466   1.034   0.718  0.5348 -0.0464  0.0667
 7143TIP3   OH242843   2.992   6.358   4.378  0.4997 -0.3831  0.0869
 7143TIP3    H142844   3.026   6.269   4.371  2.4909  0.3025  0.4771
 7143TIP3    H242845   2.934   6.355   4.454  0.5157 -1.3541  0.0744
 7144TIP3   OH242846   2.920   1.745  12.594  0.1402  0.0479 -0.2151
 7144TIP3    H142847   2.983   1.723  12.662 -0.7080 -1.3472  0.1654
 7144TIP3    H242848   2.947   1.693  12.518 -2.1329 -2.9054  0.8215
 7145TIP3   OH242849   1.678   1.177   0.006  0.4478 -0.8623 -1.0563
 7145TIP3    H142850   1.657   1.154   0.096 -2.3049 -2.7342 -2.0380
 7145TIP3    H242851   1.686   1.272   0.006  0.5255 -0.8359  1.1391
 7146TIP3   OH242852   0.528   2.132   0.925 -0.1826  0.3037 -1.1007
 7146TIP3    H142853   0.561   2.082   1.000  0.3514 -0.4836 -1.8422
 7146TIP3    H242854   0.581   2.211   0.924 -0.1093  0.2620 -0.7269
 7147TIP3   OH242855   2.827   1.064  10.214 -0.0680  0.0592 -0.5254
 7147TIP3    H142856   2.909   1.018  10.196 -0.4460 -0.1051 -1.9559
 7147TIP3    H242857   2.837   1.149  10.171 -0.6698  0.0054 -0.7896
 7148TIP3   OH242858   4.643   4.813   0.641  0.0674 -0.0427 -1.1555
 7148TIP3    H142859   4.721   4.757   0.649  0.5908  0.7343 -0.5805
 7148TIP3    H242860   4.575   4.767   0.690  1.0580  0.7600  1.1256
 7149TIP3   OH242861   4.693   0.693  12.816 -0.0894 -0.4665  0.0492
 7149TIP3    H142862   4.715   0.633  12.745  0.1954  0.4635 -0.6655
 7149TIP3    H242863   4.627   0.647  12.867 -2.5081 -0.0206 -2.4560
 7150TIP3   OH242864   2.937   5.016   4.322  0.0832  0.3701 -0.1952
 7150TIP3    H142865   2.953   5.052   4.235  2.6385 -2.0998 -0.8809
 7150TIP3    H242866   2.916   5.092   4.376  2.0838  2.4572 -2.1679
 7151TIP3   OH242867   4.212   0.890  13.716 -0.1300  0.2360 -0.4963
 7151TIP3    H142868   4.211   0.834  13.639  0.6865 -0.2898 -0.1349
 7151TIP3    H242869   4.131   0.869  13.763  0.4844 -1.1390 -0.0157
 7152TIP3   OH242870   3.666   0.807  12.202  0.0042  0.0188  0.6632
 7152TIP3    H142871   3.628   0.852  12.127 -0.4286 -0.8960  0.3317
 7152TIP3    H242872   3.759   0.831  12.200 -0.1461  0.5865  0.2766
 7153TIP3   OH242873   1.258   3.806   6.430 -0.4540 -0.0053  0.5457
 7153TIP3    H142874   1.240   3.778   6.340 -1.2787 -0.6961  0.9104
 7153TIP3    H242875   1.281   3.726   6.476  0.7137  0.4587  0.7899
 7154TIP3   OH242876   2.252   3.130  11.002  0.2364 -0.3564 -0.0725
 7154TIP3    H142877   2.279   3.193  10.934 -0.5935  0.8569  0.6725
 7154TIP3    H242878   2.172   3.168  11.038  1.2624 -0.3555  2.3597
 7155TIP3   OH242879   0.583   5.791   5.166 -0.5726 -0.1115 -0.7148
 7155TIP3    H142880   0.601   5.875   5.208  0.3689 -0.1221 -1.0776
 7155TIP3    H242881   0.591   5.810   5.072 -1.4434 -0.3654 -0.8541
 7156TIP3   OH242882   2.389   0.521  15.283  0.4718  0.0319 -0.3437
 7156TIP3    H142883   2.295   0.531  15.268  0.4068  1.9138  0.9919
 7156TIP3    H242884   2.430   0.581  15.221  0.5184  2.3881  1.7817
 7157TIP3   OH242885   6.404   0.824  13.583  0.2162 -0.1555  0.3788
 7157TIP3    H142886   6.314   0.802  13.560 -0.0231  1.6951 -0.7062
 7157TIP3    H242887   6.454   0.808  13.503  0.3483  1.2844  0.1403
 7158TIP3   OH242888   3.966   1.592   1.553  0.1400 -0.4946  0.7202
 7158TIP3    H142889   3.985   1.679   1.587 -3.0371  0.3343  0.7355
 7158TIP3    H242890   3.922   1.608   1.469 -0.2414 -2.1068  0.5682
 7159TIP3   OH242891   2.132   5.340  14.835 -0.2409 -0.0567  0.4738
 7159TIP3    H142892   2.226   5.323  14.844 -0.4162 -0.9350  0.6747
 7159TIP3    H242893   2.117   5.418  14.889  0.1732 -0.5712  1.3610
 7160TIP3   OH242894   5.269   4.041   2.999  0.1265  0.1841 -0.4864
 7160TIP3    H142895   5.194   4.093   3.026 -0.0505 -0.0603 -0.5059
 7160TIP3    H242896   5.232   3.973   2.943  0.4285  0.4026 -0.9588
 7161TIP3   OH242897   5.623   3.216   1.892 -0.8107  0.0499  0.3142
 7161TIP3    H142898   5.692   3.193   1.829  0.5439  0.4350  1.5931
 7161TIP3    H242899   5.606   3.135   1.940  1.8518  0.8396  2.8343
 7162TIP3   OH242900   3.135   0.583   3.144 -0.3013 -0.8312 -0.6195
 7162TIP3    H142901   3.192   0.601   3.070  0.0918 -0.6909 -0.2844
 7162TIP3    H242902   3.098   0.669   3.167 -2.0596 -1.1559 -1.9565
 7163TIP3   OH242903   3.072   6.602  16.224  0.8550  0.1260 -0.2805
 7163TIP3    H142904   3.092   6.589  16.131  1.7573 -0.0129 -0.0697
 7163TIP3    H242905   3.028   6.521  16.250  0.4471  0.2302 -0.6198
 7164TIP3   OH242906   4.606   3.020  17.122  0.4194  0.5249 -0.2011
 7164TIP3    H142907   4.531   3.080  17.130  0.1444  0.2654 -0.8306
 7164TIP3    H242908   4.634   3.028  17.032  1.1770  0.6378  0.0433
 7165TIP3   OH242909   2.979   3.773  14.184  0.5923 -0.0453  0.2636
 7165TIP3    H142910   2.916   3.832  14.227 -0.0514 -0.2555 -0.3734
 7165TIP3    H242911   2.924   3.713  14.132  1.3349 -0.0750 -0.5031
 7166TIP3   OH242912   5.876   4.119   5.432  0.1985 -0.1726 -0.2978
 7166TIP3    H142913   5.885   4.190   5.495 -1.5776  0.7010 -0.9541
 7166TIP3    H242914   5.904   4.041   5.479  1.5833  0.8410  0.6433
 7167TIP3   OH242915   2.548   4.662  16.973  0.4045  0.0502 -0.6594
 7167TIP3    H142916   2.637   4.691  16.952  0.2030  2.4289  1.3107
 7167TIP3    H242917   2.496   4.685  16.897  0.9778  1.3441 -0.6785
 7168TIP3   OH242918   6.382   0.400   0.505  0.6928  0.3881 -0.4232
 7168TIP3    H142919   6.427   0.413   0.588  1.4546 -0.7801 -0.6148
 7168TIP3    H242920   6.429   0.457   0.443 -0.2069  1.6482  0.0364
 7169TIP3   OH242921   3.892   0.527   1.963  0.1613  0.3735 -0.2312
 7169TIP3    H142922   3.946   0.526   1.884 -0.4198 -1.0906 -0.6479
 7169TIP3    H242923   3.955   0.531   2.035  0.8981 -1.6566 -0.6955
 7170TIP3   OH242924   2.969   5.046  16.861  0.1376 -0.2361  0.1895
 7170TIP3    H142925   2.910   4.979  16.826 -0.1122 -0.4781  1.0413
 7170TIP3    H242926   3.055   5.022  16.828  0.1510 -1.3489  0.9961
 7171TIP3   OH242927   0.716   5.345   0.911 -0.4630  0.4393  0.7360
 7171TIP3    H142928   0.644   5.352   0.849 -0.5366  1.5693  0.9286
 7171TIP3    H242929   0.674   5.334   0.996 -0.3596 -1.4473  0.5831
 7172TIP3   OH242930   4.424   2.902  15.712 -0.2328 -0.1116 -0.0091
 7172TIP3    H142931   4.341   2.867  15.680  1.0704  0.0351 -4.1387
 7172TIP3    H242932   4.486   2.830  15.701  0.8459  0.8575 -0.4879
 7173TIP3   OH242933   2.962   3.549  16.914 -1.0313 -0.1749 -0.0674
 7173TIP3    H142934   3.046   3.515  16.883 -0.3911 -0.3300  1.7285
 7173TIP3    H242935   2.933   3.608  16.844 -0.4236 -1.6236 -1.6209
 7174TIP3   OH242936   6.276   0.959  15.462  0.0451  0.1836 -0.5449
 7174TIP3    H142937   6.231   0.957  15.378 -0.1002 -0.3748 -0.4620
 7174TIP3    H242938   6.265   1.049  15.493 -0.9314  0.0954 -0.5752
 7175TIP3   OH242939   5.095   4.584   5.675  0.1217 -0.2778 -0.1531
 7175TIP3    H142940   5.133   4.619   5.755 -1.1259  0.9027 -0.0418
 7175TIP3    H242941   5.002   4.608   5.679  0.1566  0.4372 -2.2545
 7176TIP3   OH242942   1.591   4.941  12.494  0.5437 -0.6919  0.5908
 7176TIP3    H142943   1.535   4.892  12.433  0.3937 -1.6996  1.5153
 7176TIP3    H242944   1.530   4.992  12.546  0.7323  1.0017 -0.7601
 7177TIP3   OH242945   0.704   1.329  13.391  0.9582 -0.3453 -0.1079
 7177TIP3    H142946   0.707   1.245  13.345 -0.7357 -0.1858 -0.5724
 7177TIP3    H242947   0.726   1.394  13.325 -1.0154 -0.1597 -0.6534
 7178TIP3   OH242948   0.182   0.979  12.975 -0.1635 -0.4994 -0.4287
 7178TIP3    H142949   0.174   0.953  13.067 -1.0239  1.0736 -0.0265
 7178TIP3    H242950   0.205   1.072  12.977 -1.1841 -0.1770 -1.7977
 7179TIP3   OH242951   6.262   3.273   0.584 -0.5850  0.9253  1.0059
 7179TIP3    H142952   6.304   3.202   0.633 -0.9583  0.7536  1.0824
 7179TIP3    H242953   6.322   3.347   0.593  0.8281  0.0878 -0.7285
 7180TIP3   OH242954   1.207   3.678   4.013 -0.0783  0.1514  0.0954
 7180TIP3    H142955   1.235   3.634   4.093 -0.1189  2.1018  1.2461
 7180TIP3    H242956   1.287   3.684   3.960  0.1366 -0.4176  0.3442
 7181TIP3   OH242957   6.428   3.589  14.050  0.8951 -0.2076  0.0710
 7181TIP3    H142958   6.397   3.598  13.959  0.9931  0.9136  0.1270
 7181TIP3    H242959   6.351   3.560  14.099 -1.1176  4.9699  0.6848
 7182TIP3   OH242960   2.504   0.938   1.698  0.0132  0.7543  0.5675
 7182TIP3    H142961   2.436   1.006   1.704  0.4227  1.2223  0.0331
 7182TIP3    H242962   2.460   0.864   1.658 -0.4101  0.7406  1.0473
 7183TIP3   OH242963   4.953   5.589   2.117 -0.0726  0.1656  0.3061
 7183TIP3    H142964   5.009   5.610   2.043  0.4830 -0.1471  0.6321
 7183TIP3    H242965   4.871   5.637   2.100 -1.2169 -2.3786 -2.1106
 7184TIP3   OH242966   4.279   0.897  12.538 -0.1040  0.2797 -0.3506
 7184TIP3    H142967   4.309   0.986  12.559  0.7545  0.2343 -1.3014
 7184TIP3    H242968   4.196   0.887  12.585  0.2480  1.2512  0.5094
 7185TIP3   OH242969   1.289   1.684   2.086 -0.1842  0.4726 -0.1238
 7185TIP3    H142970   1.384   1.669   2.086 -0.0136  1.4407  0.8264
 7185TIP3    H242971   1.252   1.601   2.055  0.9228 -0.2226  0.3437
 7186TIP3   OH242972   2.916   0.274   4.042 -0.1436 -0.5302  0.2250
 7186TIP3    H142973   2.824   0.279   4.068  0.0834 -0.3551  1.0217
 7186TIP3    H242974   2.956   0.352   4.080  0.0953  0.0351 -1.1581
 7187TIP3   OH242975   3.045   2.069   0.880  0.3586  0.0997  0.8013
 7187TIP3    H142976   3.014   2.121   0.805  0.0872 -1.8516 -0.5159
 7187TIP3    H242977   3.120   2.118   0.914  0.9076  0.7193 -1.1797
 7188TIP3   OH242978   1.589   5.961  13.897  0.2953  0.4186 -0.0535
 7188TIP3    H142979   1.589   6.012  13.978 -0.4280 -0.0453  0.2514
 7188TIP3    H242980   1.674   5.978  13.858  1.1516 -0.2766  1.3971
 7189TIP3   OH242981   1.947   3.824  16.756 -0.2690 -0.0052  0.4813
 7189TIP3    H142982   2.036   3.797  16.731 -0.5863  1.4735 -2.7411
 7189TIP3    H242983   1.890   3.755  16.721 -0.4706 -0.5773  1.8945
 7190TIP3   OH242984   2.933   5.442   6.577 -0.1441 -0.2022  0.4577
 7190TIP3    H142985   2.948   5.536   6.570  0.5241 -0.2089  1.4953
 7190TIP3    H242986   2.846   5.435   6.617  0.9342  0.0838  3.0589
 7191TIP3   OH242987   0.512   5.008  13.007 -0.0245  0.3121 -0.4845
 7191TIP3    H142988   0.513   5.093  13.051  0.1161  0.7497 -1.3090
 7191TIP3    H242989   0.456   5.021  12.931 -1.7211 -0.9329  0.4957
 7192TIP3   OH242990   6.318   0.049   5.421 -0.2110 -0.0047 -0.1889
 7192TIP3    H142991   6.236   0.073   5.464  0.7573  0.1300  1.6698
 7192TIP3    H242992   6.359   0.133   5.399 -0.6727 -0.0690 -1.4359
 7193TIP3   OH242993   0.625   6.202  14.361 -0.2419 -0.0868  0.2524
 7193TIP3    H142994   0.612   6.280  14.307 -2.8046 -1.1887 -0.9224
 7193TIP3    H242995   0.580   6.222  14.443  3.6244  1.5749  2.2302
 7194TIP3   OH242996   0.185   6.595   2.878  0.0060 -0.1774 -0.2422
 7194TIP3    H142997   0.145   6.644   2.950  0.0263 -0.4599 -0.0363
 7194TIP3    H242998   0.114   6.542   2.842 -0.4345  1.2726 -1.5813
 7195TIP3   OH242999   3.877   5.289   0.711 -0.0126  0.1450  0.2312
 7195TIP3    H143000   3.944   5.347   0.747  0.0256 -0.3051  0.9204
 7195TIP3    H243001   3.794   5.333   0.729  0.1055  0.9808 -1.1414
 7196TIP3   OH243002   5.723   5.879  15.210 -0.3632 -0.0430  0.0318
 7196TIP3    H143003   5.652   5.929  15.170 -0.8685 -1.1145 -0.4376
 7196TIP3    H243004   5.744   5.811  15.146 -0.4056 -1.0892  1.0962
 7197TIP3   OH243005   0.567   4.434   3.763 -0.2769  0.1372  0.9507
 7197TIP3    H143006   0.581   4.344   3.734 -0.1808  0.7253 -0.9554
 7197TIP3    H243007   0.631   4.447   3.833 -0.2423 -1.2455  1.1940
 7198TIP3   OH243008   3.046   6.599  13.696  0.6158 -0.0298  0.5402
 7198TIP3    H143009   3.137   6.572  13.705  1.0075  0.6969 -0.9653
 7198TIP3    H243010   2.996   6.518  13.708  1.5713 -0.7987 -0.4713
 7199TIP3   OH243011   2.309   1.096   4.139 -0.1520 -0.1194  0.5107
 7199TIP3    H143012   2.376   1.105   4.208  0.2356 -1.4972  0.3499
 7199TIP3    H243013   2.229   1.077   4.187 -0.3010  0.8783  0.6722
 7200TIP3   OH243014   5.772   5.381  10.896  0.6913 -0.5880 -0.0946
 7200TIP3    H143015   5.833   5.319  10.856  0.9714  0.4803 -1.3866
 7200TIP3    H243016   5.777   5.459  10.840 -0.4659  0.1993  0.8593
 7201TIP3   OH243017   3.911   1.882   6.002 -0.0317  0.1736 -0.6759
 7201TIP3    H143018   3.926   1.902   5.910 -1.8930  0.3218 -0.9928
 7201TIP3    H243019   3.903   1.968   6.044 -0.8688  0.1221 -0.7097
 7202TIP3   OH243020   3.742   4.272  15.064 -0.5753 -0.1638  0.4019
 7202TIP3    H143021   3.818   4.309  15.108 -1.5441  0.5973  1.4853
 7202TIP3    H243022   3.704   4.345  15.014 -0.2661 -0.6871 -0.6335
 7203TIP3   OH243023   5.946   1.527   4.252  0.1842  0.6209  0.4749
 7203TIP3    H143024   5.980   1.560   4.335  0.4865  1.7110 -0.0637
 7203TIP3    H243025   5.851   1.540   4.258  0.0688 -0.4639  1.1368
 7204TIP3   OH243026   2.727   4.255   6.059 -0.7376 -0.2357 -0.1222
 7204TIP3    H143027   2.707   4.162   6.060 -1.4735 -0.1643  2.9354
 7204TIP3    H243028   2.661   4.295   6.115  1.1195  1.7229  0.8422
 7205TIP3   OH243029   5.925   4.497  16.223 -0.3050 -0.4247  0.2115
 7205TIP3    H143030   5.911   4.402  16.221  1.5762 -0.7407  0.5897
 7205TIP3    H243031   5.974   4.515  16.142 -2.1902  0.5434 -0.7912
 7206TIP3   OH243032   5.667   0.133   5.203 -0.0213  0.1191 -0.2852
 7206TIP3    H143033   5.652   0.121   5.297  1.2484  1.2863  0.0988
 7206TIP3    H243034   5.674   0.044   5.169 -1.7172 -0.3538  0.4791
 7207TIP3   OH243035   6.698   6.646  15.339 -0.2445  0.1300  0.4091
 7207TIP3    H143036   6.682   6.558  15.304 -0.8621  1.1253 -2.0347
 7207TIP3    H243037   6.611   6.680  15.358 -0.1287  0.7321 -0.1007
 7208TIP3   OH243038   2.750   1.345  14.867  0.0587 -0.5072 -0.6800
 7208TIP3    H143039   2.841   1.373  14.865  0.2960 -1.2737 -2.6018
 7208TIP3    H243040   2.728   1.343  14.960  0.9763  2.8145 -0.2586
 7209TIP3   OH243041   6.271   1.886   4.676  0.8913 -0.0293  0.3636
 7209TIP3    H143042   6.184   1.910   4.709  0.4577 -0.6277 -0.3269
 7209TIP3    H243043   6.289   1.950   4.607  0.5046 -0.5890 -0.2633
 7210TIP3   OH243044   2.372   3.959   5.351  0.2272 -0.0880  0.2770
 7210TIP3    H143045   2.277   3.971   5.347  0.1988 -0.6251 -0.8441
 7210TIP3    H243046   2.401   4.025   5.415 -0.7886  0.7275 -0.0667
 7211TIP3   OH243047   0.906   4.149  13.710 -0.0012 -0.1545 -0.0280
 7211TIP3    H143048   0.925   4.110  13.625 -0.8970  2.1789 -1.4160
 7211TIP3    H243049   0.818   4.187  13.699  0.4005  1.3218  1.4875
 7212TIP3   OH243050   6.628   6.233   3.360  0.0953  0.2219  0.3936
 7212TIP3    H143051   6.564   6.235   3.431  1.1083  0.4180  1.3283
 7212TIP3    H243052   6.585   6.279   3.288 -0.5664  0.9242  1.2154
 7213TIP3   OH243053   0.458   4.587  16.778 -0.3821 -0.3663 -0.5390
 7213TIP3    H143054   0.475   4.672  16.736 -0.4881  0.5018  1.0921
 7213TIP3    H243055   0.522   4.528  16.739  1.1425  0.9861 -0.2117
 7214TIP3   OH243056   5.445   5.687   3.102 -0.1787  0.5824 -0.4530
 7214TIP3    H143057   5.476   5.673   3.013  0.7436  3.5913 -0.7021
 7214TIP3    H243058   5.521   5.668   3.157 -0.6763 -1.0287 -0.2713
 7215TIP3   OH243059   0.647   1.065  11.026  0.3962  0.0196 -0.0909
 7215TIP3    H143060   0.678   1.139  10.974  0.2590 -0.0604 -0.2912
 7215TIP3    H243061   0.715   1.051  11.091  0.6109  0.0713 -0.3010
 7216TIP3   OH243062   5.020   0.410  11.867  0.2910  0.0186 -0.1962
 7216TIP3    H143063   4.981   0.498  11.872  0.9190  0.3456 -0.8996
 7216TIP3    H243064   4.948   0.354  11.839 -0.8095 -0.1862  2.6493
 7217TIP3   OH243065   2.649   2.891  11.426  0.2130  0.0494  0.3448
 7217TIP3    H143066   2.560   2.920  11.410 -0.0852 -0.4473  1.0683
 7217TIP3    H243067   2.692   2.898  11.341 -0.2779  1.0880  0.1656
 7218TIP3   OH243068   3.783   3.548   0.026 -0.0482  0.1516 -0.4572
 7218TIP3    H143069   3.837   3.525   0.102 -0.5843  0.1748 -0.0654
 7218TIP3    H243070   3.697   3.569   0.063 -0.8456 -1.5664 -1.2322
 7219TIP3   OH243071   2.528   3.076   4.868 -0.3436 -0.1215 -0.2119
 7219TIP3    H143072   2.541   3.070   4.963  0.1481 -3.4644 -0.3581
 7219TIP3    H243073   2.440   3.113   4.859 -0.2347  0.6654  1.5096
 7220TIP3   OH243074   0.785   5.402  14.800 -0.1798  0.6431 -0.5251
 7220TIP3    H143075   0.707   5.453  14.824 -0.9831 -1.2632  1.2457
 7220TIP3    H243076   0.859   5.460  14.820 -1.0723  1.4664  0.5118
 7221TIP3   OH243077   1.457   4.892   5.468 -0.5031 -0.4769 -0.0134
 7221TIP3    H143078   1.475   4.932   5.553 -0.7111  0.2336 -0.2947
 7221TIP3    H243079   1.370   4.925   5.444  0.6811  1.6551 -1.8011
 7222TIP3   OH243080   5.243   0.156   2.086  0.2022 -0.1644  0.4920
 7222TIP3    H143081   5.262   0.073   2.043 -0.3659  0.7941 -1.7507
 7222TIP3    H243082   5.320   0.174   2.140  0.0728 -2.3938  1.5154
 7223TIP3   OH243083   1.063   6.560   2.580  0.5436  0.1857  0.2672
 7223TIP3    H143084   1.090   6.474   2.550  0.0407  0.3572 -0.7416
 7223TIP3    H243085   1.128   6.620   2.543  0.3883  0.3223  0.2140
 7224TIP3   OH243086   2.444   5.615   6.742  0.3376 -0.2935 -0.5280
 7224TIP3    H143087   2.458   5.704   6.711 -2.8037 -0.3587 -2.6211
 7224TIP3    H243088   2.530   5.574   6.736  1.8106  2.4474  0.2230
 7225TIP3   OH243089   1.628   2.894  12.609 -0.5166 -0.4420 -0.5738
 7225TIP3    H143090   1.612   2.813  12.561 -0.7868 -0.9357  0.3146
 7225TIP3    H243091   1.653   2.865  12.697 -0.5152  0.4384 -0.2718
 7226TIP3   OH243092   6.532   1.392   4.708  0.8123  0.3918  0.1411
 7226TIP3    H143093   6.494   1.452   4.644 -0.3467  0.3635  0.7763
 7226TIP3    H243094   6.458   1.361   4.759  1.5838 -0.4163  0.8137
 7227TIP3   OH243095   5.022   0.624   0.380  0.0577 -0.0951 -0.0836
 7227TIP3    H143096   5.054   0.707   0.417  1.9920 -0.6669 -0.3663
 7227TIP3    H243097   4.951   0.650   0.322  0.0271  1.2793  0.5296
 7228TIP3   OH243098   2.693   0.532  11.912 -0.5073  0.0380 -0.0704
 7228TIP3    H143099   2.675   0.593  11.841 -0.3833 -1.1033 -1.1240
 7228TIP3    H243100   2.668   0.446  11.877  1.4862 -0.8288  0.5070
 7229TIP3   OH243101   3.922   0.276   2.289  0.1669  0.7744  0.3140
 7229TIP3    H143102   4.007   0.244   2.319 -0.7902 -2.1792  0.2834
 7229TIP3    H243103   3.920   0.255   2.196 -1.0937 -0.6594  0.6066
 7230TIP3   OH243104   1.453   6.045  13.520 -0.1496 -0.0529 -0.3073
 7230TIP3    H143105   1.407   6.086  13.447  0.1441  3.1527  1.1144
 7230TIP3    H243106   1.395   5.975  13.549 -2.6705  1.7746 -0.6001
 7231TIP3   OH243107   2.381   1.189   5.354  0.5278  0.0942  0.3617
 7231TIP3    H143108   2.403   1.154   5.440 -1.4455 -0.5172  0.6462
 7231TIP3    H243109   2.327   1.266   5.373 -0.0649 -0.1477 -0.3390
 7232TIP3   OH243110   4.632   2.184   1.822 -0.3283  0.9475 -0.7045
 7232TIP3    H143111   4.650   2.096   1.853  0.1102  0.6965 -1.6351
 7232TIP3    H243112   4.642   2.240   1.899  0.7192  0.3457 -0.3978
 7233TIP3   OH243113   2.124   3.733   2.565 -0.0830  0.1832  0.4911
 7233TIP3    H143114   2.212   3.702   2.588  0.2686  0.3902 -0.4771
 7233TIP3    H243115   2.083   3.658   2.521  0.5248  0.8055 -1.2497
 7234TIP3   OH243116   6.468   1.080   2.666  0.0851 -0.6248  0.0194
 7234TIP3    H143117   6.505   1.018   2.602  1.1979 -0.1941  0.2272
 7234TIP3    H243118   6.509   1.056   2.749  0.8294  0.6173  0.0331
 7235TIP3   OH243119   6.705   5.323  12.718  0.2277 -0.3931  0.5205
 7235TIP3    H143120   6.651   5.344  12.794  0.3370  0.6028  0.3406
 7235TIP3    H243121   6.642   5.298  12.650 -0.0263  0.6341  0.3516
 7236TIP3   OH243122   4.646   6.388   6.586 -0.4445  0.0355  0.2314
 7236TIP3    H143123   4.738   6.409   6.603 -0.2341 -0.7865  0.1900
 7236TIP3    H243124   4.649   6.301   6.546 -1.3163 -0.4558  1.2080
 7237TIP3   OH243125   6.088   5.883   3.631  0.2897 -0.1062 -0.5036
 7237TIP3    H143126   6.169   5.848   3.596 -0.4372 -2.1001 -0.3218
 7237TIP3    H243127   6.061   5.949   3.568  1.0872 -0.7563 -1.5581
 7238TIP3   OH243128   1.763   6.596  15.822 -0.2004  0.5628  0.3491
 7238TIP3    H143129   1.823   6.647  15.877 -0.3460  2.1636 -0.8844
 7238TIP3    H243130   1.818   6.531  15.780  0.3248  0.7774  0.6909
 7239TIP3   OH243131   1.690   2.361  15.810 -0.2067 -0.2414  0.5092
 7239TIP3    H143132   1.667   2.454  15.806 -0.1170 -0.2077  0.7414
 7239TIP3    H243133   1.624   2.323  15.869 -0.2668 -0.3330  0.3833
 7240TIP3   OH243134   1.286   3.705   6.170  0.1022 -0.0573 -0.0226
 7240TIP3    H143135   1.218   3.674   6.110 -0.9467  1.8814  0.0871
 7240TIP3    H243136   1.366   3.664   6.137 -0.6362 -0.0464 -2.0002
 7241TIP3   OH243137   1.100   3.549   3.791  0.0630 -0.2366 -0.0315
 7241TIP3    H143138   1.144   3.599   3.861  1.6006  0.2766 -1.3006
 7241TIP3    H243139   1.171   3.526   3.730 -1.1319 -1.2458 -1.0922
 7242TIP3   OH243140   2.511   0.470   0.972  0.4937 -0.1012  0.0616
 7242TIP3    H143141   2.527   0.471   0.878  2.1306 -2.3396  0.2381
 7242TIP3    H243142   2.566   0.540   1.007 -0.8586  1.3974 -0.6728
 7243TIP3   OH243143   3.195   4.531   3.608 -0.5834  0.0324  0.3780
 7243TIP3    H143144   3.200   4.579   3.525  0.7633  0.7386  0.8380
 7243TIP3    H243145   3.274   4.478   3.611 -0.3725  0.3677  1.4133
 7244TIP3   OH243146   2.629   2.430  14.569  0.1120  0.7322  0.4209
 7244TIP3    H143147   2.554   2.424  14.509  1.2517  0.6907 -1.0769
 7244TIP3    H243148   2.694   2.480  14.519  0.7326  1.6231  2.0693
 7245TIP3   OH243149   3.882   5.281   2.229 -0.0063 -0.8227 -0.0860
 7245TIP3    H143150   3.847   5.363   2.193 -0.0353  0.0798  1.8639
 7245TIP3    H243151   3.880   5.220   2.155 -2.2709  0.2337 -0.9997
 7246TIP3   OH243152   2.335   6.432  16.464  0.1249  0.0642 -0.5955
 7246TIP3    H143153   2.417   6.457  16.507 -1.3015  2.1012  1.2163
 7246TIP3    H243154   2.308   6.510  16.416 -1.1654 -0.2423 -0.4184
 7247TIP3   OH243155   6.329   3.160  14.165  0.0354 -0.2514  0.0338
 7247TIP3    H143156   6.291   3.231  14.216  1.8204  1.6765 -1.1443
 7247TIP3    H243157   6.368   3.102  14.229  0.9895  1.3515  0.9651
 7248TIP3   OH243158   3.517   5.143  16.334  0.0596 -0.4138 -0.0558
 7248TIP3    H143159   3.503   5.072  16.272  1.4173 -0.2640 -0.5737
 7248TIP3    H243160   3.561   5.211  16.283 -3.4439  1.9455 -0.2677
 7249TIP3   OH243161   0.087   4.787  11.492  0.9570 -0.5115 -0.2874
 7249TIP3    H143162   0.127   4.860  11.539 -0.6939  0.4960 -0.3628
 7249TIP3    H243163   0.161   4.733  11.464  2.2005  0.9160  0.1147
 7250TIP3   OH243164   3.400   4.575  16.684 -0.1830  0.8113 -0.0113
 7250TIP3    H143165   3.473   4.608  16.736  1.0745  0.9380 -1.7469
 7250TIP3    H243166   3.376   4.648  16.627  1.1346 -0.3998 -2.3041
 7251TIP3   OH243167   1.185   5.269  10.931 -0.0322 -0.6155 -0.7400
 7251TIP3    H143168   1.206   5.265  11.025  1.1844 -0.2018 -0.9715
 7251TIP3    H243169   1.261   5.313  10.892 -1.3957  1.0612 -1.6582
 7252TIP3   OH243170   6.176   5.326   1.032 -0.2587  0.9377  0.1298
 7252TIP3    H143171   6.265   5.343   1.060  0.5573 -1.3821 -0.8444
 7252TIP3    H243172   6.121   5.353   1.106  1.4610 -0.6538  2.0919
 7253TIP3   OH243173   4.596   1.174   0.232  0.0338 -0.1439 -0.6062
 7253TIP3    H143174   4.631   1.086   0.236  0.2016 -0.2029 -2.4942
 7253TIP3    H243175   4.589   1.193   0.138 -1.7161  1.1620 -0.2621
 7254TIP3   OH243176   2.867   5.395  11.264 -0.3085  0.4045 -0.0607
 7254TIP3    H143177   2.847   5.398  11.358  0.5058  1.8299  0.1002
 7254TIP3    H243178   2.943   5.453  11.254 -0.7364  0.7356 -1.6853
 7255TIP3   OH243179   5.273   3.882  15.977 -0.9306  0.0225  0.8310
 7255TIP3    H143180   5.302   3.949  16.038  0.8077 -0.5855  0.7237
 7255TIP3    H243181   5.353   3.856  15.930 -1.5094 -2.2196  0.9817
 7256TIP3   OH243182   1.447   5.482  13.848  0.0854  0.3998 -0.4381
 7256TIP3    H143183   1.493   5.471  13.932 -1.3100 -0.3847  0.2669
 7256TIP3    H243184   1.416   5.572  13.849  2.2706  1.2255 -1.3131
 7257TIP3   OH243185   4.976   2.578  16.511  0.2411  0.3475  0.2729
 7257TIP3    H143186   4.917   2.577  16.587  1.6266 -1.0745  1.3752
 7257TIP3    H243187   5.005   2.488  16.501 -0.4258  0.3332 -2.4291
 7258TIP3   OH243188   1.859   0.836  16.618  0.4476  0.1856  0.1361
 7258TIP3    H143189   1.813   0.833  16.701 -1.0647  0.1117 -0.6742
 7258TIP3    H243190   1.924   0.765  16.624 -0.4829 -0.6327  0.7729
 7259TIP3   OH243191   0.754   0.829   4.277 -0.1146 -0.3293 -0.3437
 7259TIP3    H143192   0.797   0.903   4.234  1.2627 -0.9943 -0.1628
 7259TIP3    H243193   0.821   0.792   4.334 -1.6291 -0.0130  1.7390
 7260TIP3   OH243194   0.095   1.738  12.323 -0.8642  0.1100  0.0042
 7260TIP3    H143195   0.017   1.716  12.375 -1.0577 -0.6969 -0.6021
 7260TIP3    H243196   0.090   1.679  12.247  0.2789  0.1243 -0.0943
 7261TIP3   OH243197   5.551   1.828  12.994 -0.5109 -0.5101  0.2541
 7261TIP3    H143198   5.645   1.815  13.012 -0.1734  2.1158  0.7644
 7261TIP3    H243199   5.549   1.899  12.930 -2.1731  1.5294  2.4070
 7262TIP3   OH243200   0.553   0.475  12.555  0.8090  0.2645 -0.1194
 7262TIP3    H143201   0.597   0.438  12.478 -0.8075  0.9226 -1.4088
 7262TIP3    H243202   0.557   0.569  12.542 -2.2362  0.3603 -1.1098
 7263TIP3   OH243203   5.221   3.005   1.322  0.0059  0.2228  0.0452
 7263TIP3    H143204   5.169   2.962   1.254 -0.4430 -0.0925  0.5824
 7263TIP3    H243205   5.248   2.934   1.380 -2.9448  0.8547  2.4448
 7264TIP3   OH243206   0.512   5.738  15.980 -0.0032  0.6735  0.6907
 7264TIP3    H143207   0.494   5.826  16.014 -1.4808  1.0306 -0.8688
 7264TIP3    H243208   0.593   5.711  16.024  0.3503  2.6988  1.3821
 7265TIP3   OH243209   4.595   2.907  13.103  0.4163  0.0146 -0.1539
 7265TIP3    H143210   4.516   2.924  13.153  0.1490 -1.0221 -0.2009
 7265TIP3    H243211   4.602   2.811  13.100  2.5000  0.0328  1.1946
 7266TIP3   OH243212   5.020   6.490  11.922 -0.2074 -0.0520 -0.3486
 7266TIP3    H143213   5.032   6.543  11.844 -0.6984  0.6345  0.0313
 7266TIP3    H243214   4.925   6.486  11.934 -0.1327 -0.0727  0.2680
 7267TIP3   OH243215   4.918   2.503   1.766  0.3830  0.4105  0.5800
 7267TIP3    H143216   4.838   2.499   1.715  0.3255  0.4448  0.6674
 7267TIP3    H243217   4.975   2.437   1.727 -0.2528 -0.7188  1.5032
 7268TIP3   OH243218   3.576   6.523  15.897  0.2999 -0.4436  0.0654
 7268TIP3    H143219   3.660   6.528  15.943  0.0498 -0.6641  0.5574
 7268TIP3    H243220   3.585   6.447  15.840  1.0386  0.5229 -1.1443
 7269TIP3   OH243221   2.537   3.513   4.597 -0.3464 -0.4951 -0.3414
 7269TIP3    H143222   2.614   3.549   4.553 -0.5187 -2.8655 -2.9005
 7269TIP3    H243223   2.569   3.437   4.645 -0.6460  0.3526  1.2447
 7270TIP3   OH243224   2.299   4.712  11.192  0.1778  0.5168 -0.3146
 7270TIP3    H143225   2.320   4.701  11.285  1.4073  2.5470 -0.2963
 7270TIP3    H243226   2.210   4.747  11.192 -0.4830 -1.0681 -0.0250
 7271TIP3   OH243227   3.458   5.488  14.079 -0.1240 -0.1020 -0.4594
 7271TIP3    H143228   3.531   5.467  14.021  0.3834 -3.3582  1.1259
 7271TIP3    H243229   3.497   5.541  14.149  0.1917  0.1606 -0.8330
 7272TIP3   OH243230   5.817   2.786   4.963 -0.1406  0.2434  0.1624
 7272TIP3    H143231   5.868   2.707   4.945  2.4290  1.4275  1.6065
 7272TIP3    H243232   5.740   2.779   4.908  0.6736 -2.6012 -0.7569
 7273TIP3   OH243233   4.470   4.898  11.272 -0.4390  0.1541  0.0914
 7273TIP3    H143234   4.493   4.830  11.209 -1.3054 -0.9336  0.9099
 7273TIP3    H243235   4.497   4.980  11.230  2.0629 -0.7680 -0.2898
 7274TIP3   OH243236   2.044   5.154  11.125  0.1522 -0.1274  0.1439
 7274TIP3    H143237   2.019   5.233  11.078  1.3315  0.2553  0.1212
 7274TIP3    H243238   2.034   5.176  11.217  0.9174  0.2146  0.1511
 7275TIP3   OH243239   6.092   2.623   3.103  0.3701  0.8816 -0.1967
 7275TIP3    H143240   6.157   2.555   3.085 -0.2443  0.2299  0.0238
 7275TIP3    H243241   6.104   2.687   3.033  0.2402  0.0144 -1.0273
 7276TIP3   OH243242   0.062   2.947   3.863  0.1412 -0.3816  0.0978
 7276TIP3    H143243   0.143   2.981   3.901  0.8710 -0.8431 -0.9750
 7276TIP3    H243244   0.078   2.947   3.768 -1.4464  0.3272 -0.1994
 7277TIP3   OH243245   0.261   5.854  15.521 -0.2151 -0.1804 -0.0244
 7277TIP3    H143246   0.343   5.813  15.546  0.6509  0.5578 -1.5311
 7277TIP3    H243247   0.193   5.799  15.562  0.9976 -0.9789  0.9689
 7278TIP3   OH243248   0.525   3.657   2.646 -0.4730 -0.1358  0.2695
 7278TIP3    H143249   0.566   3.675   2.562 -1.8104  1.2274 -0.1364
 7278TIP3    H243250   0.582   3.700   2.710 -1.2445  1.8528 -0.3003
 7279TIP3   OH243251   4.477   0.407  15.897  0.6309 -0.1494  0.3238
 7279TIP3    H143252   4.544   0.338  15.890 -0.0459 -0.6843 -1.2994
 7279TIP3    H243253   4.425   0.381  15.973  3.1480  1.1559  2.7139
 7280TIP3   OH243254   4.566   3.750  12.832  0.2301 -0.2448 -0.2678
 7280TIP3    H143255   4.490   3.734  12.889  0.7897  3.7272  1.9568
 7280TIP3    H243256   4.529   3.794  12.755  0.0355 -0.9359 -0.5826
 7281TIP3   OH243257   0.270   5.252  16.349  0.1477  0.3393 -0.5248
 7281TIP3    H143258   0.267   5.243  16.254 -0.0017 -0.5575 -0.4419
 7281TIP3    H243259   0.178   5.259  16.375  0.2525  3.0208 -0.6408
 7282TIP3   OH243260   0.451   3.938   2.422 -0.1350 -0.3387  0.3440
 7282TIP3    H143261   0.431   4.025   2.388 -1.2274 -0.2350  1.1884
 7282TIP3    H243262   0.367   3.906   2.455  0.7077 -0.7023  2.2796
 7283TIP3   OH243263   3.324   3.645  16.655 -0.1213 -0.2540  0.3409
 7283TIP3    H143264   3.353   3.677  16.741 -0.1735  0.8074 -0.0234
 7283TIP3    H243265   3.401   3.600  16.619 -0.8866 -3.2413  2.0784
 7284TIP3   OH243266   4.442   4.431  14.308  0.7053  0.3961  0.3548
 7284TIP3    H143267   4.532   4.419  14.338  0.7985  1.6841  0.6147
 7284TIP3    H243268   4.448   4.498  14.240 -0.3507  2.4734  2.1830
 7285TIP3   OH243269   6.086   4.879   0.549  0.3930  0.1862 -0.7506
 7285TIP3    H143270   6.131   4.933   0.484  0.8100  2.3970  1.2134
 7285TIP3    H243271   6.008   4.930   0.572  0.6622 -0.1366  1.0108
 7286TIP3   OH243272   6.280   1.552   1.590 -0.0238 -0.2082  0.1017
 7286TIP3    H143273   6.249   1.486   1.651  0.0774 -0.6241 -0.2913
 7286TIP3    H243274   6.375   1.548   1.596 -0.0261  0.3266  0.5240
 7287TIP3   OH243275   1.299   2.088   0.421  0.6473 -0.4523  0.4466
 7287TIP3    H143276   1.331   2.136   0.497 -0.5038  0.7175  0.2263
 7287TIP3    H243277   1.205   2.077   0.436  0.2992  0.2271 -1.0003
 7288TIP3   OH243278   5.796   2.680  14.403  0.3344 -0.2436 -0.2752
 7288TIP3    H143279   5.805   2.767  14.441  0.1211  0.4474 -1.7350
 7288TIP3    H243280   5.716   2.645  14.443 -1.6174  1.6662 -2.1976
 7289TIP3   OH243281   4.733   0.725  13.838 -0.4420 -0.3764 -0.3293
 7289TIP3    H143282   4.826   0.747  13.834 -0.7514  1.5723  1.4079
 7289TIP3    H243283   4.688   0.804  13.807 -1.5246 -0.3263  1.2451
 7290TIP3   OH243284   4.237   3.195   5.074 -0.1708 -0.1040  0.1007
 7290TIP3    H143285   4.205   3.282   5.098  0.8854  0.4507 -0.4155
 7290TIP3    H243286   4.234   3.194   4.978  0.0434 -0.5547  0.0963
 7291TIP3   OH243287   1.435   5.439  11.319 -1.1891 -0.5023  0.8268
 7291TIP3    H143288   1.351   5.485  11.317 -0.8210  0.1838 -0.8267
 7291TIP3    H243289   1.415   5.353  11.281 -1.1841 -0.3774  0.5338
 7292TIP3   OH243290   3.651   1.250   2.996  0.3065  0.1096  0.2909
 7292TIP3    H143291   3.731   1.201   3.017  0.3177  0.0398  0.0799
 7292TIP3    H243292   3.653   1.261   2.901 -0.0572 -0.1013  0.2583
 7293TIP3   OH243293   4.841   4.212  16.967  0.4637 -0.1554  0.1177
 7293TIP3    H143294   4.804   4.295  16.937  2.6831  1.0970  0.5923
 7293TIP3    H243295   4.863   4.165  16.887 -2.8473 -1.4028 -0.2206
 7294TIP3   OH243296   4.541   5.174  15.146 -0.3456  0.3138 -0.2695
 7294TIP3    H143297   4.486   5.244  15.182 -0.0834  0.9936 -1.1708
 7294TIP3    H243298   4.513   5.095  15.193 -0.8811  0.9589  0.5192
 7295TIP3   OH243299   2.155   3.045  16.728  0.3448  0.1457 -0.0038
 7295TIP3    H143300   2.194   3.130  16.712 -1.2968  0.9291 -0.0396
 7295TIP3    H243301   2.099   3.057  16.805  1.1577 -1.2710  0.8634
 7296TIP3   OH243302   1.099   5.265   2.657  0.0352 -0.1284 -0.2462
 7296TIP3    H143303   1.126   5.258   2.565  2.1519 -0.2529  0.3213
 7296TIP3    H243304   1.004   5.252   2.655  0.3296 -3.0549 -2.1058
 7297TIP3   OH243305   1.531   3.178  15.441 -0.8007 -0.1450 -0.0826
 7297TIP3    H143306   1.445   3.146  15.469 -1.1326  0.2162 -0.6575
 7297TIP3    H243307   1.547   3.134  15.358 -1.2059  1.0410 -0.8153
 7298TIP3   OH243308   4.847   3.822   2.041  0.4315  0.1305 -0.1846
 7298TIP3    H143309   4.923   3.805   1.985  0.7378  0.4413  0.1358
 7298TIP3    H243310   4.787   3.750   2.022  1.3323 -0.8226  0.4826
 7299TIP3   OH243311   5.605   0.917   2.363  0.0229  0.1096 -0.0024
 7299TIP3    H143312   5.605   1.002   2.319  1.6432  0.2028  0.1285
 7299TIP3    H243313   5.607   0.853   2.291 -1.6412  0.1392 -0.1107
 7300TIP3   OH243314   1.091   2.123   1.009 -0.2702 -0.3250 -0.1842
 7300TIP3    H143315   1.036   2.120   1.087  0.5854  0.9357  0.5133
 7300TIP3    H243316   1.133   2.037   1.006 -0.6269 -0.5323  0.5173
 7301TIP3   OH243317   1.422   2.289  12.452 -0.0817 -0.2434 -0.0891
 7301TIP3    H143318   1.338   2.331  12.433  0.3587  0.8523  0.2847
 7301TIP3    H243319   1.399   2.202  12.482 -1.0115 -0.4448 -1.2850
 7302TIP3   OH243320   5.410   2.151   4.492  0.1026  0.1922  0.4745
 7302TIP3    H143321   5.406   2.246   4.481  0.8093  0.2794  0.9408
 7302TIP3    H243322   5.319   2.123   4.478  0.4802  0.4175 -3.7874
 7303TIP3   OH243323   0.053   1.754   2.240  0.5513  0.9091 -0.3493
 7303TIP3    H143324   0.070   1.729   2.330  1.0038 -0.1245 -0.7115
 7303TIP3    H243325  -0.042   1.748   2.232  0.6449 -1.2238 -0.5352
 7304TIP3   OH243326   6.352   0.211   3.243 -0.0041 -0.3573  0.1907
 7304TIP3    H143327   6.441   0.231   3.215 -0.1111  1.8602  1.2418
 7304TIP3    H243328   6.301   0.210   3.161  1.1441 -3.0629 -0.5826
 7305TIP3   OH243329   4.968   3.828   4.181  0.5364 -0.3918 -0.3517
 7305TIP3    H143330   4.977   3.816   4.087 -2.0246 -0.6243 -0.6520
 7305TIP3    H243331   4.949   3.921   4.192  1.3890 -0.2524  0.0113
 7306TIP3   OH243332   5.637   1.918  14.431  0.3936  0.7374 -0.1009
 7306TIP3    H143333   5.702   1.952  14.492 -0.7317  1.4659  0.7313
 7306TIP3    H243334   5.560   1.974  14.444 -0.1915  0.3145 -1.5202
 7307TIP3   OH243335   5.658   1.150   2.762  0.3513 -0.5902 -0.3470
 7307TIP3    H143336   5.695   1.063   2.776  0.8940 -0.0254  2.1989
 7307TIP3    H243337   5.733   1.209   2.767 -0.4712  0.3611  2.4769
 7308TIP3   OH243338   3.297   4.321   2.082 -0.2171  0.3749 -0.6512
 7308TIP3    H143339   3.255   4.394   2.126  2.1285  1.1094  0.5290
 7308TIP3    H243340   3.249   4.244   2.113 -1.1505  1.1988  0.0243
 7309TIP3   OH243341   1.906   4.291  11.732 -0.4850 -0.6123  0.0103
 7309TIP3    H143342   1.855   4.246  11.799 -0.3578 -0.5742  0.1310
 7309TIP3    H243343   1.876   4.251  11.649 -1.0010 -0.3078  0.0460
 7310TIP3   OH243344   0.013   6.232  13.703  0.4243  0.1878  0.3956
 7310TIP3    H143345  -0.069   6.227  13.752 -1.0914  0.7725 -1.9262
 7310TIP3    H243346   0.058   6.309  13.738  0.0863 -0.2153  1.7796
 7311TIP3   OH243347   1.419   5.309   3.202  0.7450  0.1864 -0.5887
 7311TIP3    H143348   1.437   5.260   3.282 -0.9384  0.9800  0.3508
 7311TIP3    H243349   1.373   5.247   3.145 -0.9213  0.4701  0.3873
 7312TIP3   OH243350   4.343   6.657   4.599 -0.4789 -0.0315  0.4225
 7312TIP3    H143351   4.349   6.728   4.664  1.4311  0.3310 -0.0800
 7312TIP3    H243352   4.434   6.627   4.589 -0.6894  0.0034 -2.1561
 7313TIP3   OH243353   2.640   2.638   1.154  0.3628  0.0980 -0.0981
 7313TIP3    H143354   2.698   2.584   1.207  0.0435  0.1220  0.2752
 7313TIP3    H243355   2.673   2.628   1.065 -0.1363 -1.2850 -0.1506
 7314TIP3   OH243356   4.168   6.408   0.147  0.0366  0.1326  0.0373
 7314TIP3    H143357   4.130   6.471   0.207  0.3821 -0.7502  1.2253
 7314TIP3    H243358   4.201   6.338   0.203  1.6452 -0.0650 -1.0714
 7315TIP3   OH243359   1.532   5.476  11.663 -0.7006  0.3535  0.3031
 7315TIP3    H143360   1.452   5.426  11.677  0.5206 -1.6080  0.8381
 7315TIP3    H243361   1.566   5.442  11.580  1.8958 -2.4233  2.2784
 7316TIP3   OH243362   0.720   4.572  12.676  0.2326 -0.0032 -0.1908
 7316TIP3    H143363   0.729   4.664  12.702 -2.0520  0.8762 -2.0674
 7316TIP3    H243364   0.631   4.549  12.702 -0.6281 -0.3875 -3.0996
 7317TIP3   OH243365   1.480   2.859  14.558 -0.0686 -0.5752 -0.0606
 7317TIP3    H143366   1.528   2.905  14.489  0.4658  0.7212  1.1157
 7317TIP3    H243367   1.548   2.825  14.616 -0.5195 -1.2117  0.1071
 7318TIP3   OH243368   6.169   3.589   1.149  0.2549  0.0373 -0.6323
 7318TIP3    H143369   6.142   3.657   1.087  2.7020  2.4516  0.7860
 7318TIP3    H243370   6.098   3.586   1.214  0.8930  2.6071  0.2728
 7319TIP3   OH243371   4.138   6.112  11.225 -0.4813  0.3034  0.1266
 7319TIP3    H143372   4.137   6.021  11.253  0.3882 -0.0595 -0.9921
 7319TIP3    H243373   4.150   6.109  11.131 -2.5550  1.5390 -0.2542
 7320TIP3   OH243374   1.628   5.650  10.851 -0.6925 -0.1054  0.0428
 7320TIP3    H143375   1.692   5.670  10.782  0.4128  0.8891  1.3045
 7320TIP3    H243376   1.637   5.556  10.865 -0.5352 -0.2202 -0.7813
 7321TIP3   OH243377   3.277   2.301   3.265 -0.1445  0.5145 -0.4798
 7321TIP3    H143378   3.314   2.244   3.196  2.3122  2.0206 -0.5249
 7321TIP3    H243379   3.242   2.376   3.218  0.7404  1.1312 -0.1874
 7322TIP3   OH243380   6.531   1.706   2.555  0.1533  0.1687  0.2290
 7322TIP3    H143381   6.614   1.659   2.548 -1.5572 -2.8367 -2.1607
 7322TIP3    H243382   6.483   1.660   2.624 -0.3314  0.4999  0.1213
 7323TIP3   OH243383   2.685   0.840   3.042 -0.0149  0.3564  0.1912
 7323TIP3    H143384   2.739   0.881   2.974  1.2387 -1.3263  0.1269
 7323TIP3    H243385   2.723   0.870   3.125  0.4709 -0.1328  0.1456
 7324TIP3   OH243386   3.698   3.498  13.967 -0.1431  0.0694 -0.0425
 7324TIP3    H143387   3.666   3.578  14.008  0.6997  0.3116  0.1650
 7324TIP3    H243388   3.721   3.440  14.040 -0.9649 -0.4706 -0.1886
 7325TIP3   OH243389   4.948   6.395  12.581 -0.3980 -0.1462 -0.4361
 7325TIP3    H143390   4.877   6.346  12.539 -0.5773  0.4645 -0.8547
 7325TIP3    H243391   5.012   6.408  12.511 -0.2381  0.0062 -0.2599
 7326TIP3   OH243392   2.390   3.188   5.427 -0.5007 -0.3344 -0.2314
 7326TIP3    H143393   2.441   3.260   5.390  0.7925 -1.6511 -1.1350
 7326TIP3    H243394   2.380   3.211   5.520 -1.4168  1.6881 -0.7773
 7327TIP3   OH243395   2.336   3.923   3.218 -0.2522 -0.0999 -0.1627
 7327TIP3    H143396   2.295   4.008   3.233  1.2756  0.8159 -0.9821
 7327TIP3    H243397   2.316   3.873   3.297 -0.7988  1.1727  0.5307
 7328TIP3   OH243398   4.679   1.543   3.845 -0.6491 -0.2383  0.3712
 7328TIP3    H143399   4.751   1.522   3.903 -0.4460  0.2505  0.3031
 7328TIP3    H243400   4.703   1.627   3.805 -1.5761  0.2932  0.8820
 7329TIP3   OH243401   4.168   3.759   1.921  0.8455  0.0790 -0.1277
 7329TIP3    H143402   4.220   3.838   1.909  1.8195 -0.6539 -0.9653
 7329TIP3    H243403   4.181   3.735   2.013  1.3096  0.3867 -0.1101
 7330TIP3   OH243404   6.660   2.137   2.462 -0.2984 -0.1167 -0.0920
 7330TIP3    H143405   6.693   2.205   2.520 -1.9704 -1.6751  2.9547
 7330TIP3    H243406   6.738   2.093   2.428  0.7492  1.8493 -0.3556
 7331TIP3   OH243407   2.705   1.461   0.912 -0.0317  0.0387  0.1805
 7331TIP3    H143408   2.793   1.450   0.949  0.3639  2.3052 -0.0002
 7331TIP3    H243409   2.676   1.547   0.943 -0.4252  1.2572 -3.2178
 7332TIP3   OH243410   5.857   4.919  15.046 -0.7428 -0.2771 -0.0180
 7332TIP3    H143411   5.915   4.864  14.993  0.2166  0.2332  0.4770
 7332TIP3    H243412   5.805   4.857  15.097 -1.0394 -0.7508 -0.8706
 7333TIP3   OH243413   3.802   2.868   2.216  0.6233 -0.5148 -0.0296
 7333TIP3    H143414   3.721   2.882   2.167  0.8720  0.8064 -0.0822
 7333TIP3    H243415   3.867   2.844   2.149  0.6165 -0.1299 -0.1782
 7334TIP3   OH243416   4.270   0.608   5.415 -0.0868  0.1445  0.4855
 7334TIP3    H143417   4.288   0.622   5.322 -1.4354  0.9668  0.3102
 7334TIP3    H243418   4.286   0.514   5.429  2.4421  0.4557  0.0203
 7335TIP3   OH243419   6.008   4.957   1.784  0.1618  0.1816  0.5601
 7335TIP3    H143420   6.035   4.910   1.862 -1.2348  0.9339  1.5379
 7335TIP3    H243421   6.023   4.896   1.712  1.8504 -0.3789  1.3305
 7336TIP3   OH243422   3.920   1.251   1.017  0.1348  0.5733 -0.6021
 7336TIP3    H143423   3.965   1.168   1.005  2.6611  1.8604 -0.8507
 7336TIP3    H243424   3.847   1.249   0.955  0.3063 -1.3189 -0.7812
 7337TIP3   OH243425   4.065   5.933   2.891 -0.2435  0.1178 -0.3039
 7337TIP3    H143426   4.120   6.002   2.855  0.9101 -0.3034  0.5661
 7337TIP3    H243427   4.068   5.947   2.986  1.0914 -1.8665 -0.0064
 7338TIP3   OH243428   0.866   4.145  12.484 -0.1766 -0.3580  0.2370
 7338TIP3    H143429   0.928   4.082  12.519  0.9773  1.2825  1.2815
 7338TIP3    H243430   0.921   4.214  12.446 -1.3868 -0.5527 -2.0654
 7339TIP3   OH243431   6.468   5.280  13.512  0.0104  0.1994  0.3493
 7339TIP3    H143432   6.478   5.203  13.569 -0.2484 -1.4458 -1.7149
 7339TIP3    H243433   6.489   5.248  13.424  0.2606  2.6083 -0.5360
 7340TIP3   OH243434   0.442   2.487   1.723 -0.2676  0.0159  0.4992
 7340TIP3    H143435   0.429   2.576   1.757  2.7880  0.9236 -0.3831
 7340TIP3    H243436   0.483   2.440   1.796 -0.5778 -0.2567  0.4993
 7341TIP3   OH243437   2.875   1.272   1.500 -0.6730 -0.5995  0.3909
 7341TIP3    H143438   2.815   1.223   1.555 -4.3364  1.7954 -1.0338
 7341TIP3    H243439   2.840   1.362   1.500  3.1085  1.0943 -0.4504
 7342TIP3   OH243440   0.717   3.604  14.008  0.0784 -0.2775 -0.8961
 7342TIP3    H143441   0.645   3.655  14.046 -0.0985 -1.4305  0.3705
 7342TIP3    H243442   0.690   3.513  14.017  1.6969 -0.7419 -0.3673
 7343TIP3   OH243443   5.725   1.589   0.762  0.1353  0.2584  0.1996
 7343TIP3    H143444   5.745   1.577   0.669 -0.4401 -4.2771  0.4108
 7343TIP3    H243445   5.631   1.576   0.768  0.3855 -1.2915  1.5142
 7344TIP3   OH243446   4.184   5.217  11.731  0.9605  0.0333 -0.8373
 7344TIP3    H143447   4.096   5.252  11.747  1.5398  2.0456 -1.7196
 7344TIP3    H243448   4.176   5.167  11.650  0.3589 -0.9692 -0.1783
 7345TIP3   OH243449   0.841   3.161  11.924  0.4149  0.3427 -0.3390
 7345TIP3    H143450   0.867   3.074  11.895  1.2126  0.6850 -0.6907
 7345TIP3    H243451   0.768   3.146  11.984  2.1575 -0.7881  1.6159
 7346TIP3   OH243452   0.765   3.981   6.047 -0.0057 -0.3128 -0.7500
 7346TIP3    H143453   0.725   3.959   5.963 -0.4631 -1.4990 -0.2415
 7346TIP3    H243454   0.699   4.033   6.092  0.3954  0.6679 -1.2645
 7347TIP3   OH243455   0.718   6.059  14.829 -0.6515 -0.3362  0.4491
 7347TIP3    H143456   0.756   6.145  14.843  0.8038 -0.9460  0.3975
 7347TIP3    H243457   0.645   6.054  14.892 -1.7745  1.4966 -0.6148
 7348TIP3   OH243458   1.507   6.396  16.705 -0.1221  0.2948  0.4045
 7348TIP3    H143459   1.425   6.362  16.739 -0.6366  1.0561 -0.0435
 7348TIP3    H243460   1.515   6.483  16.744 -0.6451  1.1215 -1.2490
 7349TIP3   OH243461   3.530   2.791  12.345  0.2619  0.3768 -0.1441
 7349TIP3    H143462   3.495   2.777  12.433  0.6119  0.3002 -0.0157
 7349TIP3    H243463   3.569   2.708  12.321  0.1940  0.4074 -0.3627
 7350TIP3   OH243464   4.916   5.738  14.999  0.3041  0.3223  0.4252
 7350TIP3    H143465   4.835   5.697  14.968  1.0298 -0.6874 -0.1994
 7350TIP3    H243466   4.930   5.810  14.938 -0.6341  1.1377  1.1360
 7351TIP3   OH243467   0.381   1.725   4.852 -0.2328 -0.4114 -0.2416
 7351TIP3    H143468   0.443   1.797   4.840 -1.1088  0.6293  1.1435
 7351TIP3    H243469   0.437   1.647   4.861  0.9769  0.5794  1.6311
 7352TIP3   OH243470   0.188   6.544  10.434 -0.0046 -0.5883 -0.5975
 7352TIP3    H143471   0.238   6.522  10.512 -0.6958  0.7258  0.2525
 7352TIP3    H243472   0.123   6.474  10.427 -1.4296  0.4311  1.3835
 7353TIP3   OH243473   1.701   4.294   4.060  0.9301  0.0924  0.4393
 7353TIP3    H143474   1.795   4.280   4.055  0.7171 -1.0201 -0.9473
 7353TIP3    H243475   1.685   4.371   4.007  0.9857 -0.1030  0.1377
 7354TIP3   OH243476   4.053   0.468  13.236  0.0442 -0.0997 -0.2965
 7354TIP3    H143477   3.961   0.490  13.252  0.5309  0.4944  2.0387
 7354TIP3    H243478   4.073   0.399  13.300  1.7708  1.3305  0.8177
 7355TIP3   OH243479   4.110   5.370   6.382  0.2429  0.3686  0.0266
 7355TIP3    H143480   4.191   5.396   6.337  0.6984 -1.1952 -0.1213
 7355TIP3    H243481   4.089   5.444   6.438 -0.3495  2.4170 -2.7113
 7356TIP3   OH243482   4.572   4.419  16.238 -0.1749  0.2223 -0.1995
 7356TIP3    H143483   4.647   4.475  16.258  0.6589 -0.4518 -1.2963
 7356TIP3    H243484   4.609   4.347  16.187 -1.7117  0.3498 -1.5852
 7357TIP3   OH243485   1.337   1.107   5.389 -0.3212 -0.6840  0.3526
 7357TIP3    H143486   1.388   1.183   5.360 -0.7446  0.3975  2.2820
 7357TIP3    H243487   1.397   1.033   5.380  1.3649  0.4314  1.7549
 7358TIP3   OH243488   4.099   3.583   5.399  0.4948 -0.4072 -0.1625
 7358TIP3    H143489   4.089   3.666   5.352  2.3303 -0.4936 -0.8015
 7358TIP3    H243490   4.018   3.574   5.450 -0.3477  1.0727 -1.1493
 7359TIP3   OH243491   2.445   4.702  14.771 -0.2375  0.3641  0.0689
 7359TIP3    H143492   2.387   4.775  14.790 -1.6957 -0.6225 -0.3668
 7359TIP3    H243493   2.442   4.648  14.850 -4.7867 -2.7510 -1.7814
 7360TIP3   OH243494   6.016   3.434   5.798  0.3416 -0.2449 -0.3386
 7360TIP3    H143495   5.936   3.441   5.851 -0.1585 -0.7964 -1.0072
 7360TIP3    H243496   6.080   3.487   5.845  0.0965 -1.2185  1.1493
 7361TIP3   OH243497   3.505   0.271  13.455 -0.2342  0.4455  0.2718
 7361TIP3    H143498   3.560   0.193  13.450 -0.7409  0.1663 -1.9619
 7361TIP3    H243499   3.416   0.237  13.463 -0.4980  0.7590 -1.1642
 7362TIP3   OH243500   5.752   5.763  12.005  0.5497 -0.1423  0.1999
 7362TIP3    H143501   5.789   5.682  11.970  0.9753  0.7814 -1.6488
 7362TIP3    H243502   5.698   5.797  11.934  1.9645  2.1693  0.1125
 7363TIP3   OH243503   4.214   6.131   4.245  0.1569 -0.1166 -0.1876
 7363TIP3    H143504   4.282   6.098   4.186 -1.0417  0.3592 -1.8876
 7363TIP3    H243505   4.206   6.062   4.312  1.6932 -0.5717 -0.4197
 7364TIP3   OH243506   4.664   0.684   6.322 -0.1811  0.1649 -0.3359
 7364TIP3    H143507   4.585   0.719   6.363  0.1623 -0.6231  1.0763
 7364TIP3    H243508   4.631   0.623   6.256 -0.7726 -0.3721  0.4366
 7365TIP3   OH243509   1.668   0.008  13.733 -0.1062 -0.5577  0.1377
 7365TIP3    H143510   1.682  -0.075  13.687  0.5913  0.1152 -0.9148
 7365TIP3    H243511   1.586   0.042  13.698  0.2191 -0.2400 -0.3332
 7366TIP3   OH243512   1.441   4.520  14.146  0.1781 -0.4387 -0.5991
 7366TIP3    H143513   1.350   4.502  14.123  0.0165  1.4176 -1.5966
 7366TIP3    H243514   1.490   4.499  14.067  0.4765 -0.3207 -0.4458
 7367TIP3   OH243515   3.830   5.254  15.189 -0.7228  0.8577  0.2585
 7367TIP3    H143516   3.885   5.234  15.114 -1.2598  0.9750 -0.1722
 7367TIP3    H243517   3.889   5.250  15.264 -0.1459  0.9228 -0.1885
 7368TIP3   OH243518   0.611   0.297  12.051  0.8982  0.3846 -0.2213
 7368TIP3    H143519   0.562   0.377  12.036 -0.8535 -0.9162 -1.9063
 7368TIP3    H243520   0.626   0.261  11.963  0.6024 -1.6924  0.5165
 7369TIP3   OH243521   5.311   2.373   4.354 -0.3690  0.0214  0.1227
 7369TIP3    H143522   5.313   2.308   4.283  1.1447 -1.2409  1.2330
 7369TIP3    H243523   5.316   2.457   4.310 -0.1410 -0.7070 -1.3054
 7370TIP3   OH243524   3.575   5.696   4.927 -0.0246  0.0661  0.1834
 7370TIP3    H143525   3.642   5.746   4.880 -0.1487  0.7320  0.6896
 7370TIP3    H243526   3.623   5.635   4.983  0.1324 -0.3187 -0.3670
 7371TIP3   OH243527   2.385   6.024  14.442  0.3584  0.2881  0.6019
 7371TIP3    H143528   2.405   5.991  14.354 -1.4788 -0.7345  0.5088
 7371TIP3    H243529   2.456   5.992  14.497 -0.2223 -2.0142  0.0879
 7372TIP3   OH243530   3.107   4.162   1.191  0.0096  0.1902  0.3505
 7372TIP3    H143531   3.037   4.227   1.181  0.2362  0.3691 -0.0961
 7372TIP3    H243532   3.071   4.082   1.154  0.1754  0.3791 -0.2308
 7373TIP3   OH243533   5.298   4.871   3.539  0.0161  0.2691 -0.0841
 7373TIP3    H143534   5.222   4.897   3.488 -0.4322  0.5385  0.6989
 7373TIP3    H243535   5.308   4.941   3.604  0.9627  0.2602 -0.2052
 7374TIP3   OH243536   4.477   4.816  11.959 -0.1070  0.3371 -0.9282
 7374TIP3    H143537   4.565   4.847  11.983 -0.7180  1.8216 -0.5102
 7374TIP3    H243538   4.419   4.889  11.979 -1.5813 -0.9235 -0.3793
 7375TIP3   OH243539   6.765   4.830   2.520  0.3254 -0.6765  0.4412
 7375TIP3    H143540   6.711   4.830   2.441 -1.0227 -0.5526  1.3292
 7375TIP3    H243541   6.802   4.918   2.524 -0.9579 -0.1364  0.8197
 7376TIP3   OH243542   1.547   4.035   5.505 -0.1731  0.2551 -0.5181
 7376TIP3    H143543   1.468   4.018   5.556 -0.9283  0.6179 -1.5232
 7376TIP3    H243544   1.533   4.122   5.467  1.7831  1.4366  1.2283
 7377TIP3   OH243545   0.299   5.173   2.866  0.1149  0.3138 -0.0515
 7377TIP3    H143546   0.375   5.126   2.901  0.8605  1.4612 -0.0898
 7377TIP3    H243547   0.319   5.184   2.773 -0.5792 -0.2676 -0.2809
 7378TIP3   OH243548   2.678   2.630   3.436  0.5334  0.4701 -0.7774
 7378TIP3    H143549   2.649   2.611   3.346 -1.6512 -0.5809  0.0913
 7378TIP3    H243550   2.717   2.548   3.466 -0.2851  0.2823 -0.2091
 7379TIP3   OH243551   5.270   2.663  15.401 -0.2110  0.5104  0.0090
 7379TIP3    H143552   5.227   2.582  15.374  1.6224 -0.3164 -0.5796
 7379TIP3    H243553   5.249   2.670  15.494  0.2737 -1.1359  0.2905
 7380TIP3   OH243554   6.366   5.763  16.014  0.4515 -0.2874  0.3802
 7380TIP3    H143555   6.349   5.847  16.057  2.2161  0.2302  0.1373
 7380TIP3    H243556   6.379   5.702  16.087 -1.0402 -0.4185  0.5575
 7381TIP3   OH243557   3.245   4.829   0.830  0.3552  0.0243 -0.1488
 7381TIP3    H143558   3.273   4.738   0.836  1.9396  0.5057  0.1070
 7381TIP3    H243559   3.270   4.868   0.913  0.5411  0.9138 -0.6092
 7382TIP3   OH243560   1.336   5.702   5.181  0.1163  0.4293 -0.2796
 7382TIP3    H143561   1.398   5.774   5.168 -0.9071  1.0960 -1.7443
 7382TIP3    H243562   1.265   5.740   5.232  0.5523 -0.1522  0.8024
 7383TIP3   OH243563   5.406   0.249  13.949 -0.1963 -0.3039  0.1862
 7383TIP3    H143564   5.385   0.339  13.972  1.0759  0.1574 -0.3969
 7383TIP3    H243565   5.393   0.199  14.030  0.2029  0.5931  0.8119
 7384TIP3   OH243566   6.683   2.527  13.955  0.3197  0.2343  0.1221
 7384TIP3    H143567   6.733   2.447  13.941  1.8870  1.5168 -2.4928
 7384TIP3    H243568   6.594   2.505  13.931  0.5153 -0.9670  0.4580
 7385TIP3   OH243569   0.679   4.507   1.280 -0.3006 -0.1893 -0.1275
 7385TIP3    H143570   0.735   4.540   1.210  0.6385  0.8078  1.0330
 7385TIP3    H243571   0.663   4.584   1.335 -2.8498 -0.4467 -0.4181
 7386TIP3   OH243572   0.820   3.227  13.082 -0.1197  0.6089  0.1643
 7386TIP3    H143573   0.842   3.266  12.998  1.2227 -4.2991 -2.1128
 7386TIP3    H243574   0.732   3.191  13.070 -0.5481  1.1175  1.4927
 7387TIP3   OH243575   5.778   3.886   6.015  0.5944 -0.2063 -0.0931
 7387TIP3    H143576   5.781   3.946   6.090 -0.1798 -0.8812  0.4979
 7387TIP3    H243577   5.690   3.895   5.980  0.3679 -1.1832  0.1790
 7388TIP3   OH243578   5.597   6.313  13.253  0.2149  0.0086 -0.0157
 7388TIP3    H143579   5.516   6.284  13.212 -1.3341  1.2509  1.9417
 7388TIP3    H243580   5.605   6.260  13.332  2.3146 -1.3113 -1.0355
 7389TIP3   OH243581   1.313   4.601   2.584  0.5934  0.2589 -0.8668
 7389TIP3    H143582   1.272   4.522   2.621  0.5059 -0.6960 -2.8973
 7389TIP3    H243583   1.247   4.669   2.596  0.6348  0.0497  0.8430
 7390TIP3   OH243584   0.703   1.559  12.546  0.6804  0.1786  0.1147
 7390TIP3    H143585   0.736   1.476  12.512  1.8401  0.7197 -0.1204
 7390TIP3    H243586   0.760   1.626  12.507 -0.7558  1.1721 -0.3942
 7391TIP3   OH243587   3.379   3.122   3.238  0.2249 -0.2826  0.7290
 7391TIP3    H143588   3.345   3.034   3.221 -1.2991  0.8462 -3.0751
 7391TIP3    H243589   3.347   3.175   3.165  1.7020  3.3198  2.4329
 7392TIP3   OH243590   4.324   0.978   1.433  0.1905  0.4310  0.3874
 7392TIP3    H143591   4.324   1.021   1.519  0.5074  1.4674 -0.1008
 7392TIP3    H243592   4.239   0.999   1.396 -0.4369 -1.0656  0.9229
 7393TIP3   OH243593   6.016   0.618  16.232 -0.2364  0.3162  0.2851
 7393TIP3    H143594   5.999   0.632  16.139 -0.6262 -2.4474 -0.1442
 7393TIP3    H243595   6.024   0.706  16.269 -0.1721  1.4826 -2.3217
 7394TIP3   OH243596   2.039   5.500   1.104  0.1717  0.2702  0.5704
 7394TIP3    H143597   2.133   5.487   1.118  0.0651  1.3045  2.5977
 7394TIP3    H243598   2.020   5.454   1.022  2.2887 -0.6038  0.5167
 7395TIP3   OH243599   2.886   2.906  13.022 -0.1070  0.0484  0.1761
 7395TIP3    H143600   2.923   2.987  13.055  0.3428 -0.7983  1.8540
 7395TIP3    H243601   2.802   2.931  12.985 -0.8191  1.0568  2.3132
 7396TIP3   OH243602   1.470   3.748   2.335  0.9002 -0.4312  0.1548
 7396TIP3    H143603   1.542   3.719   2.391 -0.2654  0.3889  2.1572
 7396TIP3    H243604   1.463   3.842   2.350 -0.5657 -0.4890 -0.0336
 7397TIP3   OH243605   6.310   0.807   1.053  0.0965 -0.5660 -0.4404
 7397TIP3    H143606   6.275   0.895   1.064  0.9664 -0.2133 -0.4205
 7397TIP3    H243607   6.386   0.804   1.111 -0.2920 -1.5487  0.0470
 7398TIP3   OH243608   2.668   1.528   4.610  0.2571 -0.3020  1.0439
 7398TIP3    H143609   2.641   1.491   4.526  0.2244 -0.6144  1.1910
 7398TIP3    H243610   2.585   1.549   4.654  0.2752 -0.0723  0.9704
 7399TIP3   OH243611   4.691   0.229  14.942  0.1107 -0.0692 -0.6722
 7399TIP3    H143612   4.711   0.277  15.021  0.3030  0.3035 -0.9462
 7399TIP3    H243613   4.618   0.277  14.902  0.3404  0.0299 -0.9762
 7400TIP3   OH243614   1.260   4.594   2.923 -0.3570 -1.2125  0.0610
 7400TIP3    H143615   1.176   4.590   2.968 -0.0445  0.8678  0.9816
 7400TIP3    H243616   1.257   4.524   2.858 -2.1768 -2.1381  1.0829
 7401TIP3   OH243617   2.801   0.632   2.150  0.0739  0.3205 -0.2852
 7401TIP3    H143618   2.786   0.540   2.174 -1.6227  0.7169  0.2922
 7401TIP3    H243619   2.869   0.661   2.210  0.4859 -0.4861 -0.3357
 7402TIP3   OH243620   5.265   5.926   6.506 -0.7418 -1.1426 -0.0804
 7402TIP3    H143621   5.224   6.013   6.506 -0.9264 -1.1768  1.8540
 7402TIP3    H243622   5.192   5.865   6.508 -0.9187 -1.2000  4.6217
 7403TIP3   OH243623   1.393   5.870  14.555 -0.0712  0.0278 -0.2693
 7403TIP3    H143624   1.429   5.870  14.644 -2.3532  0.2467  0.7185
 7403TIP3    H243625   1.441   5.940  14.510  1.4922 -0.4411  0.5893
 7404TIP3   OH243626   4.367   3.800  10.830  0.2388  0.4866 -0.9267
 7404TIP3    H143627   4.403   3.852  10.902 -1.3391  1.0123 -0.4915
 7404TIP3    H243628   4.386   3.851  10.751 -1.0051  1.6097 -0.5352
 7405TIP3   OH243629   3.756   1.731  13.688 -0.7051 -0.2708  0.0512
 7405TIP3    H143630   3.705   1.755  13.765 -0.2018  0.0155  0.2961
 7405TIP3    H243631   3.730   1.794  13.621  1.2212  1.5717  0.9242
 7406TIP3   OH243632   2.171   5.642  15.584  0.2943  0.2858  0.4895
 7406TIP3    H143633   2.105   5.702  15.620  0.4711  0.1887  0.9923
 7406TIP3    H243634   2.127   5.599  15.511 -0.1924  0.2490  0.7930
 7407TIP3   OH243635   1.649   3.459  14.584  0.5726  0.1271 -0.2595
 7407TIP3    H143636   1.698   3.391  14.538 -0.6423 -1.0224  0.0651
 7407TIP3    H243637   1.584   3.488  14.520  0.9307  0.8336 -0.3137
 7408TIP3   OH243638   6.688   2.351  13.641 -0.1894 -0.4556  0.1327
 7408TIP3    H143639   6.653   2.353  13.551 -0.3299 -1.0351  0.1694
 7408TIP3    H243640   6.765   2.407  13.638 -0.6184  0.1286 -0.1713
 7409TIP3   OH243641   6.712   2.578  12.231 -0.2596  0.4310  0.3687
 7409TIP3    H143642   6.685   2.546  12.317  1.9876 -0.8670  0.6704
 7409TIP3    H243643   6.808   2.582  12.235 -0.0917  0.6490 -1.9676
 7410TIP3   OH243644   0.092   5.142  11.940  0.4611  0.0423 -0.0044
 7410TIP3    H143645   0.027   5.128  11.871  0.7724 -0.5671 -0.1815
 7410TIP3    H243646   0.062   5.089  12.014 -0.6802  1.8493  0.8984
 7411TIP3   OH243647   4.316   0.634   5.860 -0.2493 -0.3238 -0.5731
 7411TIP3    H143648   4.348   0.547   5.838  0.8547 -0.3425  0.9371
 7411TIP3    H243649   4.253   0.620   5.931 -0.2389  0.0798 -0.4799
 7412TIP3   OH243650   4.188   6.335   4.433 -0.0942 -0.1695 -0.1459
 7412TIP3    H143651   4.195   6.410   4.375  0.8401 -0.1579 -0.0416
 7412TIP3    H243652   4.187   6.259   4.375 -3.0390 -0.0524 -0.3734
 7413TIP3   OH243653   6.350   2.735   5.100 -0.1630 -0.2534  0.1248
 7413TIP3    H143654   6.255   2.735   5.096 -0.3356 -0.3349  2.4556
 7413TIP3    H243655   6.376   2.819   5.062 -1.0371 -0.8245 -1.8114
 7414TIP3   OH243656   0.270   2.057   4.607 -0.0129  0.3486 -0.2534
 7414TIP3    H143657   0.317   2.056   4.524  0.6218  1.7174  0.0671
 7414TIP3    H243658   0.200   2.120   4.595 -0.9733 -0.6851 -0.2756
 7415TIP3   OH243659   4.721   2.345  14.107 -0.0320 -0.2977 -0.6581
 7415TIP3    H143660   4.732   2.432  14.146  0.5226  0.3210 -2.1275
 7415TIP3    H243661   4.799   2.332  14.053 -0.7767 -1.0901 -1.6002
 7416TIP3   OH243662   2.527   1.476  12.529  0.2566  0.3771  0.0734
 7416TIP3    H143663   2.455   1.513  12.477  0.3579 -0.2021 -0.4989
 7416TIP3    H243664   2.570   1.552  12.568 -0.2448  0.7796 -0.1385
 7417TIP3   OH243665   2.120   3.337  14.569  0.1360  0.2440 -0.0313
 7417TIP3    H143666   2.190   3.401  14.578  0.4483 -0.0189 -0.5438
 7417TIP3    H243667   2.090   3.347  14.479  0.4270 -0.5594 -0.2288
 7418TIP3   OH243668   2.249   1.230  16.694 -0.5371 -0.1177 -0.0359
 7418TIP3    H143669   2.190   1.183  16.635 -1.6640  1.2111 -0.0064
 7418TIP3    H243670   2.285   1.301  16.640  1.0910 -0.9190 -0.0631
 7419TIP3   OH243671   2.310   6.128  17.124 -0.7419  0.3299  0.1256
 7419TIP3    H143672   2.216   6.141  17.117 -0.7075 -0.0158 -1.4850
 7419TIP3    H243673   2.320   6.046  17.171 -1.1822  1.0482  1.5372
 7420TIP3   OH243674   3.215   3.867   4.648 -0.1110  0.1362  0.4944
 7420TIP3    H143675   3.255   3.788   4.686  1.0596  0.5727  0.2276
 7420TIP3    H243676   3.260   3.940   4.693  0.0299  0.6492 -0.4575
 7421TIP3   OH243677   6.311   3.147  15.519 -0.7084  0.5902 -0.2537
 7421TIP3    H143678   6.324   3.080  15.450  0.4263 -0.6447  1.0894
 7421TIP3    H243679   6.397   3.187  15.529 -0.9710  1.0484  0.1784
 7422TIP3   OH243680   0.927   0.616   5.450 -0.3021 -0.2113 -0.0297
 7422TIP3    H143681   0.865   0.654   5.512 -1.4258 -0.3270 -1.0416
 7422TIP3    H243682   1.012   0.650   5.477 -1.2420  3.4097 -1.0945
 7423TIP3   OH243683   2.751   6.517  12.406  0.0519 -0.1215  0.2320
 7423TIP3    H143684   2.707   6.539  12.488  1.5935 -0.1005  1.0877
 7423TIP3    H243685   2.735   6.593  12.349 -0.3512  0.2178  0.7940
 7424TIP3   OH243686   6.373   0.978   2.111  0.2642  0.2252  0.3766
 7424TIP3    H143687   6.386   0.967   2.017 -1.4472 -0.4020  0.1603
 7424TIP3    H243688   6.286   0.939   2.127 -0.6564  2.6405  1.7677
 7425TIP3   OH243689   3.799   3.279   1.558 -0.0546 -0.2487 -0.0599
 7425TIP3    H143690   3.741   3.217   1.514 -0.9259  0.9409 -0.6645
 7425TIP3    H243691   3.750   3.362   1.557  1.7143  0.8329 -0.7187
 7426TIP3   OH243692   2.031   4.793  15.443  0.6108  0.0142 -0.4848
 7426TIP3    H143693   1.955   4.813  15.389  0.2220  1.0061  0.3825
 7426TIP3    H243694   2.032   4.697  15.448 -0.4786 -0.0221 -0.6614
 7427TIP3   OH243695   1.898   4.674   2.116  0.1002  0.3738 -0.6414
 7427TIP3    H143696   1.845   4.697   2.193  0.4963  0.3602 -0.3598
 7427TIP3    H243697   1.834   4.647   2.050 -0.2556  0.5396 -0.3690
 7428TIP3   OH243698   3.557   6.736  12.152  0.3322 -0.4919 -0.2490
 7428TIP3    H143699   3.519   6.738  12.240  0.9012  0.2675 -0.0086
 7428TIP3    H243700   3.569   6.828  12.129  0.1238 -0.6850 -1.1574
 7429TIP3   OH243701   4.051   6.614   0.376  0.1794 -0.3603  0.2703
 7429TIP3    H143702   4.063   6.705   0.349 -0.2631 -0.4468 -0.2272
 7429TIP3    H243703   4.060   6.616   0.471  0.2200  0.1983  0.2561
 7430TIP3   OH243704   1.708   0.385  16.934 -0.4044 -0.4596 -0.1475
 7430TIP3    H143705   1.793   0.413  16.899 -0.5746  0.0452 -0.1624
 7430TIP3    H243706   1.716   0.290  16.943  0.3915 -0.3392  0.4861
 7431TIP3   OH243707   0.398   4.002   3.995  0.6784  0.0389 -0.1844
 7431TIP3    H143708   0.472   3.952   4.029 -0.4710 -2.5061 -1.1413
 7431TIP3    H243709   0.426   4.031   3.908  1.5634  1.6758  0.6006
 7432TIP3   OH243710   4.475   1.662  13.575 -0.2090 -0.2053  0.1754
 7432TIP3    H143711   4.400   1.717  13.554  0.5775  0.3139 -1.4699
 7432TIP3    H243712   4.445   1.605  13.645 -1.7356  0.8292  0.4040
 7433TIP3   OH243713   2.499   6.172  12.144  0.1452 -0.3275 -0.2132
 7433TIP3    H143714   2.569   6.230  12.172 -0.3163 -0.5693  1.5757
 7433TIP3    H243715   2.443   6.162  12.221 -0.7843 -1.7031 -1.0048
 7434TIP3   OH243716   0.468   3.327  15.283 -0.3375  0.3784  0.7140
 7434TIP3    H143717   0.519   3.400  15.249  1.0490 -0.9885 -0.2800
 7434TIP3    H243718   0.521   3.291  15.354  0.5680 -1.5581 -0.8559
 7435TIP3   OH243719   0.926   0.339   5.497 -0.4412  0.1412 -0.5135
 7435TIP3    H143720   0.959   0.263   5.448 -0.3698  0.4323 -0.9238
 7435TIP3    H243721   0.919   0.408   5.431 -0.7585  0.4150 -0.1939
 7436TIP3   OH243722   0.445   3.980  11.907 -0.3603 -0.3538 -0.8903
 7436TIP3    H143723   0.455   3.898  11.955 -1.7183 -0.6270 -1.0180
 7436TIP3    H243724   0.363   3.969  11.859 -1.9953  2.0670  1.1277
 7437TIP3   OH243725   3.646   1.718   1.696  0.0135  0.4130 -0.3916
 7437TIP3    H143726   3.556   1.741   1.674 -0.1929  1.1054  1.0596
 7437TIP3    H243727   3.700   1.777   1.644 -0.4008  0.7420 -0.4512
 7438TIP3   OH243728   3.807   4.722  14.385  0.5029 -0.0316 -0.7305
 7438TIP3    H143729   3.824   4.672  14.306 -0.6744  0.7132 -1.4924
 7438TIP3    H243730   3.778   4.657  14.449  2.2835 -0.7531 -0.6135
 7439TIP3   OH243731   5.831   0.566   2.059  0.1708 -0.1695  0.0638
 7439TIP3    H143732   5.796   0.520   1.983  0.3305 -0.5712  0.2295
 7439TIP3    H243733   5.869   0.646   2.024  0.0364 -0.2401 -0.2479
 7440TIP3   OH243734   6.001   4.867  10.603  0.2631  0.5834 -0.6325
 7440TIP3    H143735   6.052   4.934  10.649  3.0116 -1.4825 -0.3891
 7440TIP3    H243736   5.939   4.835  10.669  0.0101  1.7842 -0.2672
 7441TIP3   OH243737   4.649   5.708  13.455 -0.3059 -0.7105  0.1950
 7441TIP3    H143738   4.683   5.677  13.372 -0.2387 -1.2178  0.4085
 7441TIP3    H243739   4.554   5.693  13.449 -0.3123 -0.6634  0.1737
 7442TIP3   OH243740   0.670   3.872   5.762  0.4292  0.5463 -0.1921
 7442TIP3    H143741   0.606   3.801   5.748 -0.5110  1.3231  0.0385
 7442TIP3    H243742   0.642   3.942   5.703  1.3412  0.7431 -0.4084
 7443TIP3   OH243743   3.027   4.327   1.936  0.0106  0.0999 -0.1569
 7443TIP3    H143744   2.981   4.289   2.011 -1.7560  0.2237 -1.1029
 7443TIP3    H243745   2.959   4.337   1.869  0.7654  3.2093 -0.6226
 7444TIP3   OH243746   0.703   3.049   3.498 -0.2970  0.5497 -0.5580
 7444TIP3    H143747   0.795   3.077   3.505 -0.2824  0.4882 -0.5126
 7444TIP3    H243748   0.696   3.014   3.409 -0.1053 -0.0871 -0.3233
 7445TIP3   OH243749   3.701   1.894  10.335 -0.0063  0.3022  0.0815
 7445TIP3    H143750   3.631   1.833  10.312  0.7168 -1.0630  1.3036
 7445TIP3    H243751   3.678   1.976  10.290 -0.7973 -0.9653 -1.9460
 7446TIP3   OH243752   1.017   1.028  14.860  0.8197 -0.0921  0.3716
 7446TIP3    H143753   0.992   1.120  14.848  0.9848 -0.0911  0.0235
 7446TIP3    H243754   1.113   1.028  14.851  0.8561 -0.2432  0.7390
 7447TIP3   OH243755   5.061   6.642  11.661  0.5200 -0.0399  0.3658
 7447TIP3    H143756   5.156   6.656  11.661  0.5384  0.0529 -1.1724
 7447TIP3    H243757   5.050   6.556  11.621 -0.0159 -0.6002  1.6558
 7448TIP3   OH243758   0.014   6.330  11.673  0.0566 -0.5677 -0.4612
 7448TIP3    H143759   0.076   6.340  11.600 -0.0447  2.9466 -0.2217
 7448TIP3    H243760   0.069   6.304  11.747  1.2458  1.7268 -0.4348
 7449TIP3   OH243761   0.444   2.085   2.131 -0.0265  0.8433 -0.1769
 7449TIP3    H143762   0.488   2.001   2.145  0.9361  1.3870  0.1409
 7449TIP3    H243763   0.351   2.064   2.131  0.2204 -0.3712 -1.0587
 7450TIP3   OH243764   2.882   1.379  15.448 -0.1844  0.6429 -0.2836
 7450TIP3    H143765   2.858   1.449  15.387  1.8385  1.9115  0.2714
 7450TIP3    H243766   2.823   1.307  15.426 -0.8906  1.7597 -2.3467
 7451TIP3   OH243767   3.962   5.423  16.078 -0.2532  0.3790 -0.5728
 7451TIP3    H143768   4.023   5.490  16.109 -0.5716  1.8262 -2.8536
 7451TIP3    H243769   4.018   5.357  16.036 -0.0049 -0.4417  0.9708
 7452TIP3   OH243770   4.495   0.077   4.073  0.1520  0.0634  0.9172
 7452TIP3    H143771   4.526   0.004   4.020  1.8067  0.8633  0.7251
 7452TIP3    H243772   4.472   0.038   4.157 -1.2873 -1.0174  0.0683
 7453TIP3   OH243773   4.267   3.100  16.415 -0.0637  0.2880 -0.5956
 7453TIP3    H143774   4.183   3.118  16.374 -0.2621  0.3240 -0.1788
 7453TIP3    H243775   4.262   3.143  16.501  0.1073 -0.2925 -0.2858
 7454TIP3   OH243776   0.479   5.573   6.079 -0.3006  0.1655  0.0591
 7454TIP3    H143777   0.566   5.595   6.113 -0.2864 -1.8532  1.5484
 7454TIP3    H243778   0.419   5.626   6.131 -0.0007  1.4652 -0.8822
 7455TIP3   OH243779   6.336   0.645   3.442 -0.7027  0.5671  0.3597
 7455TIP3    H143780   6.276   0.713   3.473 -3.1680 -1.8417  1.1994
 7455TIP3    H243781   6.360   0.673   3.353 -3.4610  1.4385 -0.1964
 7456TIP3   OH243782   0.411   4.999  11.287  0.1767 -0.1419  0.1317
 7456TIP3    H143783   0.418   5.095  11.294  2.5706 -0.3665  2.5790
 7456TIP3    H243784   0.317   4.982  11.284 -0.3084  2.2815 -0.6377
 7457TIP3   OH243785   5.036   3.271  13.133 -1.1453 -0.0174  0.1031
 7457TIP3    H143786   5.101   3.231  13.076  0.4324 -0.7412  2.2675
 7457TIP3    H243787   4.959   3.214  13.125 -1.0049 -0.0339 -1.3259
 7458TIP3   OH243788   3.919   2.698  12.426  0.0928  0.9781  0.7535
 7458TIP3    H143789   3.969   2.618  12.410  1.1870  2.0572 -1.7598
 7458TIP3    H243790   3.827   2.669  12.426  0.4128 -0.2204 -0.9315
 7459TIP3   OH243791   2.562   5.490  12.046 -0.2412 -0.2207  0.2181
 7459TIP3    H143792   2.539   5.403  12.078 -0.1094  0.1074  1.2693
 7459TIP3    H243793   2.478   5.532  12.029 -0.3376 -0.1810  0.7789
 7460TIP3   OH243794   0.793   3.439   1.569 -0.3343 -0.0353 -0.4978
 7460TIP3    H143795   0.699   3.434   1.549 -0.1777  1.1857 -1.7140
 7460TIP3    H243796   0.797   3.446   1.664 -1.5170  0.3523 -0.4556
 7461TIP3   OH243797   4.055   2.549  17.149 -0.5458 -0.2622 -0.6175
 7461TIP3    H143798   3.999   2.611  17.196  1.0173  1.9441 -1.5211
 7461TIP3    H243799   4.092   2.599  17.077  1.6323 -1.9439 -0.7892
 7462TIP3   OH243800   5.795   3.955   4.876  0.7270 -0.2675 -0.6730
 7462TIP3    H143801   5.802   3.983   4.784  0.6804 -2.4250 -1.3792
 7462TIP3    H243802   5.830   3.866   4.877 -1.0569 -1.0051  1.0428
 7463TIP3   OH243803   4.193   5.088  11.485  0.2789 -0.3179 -0.4726
 7463TIP3    H143804   4.118   5.061  11.431  0.2596 -0.6191 -0.3009
 7463TIP3    H243805   4.255   5.125  11.422 -0.1342  0.2057 -0.5816
 7464TIP3   OH243806   0.575   2.774  14.122 -0.1357  0.0625  0.2983
 7464TIP3    H143807   0.480   2.771  14.126 -0.0855 -1.7314  1.6159
 7464TIP3    H243808   0.601   2.800  14.211  0.6032  0.0595  0.0878
 7465TIP3   OH243809   6.531   2.830   2.731 -0.0638 -0.5926 -0.0495
 7465TIP3    H143810   6.545   2.893   2.660 -1.8778  1.9983  1.6835
 7465TIP3    H243811   6.611   2.838   2.784 -0.6326  1.0381  0.6347
 7466TIP3   OH243812   6.449   3.052  14.364  0.1154  0.0105  0.1558
 7466TIP3    H143813   6.510   3.121  14.388  0.7079 -0.0606 -1.0390
 7466TIP3    H243814   6.493   2.971  14.388 -0.0753  0.0080  0.4941
 7467TIP3   OH243815   6.458   1.551  15.480 -0.0702  0.3268 -0.0517
 7467TIP3    H143816   6.430   1.541  15.389 -1.6619 -0.4050  0.4747
 7467TIP3    H243817   6.495   1.639  15.485 -1.2893  0.9362 -1.0970
 7468TIP3   OH243818   5.753   4.335   1.433 -0.2485 -0.0150 -0.2561
 7468TIP3    H143819   5.666   4.306   1.405 -0.2504 -1.2714  0.9871
 7468TIP3    H243820   5.804   4.255   1.438 -0.1661  0.1173  2.9988
 7469TIP3   OH243821   1.929   5.301   2.164  0.0114  0.5417 -0.4137
 7469TIP3    H143822   1.956   5.260   2.246 -0.1377  1.6931  0.2292
 7469TIP3    H243823   1.939   5.395   2.180  3.1485  0.7884 -2.7493
 7470TIP3   OH243824   4.066   6.277  16.081  0.3086 -0.2788 -0.0667
 7470TIP3    H143825   4.059   6.264  16.176  1.9354  0.1804  0.1503
 7470TIP3    H243826   4.149   6.236  16.058  0.3121  0.3249 -1.1591
 7471TIP3   OH243827   3.438   6.682   0.555 -0.5127  0.1058  0.0092
 7471TIP3    H143828   3.468   6.618   0.491 -0.5660  0.6716 -0.5917
 7471TIP3    H243829   3.349   6.704   0.527 -0.0901  1.2897 -0.4805
 7472TIP3   OH243830   6.775   6.140   1.369 -0.3358 -0.0146 -0.2358
 7472TIP3    H143831   6.716   6.155   1.443  2.0783  1.8733  1.4475
 7472TIP3    H243832   6.759   6.214   1.310 -0.6481 -0.3020 -0.5199
 7473TIP3   OH243833   1.822   4.420   2.540 -0.0887 -0.1639  0.1945
 7473TIP3    H143834   1.731   4.425   2.510  0.0332 -0.5641 -0.2684
 7473TIP3    H243835   1.824   4.471   2.621 -0.7475 -0.2426  0.2664
 7474TIP3   OH243836   5.273   3.114  13.907  0.4518  0.0290  0.3719
 7474TIP3    H143837   5.322   3.109  13.989  1.9942  1.3045 -0.4158
 7474TIP3    H243838   5.340   3.126  13.839 -0.7926 -0.8282 -1.0707
 7475TIP3   OH243839   4.038   0.018   2.582 -0.0826  1.0906  0.2842
 7475TIP3    H143840   4.039  -0.075   2.605  1.3471  1.0132 -0.0051
 7475TIP3    H243841   3.979   0.058   2.646 -1.9082 -0.2164 -0.5149
 7476TIP3   OH243842   1.274   6.209   6.302 -0.3834 -0.5307 -0.4133
 7476TIP3    H143843   1.190   6.240   6.334  0.2072 -0.2238  0.8967
 7476TIP3    H243844   1.310   6.283   6.253 -0.3760 -0.2704 -0.0132
 7477TIP3   OH243845   4.590   0.155   5.853 -0.4660  0.1371  0.0261
 7477TIP3    H143846   4.538   0.235   5.859 -1.0056 -0.1209 -0.9780
 7477TIP3    H243847   4.534   0.094   5.805 -0.3572 -1.0994  1.4184
 7478TIP3   OH243848   4.178   4.464  17.130 -0.3236 -0.0901  0.2852
 7478TIP3    H143849   4.194   4.443  17.038  1.1455  0.3349  0.4228
 7478TIP3    H243850   4.123   4.392  17.162 -0.2586 -0.6042 -0.7398
 7479TIP3   OH243851   1.156   4.699  12.290 -0.5792 -0.4709 -0.0733
 7479TIP3    H143852   1.220   4.629  12.280 -1.9010 -1.6359 -0.7143
 7479TIP3    H243853   1.071   4.655  12.282 -1.4489  1.1663 -0.2205
 7480TIP3   OH243854   0.944   5.843  14.585 -0.3007  0.2327  0.1155
 7480TIP3    H143855   0.916   5.752  14.573  0.6967 -0.2237  1.0754
 7480TIP3    H243856   0.916   5.887  14.505 -0.3352 -1.0295 -0.6007
 7481TIP3   OH243857   3.307   0.756  15.170 -0.0331  0.0154 -0.3480
 7481TIP3    H143858   3.267   0.833  15.130 -1.2868 -0.4993 -0.1403
 7481TIP3    H243859   3.247   0.732  15.242  1.8783  0.6149  1.5500
 7482TIP3   OH243860   2.178   5.700   5.558  0.7317  0.2232  0.0808
 7482TIP3    H143861   2.231   5.720   5.636  1.6495 -1.1294 -0.1430
 7482TIP3    H243862   2.196   5.607   5.542 -1.0638 -0.0483 -0.5329
 7483TIP3   OH243863   6.499   5.062  10.945 -0.4959  0.7038  0.3781
 7483TIP3    H143864   6.500   5.038  11.037 -0.8515 -0.5143  0.0805
 7483TIP3    H243865   6.537   5.150  10.943 -0.6308  0.8136  1.6902
 7484TIP3   OH243866   1.261   1.684   0.018 -0.3237 -0.1524 -0.2332
 7484TIP3    H143867   1.197   1.712   0.082 -1.2072  0.0522 -1.1724
 7484TIP3    H243868   1.263   1.588   0.025 -1.5703 -0.2553 -0.9332
 7485TIP3   OH243869   3.881   3.638   2.915  0.2882 -0.2319 -0.0480
 7485TIP3    H143870   3.895   3.686   2.834 -1.2481 -0.5542 -0.5437
 7485TIP3    H243871   3.963   3.590   2.930  0.9513  0.6452 -0.8345
 7486TIP3   OH243872   3.420   5.312   0.478 -0.4579  0.0435  0.0900
 7486TIP3    H143873   3.423   5.280   0.387 -0.3118  0.0890  0.0779
 7486TIP3    H243874   3.483   5.384   0.479 -1.1174  0.6250  0.0042
 7487TIP3   OH243875   2.394   3.053  17.087  0.4561  0.2762 -0.4871
 7487TIP3    H143876   2.420   3.141  17.060  2.3173  0.4484  1.5483
 7487TIP3    H243877   2.465   3.024  17.144 -0.7130 -2.0774 -0.1043
 7488TIP3   OH243878   5.762   0.286  14.672  0.2403 -0.1731  0.4021
 7488TIP3    H143879   5.761   0.337  14.753  0.3471 -0.4975  0.6084
 7488TIP3    H243880   5.683   0.315  14.625  1.3084  1.6181 -0.3868
 7489TIP3   OH243881   1.945   5.399  13.641  0.2937 -0.3703  0.0818
 7489TIP3    H143882   1.973   5.491  13.635 -1.7932  0.2758 -0.7252
 7489TIP3    H243883   1.850   5.403  13.628 -0.1730 -2.4244  2.2719
 7490TIP3   OH243884   6.620   5.442   1.389  0.4463  0.3491 -0.1041
 7490TIP3    H143885   6.607   5.373   1.453  0.8114  0.6511  0.2968
 7490TIP3    H243886   6.703   5.483   1.414  1.3609 -0.4644 -1.6190
 7491TIP3   OH243887   3.114   5.616   3.886 -0.1513 -0.5950 -0.2773
 7491TIP3    H143888   3.078   5.585   3.803 -1.4896 -1.8134  0.7014
 7491TIP3    H243889   3.067   5.697   3.904  0.0635 -0.3861 -0.6420
 7492TIP3   OH243890   0.587   0.288  11.280  0.8385 -0.3958  0.0791
 7492TIP3    H143891   0.492   0.295  11.273  0.8596  1.0724  0.7446
 7492TIP3    H243892   0.617   0.282  11.189  0.0747 -2.0479 -0.0969
 7493TIP3   OH243893   0.816   4.835  15.587 -0.2535  0.5418  0.0561
 7493TIP3    H143894   0.889   4.808  15.531  0.0844 -0.0163  0.7549
 7493TIP3    H243895   0.758   4.759  15.590 -1.4694  1.3566 -1.4151
 7494TIP3   OH243896   6.694   0.107   4.852  0.3936  0.2332  0.9075
 7494TIP3    H143897   6.783   0.129   4.881 -0.3084  1.0830  2.5186
 7494TIP3    H243898   6.660   0.188   4.815 -0.2080  0.3271  1.6406
 7495TIP3   OH243899   4.482   0.149  11.149 -0.5294 -0.6256  0.4958
 7495TIP3    H143900   4.449   0.117  11.233  1.3771 -2.4093  0.6643
 7495TIP3    H243901   4.541   0.079  11.119 -0.8133  0.1667 -2.1244
 7496TIP3   OH243902   6.390   3.813  17.188  0.1320 -0.1994  0.8448
 7496TIP3    H143903   6.459   3.747  17.194 -1.8488 -2.4951  0.0196
 7496TIP3    H243904   6.311   3.763  17.169 -2.0210  2.1811  2.8216
 7497TIP3   OH243905   2.000   0.814   5.010 -0.0378  0.2599  0.2749
 7497TIP3    H143906   1.943   0.739   4.993 -2.0648  1.4728  1.2814
 7497TIP3    H243907   2.027   0.804   5.101 -0.6499  0.9096  0.5436
 7498TIP3   OH243908   2.126   0.920  15.652 -0.6861  0.6668  0.0816
 7498TIP3    H143909   2.152   0.896  15.563 -1.0226  0.5902  0.0037
 7498TIP3    H243910   2.096   1.011  15.644  0.1076  0.9498  0.2815
 7499TIP3   OH243911   4.052   6.240  16.358 -0.1136  0.3123  0.0920
 7499TIP3    H143912   4.083   6.262  16.447 -0.7090 -0.1532  0.4172
 7499TIP3    H243913   4.010   6.155  16.368 -0.7312  0.5421 -0.5210
 7500TIP3   OH243914   1.884   1.746   2.668  0.1822  0.1941  0.3929
 7500TIP3    H143915   1.943   1.737   2.593 -1.2528 -0.9049 -0.6473
 7500TIP3    H243916   1.849   1.834   2.660 -2.1559 -0.8305 -1.9794
 7501TIP3   OH243917   4.850   4.798   4.895 -0.2334 -0.2928  0.3969
 7501TIP3    H143918   4.856   4.892   4.878  1.4432 -0.5328 -0.6228
 7501TIP3    H243919   4.870   4.758   4.810  0.1957 -1.5627  1.0758
 7502TIP3   OH243920   5.888   1.055  14.593  0.7441 -0.8670  0.5628
 7502TIP3    H143921   5.874   0.960  14.593 -1.4424 -0.6054  1.5671
 7502TIP3    H243922   5.871   1.082  14.683  0.4147  0.5764  0.0959
 7503TIP3   OH243923   5.951   2.748   0.931  0.2680 -0.1725 -0.1775
 7503TIP3    H143924   5.901   2.728   0.851  0.3959 -1.1996 -0.0138
 7503TIP3    H243925   6.010   2.819   0.905 -1.0603  0.8962 -0.4532
 7504TIP3   OH243926   6.014   1.538   2.902 -0.3666  0.0144 -0.2607
 7504TIP3    H143927   5.958   1.614   2.888  1.9834  1.6743 -1.4773
 7504TIP3    H243928   6.070   1.563   2.976  2.3808  0.8730 -2.4387
 7505TIP3   OH243929   6.670   5.179  14.416 -0.6592 -0.4533  0.3262
 7505TIP3    H143930   6.756   5.174  14.374 -1.2077  0.8507 -1.0332
 7505TIP3    H243931   6.677   5.121  14.492  0.9378 -1.5316 -0.5896
 7506TIP3   OH243932   1.980   0.397   3.955  0.0272 -0.8578 -0.3740
 7506TIP3    H143933   2.038   0.325   3.930  2.2818  0.6915  0.1376
 7506TIP3    H243934   1.943   0.369   4.039 -2.1300 -2.9859 -1.8725
 7507TIP3   OH243935   2.989   1.130   3.144 -0.3619 -0.1687  0.7902
 7507TIP3    H143936   3.045   1.053   3.152  0.2843  0.0209 -1.3985
 7507TIP3    H243937   2.992   1.171   3.231  0.9169 -1.4740  1.4077
 7508TIP3   OH243938   5.457   2.329  15.685  0.1691  0.7779  0.0594
 7508TIP3    H143939   5.374   2.303  15.644  0.3597 -0.0560  0.1795
 7508TIP3    H243940   5.524   2.296  15.626  0.5256 -2.2206  1.8763
 7509TIP3   OH243941   6.032   6.723   5.811 -0.2519  0.2685  0.2313
 7509TIP3    H143942   6.105   6.737   5.872 -0.4642 -0.0256  0.5584
 7509TIP3    H243943   5.983   6.805   5.813  0.4593  0.7128 -0.5195
 7510TIP3   OH243944   6.568   3.225  12.222 -0.4847 -0.1482  0.2233
 7510TIP3    H143945   6.546   3.145  12.175 -1.4886 -0.6291  1.4600
 7510TIP3    H243946   6.660   3.214  12.247 -0.1800 -0.2375 -0.8675
 7511TIP3   OH243947   5.561   5.384   0.387  0.1161 -0.1340 -0.3568
 7511TIP3    H143948   5.644   5.337   0.398  0.0971  0.1467  1.1555
 7511TIP3    H243949   5.519   5.379   0.473 -1.3930 -0.1813 -1.0751
 7512TIP3   OH243950   1.907   2.750   6.317 -0.1966  0.1808 -0.0118
 7512TIP3    H143951   1.822   2.715   6.290  0.1234 -0.5813 -0.0403
 7512TIP3    H243952   1.917   2.723   6.408  0.1931 -0.0792 -0.1284
 7513TIP3   OH243953   6.180   1.492  14.122 -0.0017 -0.3050  0.5453
 7513TIP3    H143954   6.268   1.522  14.145  0.3432  0.0819 -1.1647
 7513TIP3    H243955   6.193   1.408  14.079 -0.3583  0.1690 -0.5295
 7514TIP3   OH243956   5.453   3.702   0.438 -0.2425  0.4648 -0.0448
 7514TIP3    H143957   5.432   3.759   0.365 -0.3895 -0.3006 -0.6023
 7514TIP3    H243958   5.376   3.706   0.495 -0.8352 -0.3023 -0.7917
 7515TIP3   OH243959   2.480   5.313   4.755 -0.2059  0.0742  0.2305
 7515TIP3    H143960   2.557   5.261   4.777 -0.3142 -0.8845 -1.4638
 7515TIP3    H243961   2.427   5.255   4.701 -0.8730  1.5720 -0.7940
 7516TIP3   OH243962   1.276   2.621   3.687 -0.3344  0.2413 -0.0730
 7516TIP3    H143963   1.268   2.716   3.696 -0.2378  0.2354  0.0798
 7516TIP3    H243964   1.370   2.605   3.684 -0.3539  0.1821 -0.4600
 7517TIP3   OH243965   3.151   0.923  14.783 -0.1330  1.3245  0.5093
 7517TIP3    H143966   3.164   0.832  14.759  3.6789  1.3913  1.5366
 7517TIP3    H243967   3.082   0.922  14.848 -0.3309 -0.7797  0.3260
 7518TIP3   OH243968   2.374   3.005   4.267  0.2281  0.4420  0.3934
 7518TIP3    H143969   2.438   3.049   4.322 -0.4043 -0.0538  1.5563
 7518TIP3    H243970   2.364   2.918   4.305 -1.8267  0.8155  0.8493
 7519TIP3   OH243971   2.816   6.527  12.772  0.2009 -0.1335 -0.2397
 7519TIP3    H143972   2.752   6.560  12.708  1.3988  1.1295 -0.8121
 7519TIP3    H243973   2.763   6.507  12.850 -0.7707  1.8765 -0.3319
 7520TIP3   OH243974   0.275   1.300  13.723 -0.6296 -0.7852  0.2921
 7520TIP3    H143975   0.235   1.350  13.652  1.3380  0.1258 -0.2583
 7520TIP3    H243976   0.294   1.214  13.685 -0.9108 -0.7914  0.1667
 7521TIP3   OH243977   0.235   3.008   1.082 -0.4334  0.3941 -0.1503
 7521TIP3    H143978   0.276   3.052   1.157  0.6230 -0.0550 -0.4471
 7521TIP3    H243979   0.152   3.055   1.070 -1.9374 -1.1516  2.9311
 7522TIP3   OH243980   6.185   1.927  13.972 -0.1021 -0.0676 -0.1171
 7522TIP3    H143981   6.217   1.949  13.884  1.0928 -0.4894  0.1879
 7522TIP3    H243982   6.171   1.832  13.969 -0.5109 -0.0147  0.0198
 7523TIP3   OH243983   5.195   2.658   4.499  0.0035 -0.3483 -0.7117
 7523TIP3    H143984   5.133   2.611   4.555  0.4491 -0.1672 -0.0502
 7523TIP3    H243985   5.149   2.738   4.473  0.7252  0.9433  1.6763
 7524TIP3   OH243986   3.703   4.765   5.564  0.1567  0.0328 -0.0539
 7524TIP3    H143987   3.623   4.808   5.592 -0.8510 -0.6379 -1.7421
 7524TIP3    H243988   3.767   4.836   5.554 -0.7186  0.7954 -0.2873
 7525TIP3   OH243989   2.636   0.401  16.300  0.8457  0.2269  0.3005
 7525TIP3    H143990   2.559   0.345  16.302  1.0079 -0.0076  0.0595
 7525TIP3    H243991   2.639   0.442  16.386  0.7360 -0.1484  0.4838
 7526TIP3   OH243992   0.260   0.693   5.342  0.3904  0.0244  0.1338
 7526TIP3    H143993   0.233   0.672   5.252  0.6217  0.5513 -0.0635
 7526TIP3    H243994   0.351   0.721   5.334  0.4210  0.0464  0.5411
 7527TIP3   OH243995   3.396   3.396   5.021 -0.1712 -0.5599  0.4415
 7527TIP3    H143996   3.434   3.446   5.093 -0.5343 -1.4840  1.2952
 7527TIP3    H243997   3.471   3.352   4.981 -0.0153 -0.3530  0.5026
 7528TIP3   OH243998   2.750   6.392   2.132 -0.1074  0.0366  0.0351
 7528TIP3    H143999   2.714   6.360   2.050 -1.6899  1.1829  0.2374
 7528TIP3    H244000   2.778   6.482   2.112  1.0091 -0.2272  0.3505
 7529TIP3   OH244001   4.681   4.991  12.346  0.0557 -0.3914  0.0004
 7529TIP3    H144002   4.710   4.951  12.265 -0.1207 -0.2191 -0.1498
 7529TIP3    H244003   4.585   4.985  12.342 -0.0451  1.1947 -0.6245
 7530TIP3   OH244004   6.250   3.557   2.587  0.1683  0.2555  0.6118
 7530TIP3    H144005   6.334   3.603   2.592  1.1687 -1.5608  1.6017
 7530TIP3    H244006   6.246   3.524   2.497  0.2896  0.7380  0.4280
 7531TIP3   OH244007   2.790   1.701  10.354  0.2993  0.2657 -0.2546
 7531TIP3    H144008   2.784   1.791  10.324  0.7093  0.2986 -0.2477
 7531TIP3    H244009   2.879   1.674  10.332  0.4699  0.1488  0.5318
 7532TIP3   OH244010   1.571   4.967  15.962 -0.0545 -0.2715  0.2936
 7532TIP3    H144011   1.616   4.887  15.988  0.2721 -0.0776  0.3369
 7532TIP3    H244012   1.631   5.038  15.989 -0.5425  0.0032  0.6650
 7533TIP3   OH244013   3.534   4.935  14.318 -0.0367 -0.1529 -0.3879
 7533TIP3    H144014   3.463   4.872  14.331  0.4853 -1.0232 -1.5656
 7533TIP3    H244015   3.613   4.888  14.346  0.2584  0.2980 -0.4563
 7534TIP3   OH244016   6.504   1.029  12.912  0.1784  0.9875  0.3797
 7534TIP3    H144017   6.582   1.014  12.965 -0.4194 -0.3148  0.9569
 7534TIP3    H244018   6.435   1.049  12.976 -1.2240 -3.3086  0.5466
 7535TIP3   OH244019   5.685   5.099   0.180  0.6867  0.0845  0.1411
 7535TIP3    H144020   5.635   5.044   0.240  2.4372 -0.8237  0.8347
 7535TIP3    H244021   5.670   5.060   0.093 -0.4145  0.3080  0.2221
 7536TIP3   OH244022   2.021   5.624   2.698  0.3874 -0.0727  0.0956
 7536TIP3    H144023   2.071   5.609   2.618 -0.3251  0.1960 -0.4038
 7536TIP3    H244024   1.940   5.575   2.686 -1.3390  2.7717 -0.9386
 7537TIP3   OH244025   4.672   5.543  15.543 -0.2407  0.5896  0.5058
 7537TIP3    H144026   4.593   5.593  15.524 -1.2134 -0.9440  0.3304
 7537TIP3    H244027   4.663   5.463  15.492  2.1097  0.9425 -0.6348
 7538TIP3   OH244028   2.523   6.294  14.490  0.6101 -0.6346  0.4760
 7538TIP3    H144029   2.529   6.200  14.508  2.5986 -0.6480  0.0385
 7538TIP3    H244030   2.614   6.324  14.493  0.1149  1.0817 -0.4400
 7539TIP3   OH244031   6.186   5.488  11.683  0.6300  0.6474 -0.2579
 7539TIP3    H144032   6.256   5.515  11.623  2.0049 -0.2863  0.8725
 7539TIP3    H244033   6.155   5.404  11.649  0.6541  0.6409 -0.2624
 7540TIP3   OH244034   2.832   0.868   1.576 -0.5972 -0.3038 -0.3483
 7540TIP3    H144035   2.829   0.866   1.480  0.3095 -1.8294 -0.3861
 7540TIP3    H244036   2.923   0.891   1.597 -1.2293  1.9671  0.2115
 7541TIP3   OH244037   2.739   6.509   1.272 -0.9709 -0.1923 -0.1352
 7541TIP3    H144038   2.817   6.468   1.234 -1.5522  0.0771 -1.6551
 7541TIP3    H244039   2.671   6.442   1.266 -1.8725  0.8327 -2.4449
 7542TIP3   OH244040   2.384   4.819   1.332  0.1538  0.6906  0.3797
 7542TIP3    H144041   2.476   4.793   1.322  0.2353 -0.0609  2.5603
 7542TIP3    H244042   2.388   4.913   1.347  0.4719  0.8285 -0.5048
 7543TIP3   OH244043   1.621   0.671   4.573 -0.1970 -0.0094  0.1047
 7543TIP3    H144044   1.657   0.740   4.629  3.0256 -1.1441 -0.3637
 7543TIP3    H244045   1.594   0.602   4.634 -1.9744  0.9375  0.4723
 7544TIP3   OH244046   6.523   3.311  15.409  0.0368  0.0555 -0.0275
 7544TIP3    H144047   6.508   3.360  15.489  1.1445  0.9389 -0.3197
 7544TIP3    H244048   6.463   3.350  15.345  0.3486  0.5139 -0.0497
 7545TIP3   OH244049   2.749   5.689   2.246  0.0807 -0.3555  0.1026
 7545TIP3    H144050   2.687   5.742   2.197 -1.5452 -0.8956  1.4929
 7545TIP3    H244051   2.835   5.713   2.211 -0.9946 -1.1837 -3.4552
 7546TIP3   OH244052   0.768   2.909   5.986 -0.1601 -0.8122  0.3794
 7546TIP3    H144053   0.700   2.885   5.922 -1.3495 -2.3080  2.0979
 7546TIP3    H244054   0.849   2.874   5.949  0.0589  2.1022 -2.3356
 7547TIP3   OH244055   1.097   3.682   2.606 -0.3248  0.4659 -0.2825
 7547TIP3    H144056   1.127   3.616   2.544 -1.8264  0.9672 -1.6319
 7547TIP3    H244057   1.174   3.704   2.658  0.5955 -1.1377 -0.9026
 7548TIP3   OH244058   3.766   3.740  14.546 -0.4387 -0.1633 -0.0724
 7548TIP3    H144059   3.735   3.657  14.582  1.4051 -0.3515  1.2123
 7548TIP3    H244060   3.837   3.715  14.487  0.9415  0.5243  1.2426
 7549TIP3   OH244061   5.546   6.081  15.130 -0.0233 -0.0269 -0.2704
 7549TIP3    H144062   5.478   6.072  15.196 -0.8841 -0.0695 -1.1515
 7549TIP3    H244063   5.527   6.012  15.066  0.8292 -0.0246 -0.5404
 7550TIP3   OH244064   2.917   1.395  12.814  0.3683 -0.1540  0.1545
 7550TIP3    H144065   2.992   1.406  12.756  0.8298  2.0610  1.0703
 7550TIP3    H244066   2.843   1.377  12.755  1.2001 -0.1153 -0.9241
 7551TIP3   OH244067   3.557   1.736   5.499  0.0880  0.5180  0.4451
 7551TIP3    H144068   3.536   1.654   5.543  2.1217 -0.3056 -0.0059
 7551TIP3    H244069   3.572   1.798   5.569  0.4154 -0.0038  0.8424
 7552TIP3   OH244070   0.320   1.778   2.850 -0.2840  0.0296 -0.4505
 7552TIP3    H144071   0.332   1.775   2.945 -0.7624  0.9078 -0.3588
 7552TIP3    H244072   0.232   1.814   2.838 -0.2239 -0.0753 -1.2282
 7553TIP3   OH244073   4.415   3.943  14.878  0.0701 -0.2792 -0.3837
 7553TIP3    H144074   4.481   3.959  14.810 -0.6487 -2.1337 -1.5903
 7553TIP3    H244075   4.466   3.940  14.960  1.3843 -0.8799 -1.1863
 7554TIP3   OH244076   2.086   2.033   3.396  0.4251  0.6646  0.3618
 7554TIP3    H144077   2.038   2.109   3.362  0.3846  0.1630 -0.7477
 7554TIP3    H244078   2.067   1.963   3.334  0.6224 -0.2125  1.2632
 7555TIP3   OH244079   5.499   1.426  12.141  0.6018  0.5451  0.0233
 7555TIP3    H144080   5.525   1.443  12.051  1.5006  0.0505  0.1745
 7555TIP3    H244081   5.578   1.443  12.192  0.3835 -0.1340  0.6045
 7556TIP3   OH244082   0.868   6.739  11.249  0.2989 -0.3633  0.4508
 7556TIP3    H144083   0.904   6.677  11.186  1.4889 -0.9448  1.6654
 7556TIP3    H244084   0.910   6.823  11.227 -0.4805 -0.1948 -0.4900
 7557TIP3   OH244085   5.340   0.774  16.547 -0.0994 -0.5356  0.0625
 7557TIP3    H144086   5.402   0.812  16.609  2.1574  0.3876 -2.5093
 7557TIP3    H244087   5.318   0.845  16.487 -1.1111 -1.6601 -0.9744
 7558TIP3   OH244088   3.642   6.561   0.858 -0.0468 -0.3093  0.0491
 7558TIP3    H144089   3.686   6.504   0.921  1.1337  0.3052 -0.1959
 7558TIP3    H244090   3.592   6.502   0.803  2.0654 -1.2726 -0.9454
 7559TIP3   OH244091   2.478   5.797   1.585 -0.0951 -0.0883 -0.0215
 7559TIP3    H144092   2.428   5.755   1.515 -0.6170  1.6477 -0.7687
 7559TIP3    H244093   2.563   5.814   1.546 -0.3396  0.7509 -0.2215
 7560TIP3   OH244094   0.405   6.617  16.343 -0.3619  0.6839 -0.2432
 7560TIP3    H144095   0.432   6.700  16.383  1.9889  0.1296 -0.5018
 7560TIP3    H244096   0.442   6.549  16.400 -0.6802 -0.1687 -1.0165
 7561TIP3   OH244097   5.076   0.748  15.291  0.5230  0.2444 -0.0584
 7561TIP3    H144098   5.022   0.758  15.212 -0.4299 -0.3581  0.4980
 7561TIP3    H244099   5.036   0.807  15.355  0.7790  0.0950  0.2399
 7562TIP3   OH244100   0.484   0.093  16.486 -0.2842 -0.1692 -0.2335
 7562TIP3    H144101   0.450   0.165  16.433 -0.3177  0.7164  0.9652
 7562TIP3    H244102   0.579   0.101  16.480 -0.2901  0.1625  0.1659
 7563TIP3   OH244103   4.573   4.812  16.501  0.3291 -0.8704 -0.2549
 7563TIP3    H144104   4.552   4.896  16.460 -2.0719 -1.8910 -1.3156
 7563TIP3    H244105   4.554   4.825  16.594  0.5841 -0.0625 -0.3120
 7564TIP3   OH244106   2.139   1.534  11.916  0.5099 -0.5414  0.1477
 7564TIP3    H144107   2.097   1.558  11.999  1.0266 -0.2395  0.3213
 7564TIP3    H244108   2.136   1.438  11.915  2.1687 -0.6375  1.3912
 7565TIP3   OH244109   6.115   6.231  13.028  0.6128  0.8475 -0.2548
 7565TIP3    H144110   6.176   6.166  13.064  0.5169  0.5262 -0.6607
 7565TIP3    H244111   6.030   6.205  13.063  0.6895  1.2350  0.2299
 7566TIP3   OH244112   2.133   1.081  13.521  0.4042 -0.4321  0.1715
 7566TIP3    H144113   2.130   1.102  13.615  1.7358 -2.5321  0.7330
 7566TIP3    H244114   2.068   1.012  13.510  0.2046 -0.1439 -0.4840
 7567TIP3   OH244115   3.038   1.142  11.946 -0.2636 -0.7640  0.1829
 7567TIP3    H144116   2.956   1.185  11.970  0.3419  1.0424 -0.8243
 7567TIP3    H244117   3.091   1.146  12.025 -0.4836 -0.2868  0.3100
 7568TIP3   OH244118   0.181   0.865  13.299  0.0449 -0.3381 -0.0395
 7568TIP3    H144119   0.260   0.812  13.301 -0.1790 -0.6534  0.9636
 7568TIP3    H244120   0.117   0.814  13.349 -0.6078  0.1986 -0.3181
 7569TIP3   OH244121   1.522   2.856  13.074 -0.0929 -0.7536  0.4054
 7569TIP3    H144122   1.581   2.791  13.036  0.7606  0.2544 -0.0375
 7569TIP3    H244123   1.436   2.834  13.038  0.6370  0.0025 -1.9614
 7570TIP3   OH244124   4.439   6.422  11.315 -0.1633 -0.1218 -0.6568
 7570TIP3    H144125   4.446   6.399  11.408  1.0686 -2.0808 -1.1848
 7570TIP3    H244126   4.513   6.480  11.300 -0.0449 -0.2377 -0.5303
 7571TIP3   OH244127   3.704   2.226   2.240 -0.5547 -0.0276 -0.2445
 7571TIP3    H144128   3.742   2.226   2.328 -1.2757  1.2109  0.0975
 7571TIP3    H244129   3.780   2.228   2.181 -0.0748  0.2736  0.3709
 7572TIP3   OH244130   3.677   4.933  13.986 -0.5004 -0.4035  0.3688
 7572TIP3    H144131   3.712   5.014  13.949  0.2374 -0.1539  1.5552
 7572TIP3    H244132   3.588   4.956  14.012 -0.4032 -0.0610  0.4073
 7573TIP3   OH244133   4.133   1.063   5.479 -0.5189  0.3512 -0.3609
 7573TIP3    H144134   4.220   1.022   5.484 -0.6537  0.1713  0.7009
 7573TIP3    H244135   4.090   1.037   5.560 -1.0257  1.6898 -0.1835
 7574TIP3   OH244136   1.971   3.638  11.454  0.2141 -0.2987 -0.2662
 7574TIP3    H144137   1.953   3.571  11.388  0.7878 -1.5206  0.7626
 7574TIP3    H244138   1.886   3.653  11.496  0.2247 -0.9862  0.0219
 7575TIP3   OH244139   6.063   4.522   0.037 -0.0487  0.0109  0.0600
 7575TIP3    H144140   6.001   4.499   0.107 -0.1141 -0.3180 -0.1012
 7575TIP3    H244141   6.143   4.474   0.059 -0.3731 -0.8757 -0.5926
 7576TIP3   OH244142   2.005   4.241   2.077  0.5442 -0.2014  0.1533
 7576TIP3    H144143   1.955   4.254   2.158 -0.8847  0.7783 -0.8333
 7576TIP3    H244144   2.060   4.319   2.070  0.2194  0.0071 -0.1128
 7577TIP3   OH244145   2.742   4.530  12.325 -0.3018 -0.1783  0.2905
 7577TIP3    H144146   2.798   4.470  12.375  2.3297  0.0740 -2.0853
 7577TIP3    H244147   2.714   4.478  12.250  1.6265  1.3091 -1.5581
 7578TIP3   OH244148   2.212   1.234   1.223  0.2198 -0.3671  0.0605
 7578TIP3    H144149   2.235   1.264   1.135  0.7118  0.5765  0.4960
 7578TIP3    H244150   2.117   1.244   1.227  0.0432 -1.5353 -0.7547
 7579TIP3   OH244151   4.268   1.614   5.775 -0.6440  0.7226  0.1601
 7579TIP3    H144152   4.269   1.561   5.855  0.3199 -1.2921 -1.1191
 7579TIP3    H244153   4.201   1.681   5.791 -0.8741  0.0272  2.4064
 7580TIP3   OH244154   0.535   2.519  14.221  0.2188 -0.7486 -0.0118
 7580TIP3    H144155   0.537   2.593  14.160 -0.9237 -1.3231 -0.7887
 7580TIP3    H244156   0.491   2.449  14.173  0.7861 -1.7699  0.8974
 7581TIP3   OH244157   1.693   5.094   1.602  0.1485  0.4642  0.4197
 7581TIP3    H144158   1.654   5.017   1.561  0.5481  0.6525 -0.3223
 7581TIP3    H244159   1.628   5.121   1.667 -0.0987 -0.3592  0.5332
 7582TIP3   OH244160   4.598   1.627   3.304  0.3545  0.0259 -0.3586
 7582TIP3    H144161   4.590   1.645   3.398 -1.7925 -1.3742 -0.1918
 7582TIP3    H244162   4.601   1.713   3.263  1.3690  0.6641  0.9700
 7583TIP3   OH244163   1.861   0.365  13.543  0.0350  0.1345  0.0200
 7583TIP3    H144164   1.851   0.341  13.451 -0.8292  1.3618 -0.2251
 7583TIP3    H244165   1.955   0.369  13.557  0.1718 -0.3612 -0.7252
 7584TIP3   OH244166   0.762   0.064   1.974  0.2319 -0.3336 -0.3293
 7584TIP3    H144167   0.826   0.135   1.979 -0.1085  0.2615 -2.8541
 7584TIP3    H244168   0.811  -0.015   1.999  0.5118  0.7385  2.9300
 7585TIP3   OH244169   1.206   2.845  13.352 -0.5822  0.4913 -0.5558
 7585TIP3    H144170   1.283   2.886  13.392 -0.3039 -0.0351 -0.5390
 7585TIP3    H244171   1.137   2.911  13.360 -0.1724  0.9176 -0.4416
 7586TIP3   OH244172   2.994   3.894  11.610  0.2289  0.3139  0.3818
 7586TIP3    H144173   2.940   3.973  11.603  1.4587  1.2242  0.7548
 7586TIP3    H244174   2.970   3.842  11.534  0.2760  1.6264 -0.5633
 7587TIP3   OH244175   1.828   1.213   4.175 -0.0528  0.0476 -0.6715
 7587TIP3    H144176   1.795   1.130   4.210  2.0040 -0.9203 -0.8997
 7587TIP3    H244177   1.856   1.262   4.252 -0.2803  0.0995 -0.6191
 7588TIP3   OH244178   0.448   6.112   2.195  0.0392  0.5984  0.4621
 7588TIP3    H144179   0.505   6.170   2.246 -0.7260  0.6817  1.2328
 7588TIP3    H244180   0.467   6.135   2.104  0.6986  1.1471  0.7283
 7589TIP3   OH244181   5.688   3.035   4.373 -0.2778 -0.4089 -0.5119
 7589TIP3    H144182   5.664   3.091   4.299 -0.6535  2.1626  1.3778
 7589TIP3    H244183   5.784   3.040   4.376 -0.2752 -0.3245 -0.7077
 7590TIP3   OH244184   2.085   2.557  10.931  0.2969  0.1892 -0.0016
 7590TIP3    H144185   1.997   2.549  10.968  1.0421 -1.3484  1.5674
 7590TIP3    H244186   2.104   2.650  10.932 -1.1095  0.4952  0.1130
 7591TIP3   OH244187   5.357   4.655   6.595  0.2142  0.1390  0.0994
 7591TIP3    H144188   5.420   4.722   6.620 -0.4784  1.7746 -2.2037
 7591TIP3    H244189   5.328   4.681   6.507  1.2992 -4.1590 -1.7879
 7592TIP3   OH244190   5.003   4.162   1.492 -0.2526 -0.1625 -0.7664
 7592TIP3    H144191   4.921   4.112   1.484 -0.1741 -0.2128 -1.2590
 7592TIP3    H244192   4.975   4.253   1.496 -0.4791 -0.2732  1.2734
 7593TIP3   OH244193   5.769   4.467   4.777 -0.2842  0.0583 -0.1572
 7593TIP3    H144194   5.811   4.410   4.842 -0.5570  0.2444  0.1818
 7593TIP3    H244195   5.838   4.528   4.751 -0.7131  1.2949  1.4698
 7594TIP3   OH244196   5.847   2.654   3.402  0.4962  0.2305 -0.3525
 7594TIP3    H144197   5.853   2.604   3.320 -0.4642  0.3649 -0.5134
 7594TIP3    H244198   5.763   2.627   3.440 -0.7181  2.6615 -1.0890
 7595TIP3   OH244199   6.699   3.661   1.606  0.0709  0.1539 -0.5079
 7595TIP3    H144200   6.749   3.676   1.686 -0.2044 -0.5361 -0.1955
 7595TIP3    H244201   6.754   3.697   1.536  0.4302  0.5302 -0.0390
 7596TIP3   OH244202   5.525   1.240  14.037  0.1297  0.3833 -0.2395
 7596TIP3    H144203   5.544   1.229  14.130  0.1698 -0.4882 -0.3437
 7596TIP3    H244204   5.462   1.312  14.033 -1.3320 -0.8007  0.6185
 7597TIP3   OH244205   0.003   4.061   6.457 -0.0615 -0.7406  0.2142
 7597TIP3    H144206  -0.084   4.095   6.478  0.2946 -0.3093  1.0241
 7597TIP3    H244207   0.037   4.027   6.539  2.8196  4.2345  1.4988
 7598TIP3   OH244208   1.879   5.953   4.405 -0.0187 -0.6165 -0.2730
 7598TIP3    H144209   1.831   6.012   4.348 -0.4990  0.5092  1.2308
 7598TIP3    H244210   1.968   5.953   4.371 -0.2300  0.2514 -0.8528
 7599TIP3   OH244211   0.238   4.123  16.629 -0.0136  0.7964  0.0835
 7599TIP3    H144212   0.208   4.208  16.597  0.7883  1.0584  0.0180
 7599TIP3    H244213   0.171   4.061  16.599  0.4823  1.0885 -1.7351
 7600TIP3   OH244214   1.968   5.806  13.870 -0.0011 -0.2790 -0.2357
 7600TIP3    H144215   1.994   5.757  13.947 -2.1626 -1.0057  0.0802
 7600TIP3    H244216   2.044   5.802  13.812  1.8545  0.6753  1.9686
 7601TIP3   OH244217   0.213   4.928  13.642  1.0056 -0.5664 -0.1115
 7601TIP3    H144218   0.196   4.862  13.710 -0.8330  0.0594  0.0720
 7601TIP3    H244219   0.167   4.896  13.565  2.7224 -1.0443 -0.9829
 7602TIP3   OH244220   5.489   2.155   1.897 -0.7489 -0.5937 -0.2832
 7602TIP3    H144221   5.445   2.236   1.922  1.0460 -0.1026  1.4850
 7602TIP3    H244222   5.556   2.142   1.963  1.3447 -1.6520 -2.4516
 7603TIP3   OH244223   5.814   6.463   4.964  0.0131  0.6948 -0.1572
 7603TIP3    H144224   5.895   6.476   4.913  0.1781  1.1967  0.2238
 7603TIP3    H244225   5.840   6.404   5.035 -0.2595 -0.1522 -0.7387
 7604TIP3   OH244226   1.233   0.724   1.658  0.0501 -0.6797 -0.4431
 7604TIP3    H144227   1.327   0.705   1.652  0.2604 -0.1535  0.7903
 7604TIP3    H244228   1.206   0.686   1.741 -0.3088  1.1518  0.3290
 7605TIP3   OH244229   2.021   3.845  15.133  0.4652 -0.0376 -0.3357
 7605TIP3    H144230   1.993   3.930  15.167  1.1384  0.3824 -0.8221
 7605TIP3    H244231   2.033   3.859  15.039  1.7603 -0.3353 -0.2336
 7606TIP3   OH244232   0.543   0.637  12.820  0.2083  0.4133  0.2374
 7606TIP3    H144233   0.534   0.655  12.726 -0.1380  0.5677  0.2996
 7606TIP3    H244234   0.464   0.672  12.859 -0.0887 -0.4826  0.4722
 7607TIP3   OH244235   2.291   0.344  13.409 -0.5980 -0.0071  0.0267
 7607TIP3    H144236   2.287   0.336  13.314 -0.9552  0.4842 -0.0002
 7607TIP3    H244237   2.353   0.276  13.436  0.1834  0.4271 -0.6375
 7608TIP3   OH244238   3.315   4.957   4.510  0.0757 -0.7643 -0.6169
 7608TIP3    H144239   3.228   4.975   4.546  0.1819 -0.3929 -0.5357
 7608TIP3    H244240   3.309   4.868   4.476  0.0290 -1.1946  0.4810
 7609TIP3   OH244241   0.307   0.588  14.107 -0.4942 -0.0585  0.0425
 7609TIP3    H144242   0.224   0.605  14.062 -0.0744  0.6485 -0.5000
 7609TIP3    H244243   0.367   0.653  14.069  0.3724 -0.7506  0.2203
 7610TIP3   OH244244   3.051   0.799   0.951 -0.4429  0.2990  1.0160
 7610TIP3    H144245   3.039   0.727   0.890  1.4799  0.7707 -0.0037
 7610TIP3    H244246   3.052   0.757   1.037  0.7444 -0.9488  0.4413
 7611TIP3   OH244247   1.083   1.929  14.150 -0.2592 -0.4319 -0.1987
 7611TIP3    H144248   0.990   1.908  14.153  0.1518 -2.4187  0.0696
 7611TIP3    H244249   1.115   1.907  14.238  0.3874  0.7578 -0.1118
 7612TIP3   OH244250   4.248   1.425   4.338 -0.2524 -0.2761 -0.1964
 7612TIP3    H144251   4.297   1.495   4.380  0.1115 -1.3132  1.1816
 7612TIP3    H244252   4.250   1.447   4.245  0.4698  1.1448  0.1297
 7613TIP3   OH244253   1.369   0.164   1.671  0.3655  0.6117 -0.1060
 7613TIP3    H144254   1.365   0.250   1.713 -0.1738  0.0488  1.0251
 7613TIP3    H244255   1.316   0.107   1.726 -1.7511  0.1703 -2.4214
 7614TIP3   OH244256   6.637   6.289  13.281 -0.4149 -0.5915 -0.1814
 7614TIP3    H144257   6.546   6.295  13.252 -0.5101 -1.5949 -0.1411
 7614TIP3    H244258   6.649   6.196  13.302  0.8629 -0.6355 -0.9951
 7615TIP3   OH244259   0.875   2.683  16.984  0.2662 -0.0916 -0.2807
 7615TIP3    H144260   0.952   2.703  16.931  0.9928 -0.4734  0.6052
 7615TIP3    H244261   0.899   2.605  17.034  0.2727  1.2099  1.8923
 7616TIP3   OH244262   1.665   1.865   1.491 -0.1666  0.3464 -0.3379
 7616TIP3    H144263   1.579   1.883   1.529 -0.3946 -0.4520 -0.4540
 7616TIP3    H244264   1.717   1.831   1.564 -0.7642 -1.6961 -0.8013
 7617TIP3   OH244265   4.265   2.634   6.135 -0.0947  0.3357 -0.4782
 7617TIP3    H144266   4.311   2.618   6.217  0.8313  3.7494 -0.1707
 7617TIP3    H244267   4.327   2.607   6.067  0.5858  0.7848 -0.0431
 7618TIP3   OH244268   3.723   0.233  14.528 -0.3559 -0.1054  0.0325
 7618TIP3    H144269   3.648   0.273  14.571  0.4213  1.2336  0.2062
 7618TIP3    H244270   3.786   0.218  14.598 -0.0220 -0.1765 -0.2784
 7619TIP3   OH244271   6.446   1.949  16.461  0.1652  0.3425  0.2837
 7619TIP3    H144272   6.403   1.864  16.468  0.3381  0.1264 -1.1023
 7619TIP3    H244273   6.479   1.952  16.372  2.3713  0.8213  1.0486
 7620TIP3   OH244274   6.061   6.507  14.563  0.3030 -0.5478  0.0723
 7620TIP3    H144275   6.096   6.591  14.535  0.7293 -0.8589 -0.3540
 7620TIP3    H244276   6.030   6.466  14.482  2.0404 -1.6896 -0.0594
 7621TIP3   OH244277   0.837   2.976   0.586 -0.3437 -0.1685 -0.5062
 7621TIP3    H144278   0.876   3.026   0.514  0.9060 -0.6938 -0.2178
 7621TIP3    H244279   0.853   3.030   0.664 -0.8347 -0.0529 -0.4845
 7622TIP3   OH244280   5.090   5.619  14.754  0.2298 -0.2411 -0.0224
 7622TIP3    H144281   5.048   5.705  14.758  1.1191  0.2341 -0.7188
 7622TIP3    H244282   5.061   5.576  14.835  0.9914  1.2815  1.1244
 7623TIP3   OH244283   6.395   2.781  10.803 -0.3605 -0.1539 -0.3570
 7623TIP3    H144284   6.474   2.763  10.854  0.9733 -2.4000 -2.9898
 7623TIP3    H244285   6.426   2.831  10.728 -1.3458 -1.4250 -1.6569
 7624TIP3   OH244286   5.035   1.092  11.705 -0.1656  0.4098 -0.8790
 7624TIP3    H144287   4.976   1.112  11.778  0.2036  0.2237 -0.5237
 7624TIP3    H244288   5.033   0.997  11.697 -0.1977  0.4283 -1.1116
 7625TIP3   OH244289   0.142   4.563   4.499 -0.2699  0.4890 -0.9508
 7625TIP3    H144290   0.222   4.612   4.518 -0.4258  0.1937  0.5855
 7625TIP3    H244291   0.071   4.618   4.532 -0.5152 -0.3042 -0.1303
 7626TIP3   OH244292   3.695   5.415  15.696 -0.1856  0.7143 -0.0603
 7626TIP3    H144293   3.714   5.455  15.781 -0.2713  3.1757 -1.1311
 7626TIP3    H244294   3.779   5.417  15.650 -0.1266 -0.6601 -0.0623
 7627TIP3   OH244295   2.340   2.250   5.819  0.3924  0.3575 -0.2106
 7627TIP3    H144296   2.365   2.262   5.911 -0.6895  2.8762 -0.1665
 7627TIP3    H244297   2.390   2.173   5.791  1.3736 -0.0090  2.2365
 7628TIP3   OH244298   4.638   5.570   2.733  0.6373  0.6017  0.1366
 7628TIP3    H144299   4.631   5.664   2.753 -2.5585  0.2586  1.2617
 7628TIP3    H244300   4.630   5.527   2.818 -1.0127 -0.6952 -0.6179
 7629TIP3   OH244301   4.415   5.866  12.855 -0.0870  0.1726 -0.3929
 7629TIP3    H144302   4.508   5.889  12.865 -0.5010  1.6695  0.2679
 7629TIP3    H244303   4.414   5.804  12.781  1.4904 -0.3546 -0.0291
 7630TIP3   OH244304   2.057   2.303  14.538 -0.1198 -0.2697  0.0004
 7630TIP3    H144305   2.103   2.368  14.591 -3.6893  1.7072  1.0016
 7630TIP3    H244306   2.013   2.247  14.601 -0.7453 -0.7789 -0.8664
 7631TIP3   OH244307   6.095   6.152  15.833 -0.1789 -0.4607  0.0074
 7631TIP3    H144308   6.157   6.120  15.899  0.9586 -0.2910 -0.9490
 7631TIP3    H244309   6.023   6.189  15.884  1.2107  0.7467  1.2027
 7632TIP3   OH244310   3.118   1.352   1.044 -0.6090  0.5445  0.5422
 7632TIP3    H144311   3.203   1.384   1.015  0.2279 -1.8825  0.1330
 7632TIP3    H244312   3.128   1.337   1.138 -0.5449  0.1740  0.4781
 7633TIP3   OH244313   2.077   3.762  17.068  0.0879  0.1010 -0.0308
 7633TIP3    H144314   1.991   3.721  17.082 -0.5796  1.3639 -0.2441
 7633TIP3    H244315   2.122   3.751  17.151  0.0410 -1.2836 -0.1695
 7634TIP3   OH244316   3.901   1.312  13.448 -0.5507  0.1804  0.2943
 7634TIP3    H144317   3.934   1.245  13.507 -0.4505  0.1917  0.2505
 7634TIP3    H244318   3.936   1.288  13.362  1.8146  1.8078  0.6953
 7635TIP3   OH244319   0.657   4.958  11.197  0.6818  0.3975  0.8542
 7635TIP3    H144320   0.569   4.974  11.230  0.6032 -0.8641  1.2810
 7635TIP3    H244321   0.644   4.936  11.105  0.7205  1.8249  0.4765
 7636TIP3   OH244322   5.771   1.201  15.892 -0.4985 -0.1349 -0.5721
 7636TIP3    H144323   5.800   1.198  15.800 -2.3898  0.3349 -1.2267
 7636TIP3    H244324   5.678   1.177  15.888 -0.5826 -0.1821  1.2382
 7637TIP3   OH244325   3.863   0.604  12.416  0.2897  0.4380 -0.1117
 7637TIP3    H144326   3.771   0.625  12.432  0.1731 -0.1776  0.0747
 7637TIP3    H244327   3.883   0.646  12.332  0.4267  2.2895  0.8201
 7638TIP3   OH244328   4.472   0.004  12.343 -0.3001 -0.0775  0.6127
 7638TIP3    H144329   4.459  -0.053  12.419 -0.6631 -0.2322  0.4352
 7638TIP3    H244330   4.418  -0.034  12.274 -0.9556  0.7612  0.6401
 7639TIP3   OH244331   1.458   5.309   2.200  0.4125  0.4172  0.2052
 7639TIP3    H144332   1.524   5.370   2.231  0.5825 -0.0866  0.8515
 7639TIP3    H244333   1.494   5.276   2.117  0.8606  0.3366  0.4246
 7640TIP3   OH244334   1.768   5.853   6.710  0.1755 -0.1798 -0.8291
 7640TIP3    H144335   1.717   5.933   6.724 -0.2613 -0.7432  1.0784
 7640TIP3    H244336   1.704   5.786   6.689  0.5186 -0.1190 -2.1607
 7641TIP3   OH244337   0.530   2.422  13.796 -0.5497  0.1551  0.1251
 7641TIP3    H144338   0.497   2.391  13.712  1.5887 -3.4236  0.4106
 7641TIP3    H244339   0.452   2.455  13.841 -2.1516 -0.0030 -2.3339
 7642TIP3   OH244340   3.272   0.213  15.117 -0.6337  0.0931 -0.6905
 7642TIP3    H144341   3.270   0.266  15.197 -1.2346  0.7462 -1.1300
 7642TIP3    H244342   3.206   0.253  15.060 -1.1106 -1.1386 -1.0315
 7643TIP3   OH244343   3.618   0.855   3.335  0.2921  0.0388  0.0544
 7643TIP3    H144344   3.573   0.809   3.264  1.0922 -0.6190 -0.0284
 7643TIP3    H244345   3.630   0.944   3.302  1.7567 -0.5756 -1.1370
 7644TIP3   OH244346   2.248   1.509  14.357 -0.8347  0.1592  0.3303
 7644TIP3    H144347   2.334   1.548  14.338 -0.5620  0.2895  1.7371
 7644TIP3    H244348   2.245   1.430  14.303 -0.5555  1.0427 -1.0396
 7645TIP3   OH244349   0.372   2.189   3.052  0.0741  0.3258  0.5058
 7645TIP3    H144350   0.351   2.179   3.145 -0.3038 -0.1746  0.3759
 7645TIP3    H244351   0.463   2.160   3.045 -0.7009 -2.3251  0.3066
 7646TIP3   OH244352   0.973   2.710  15.063  0.1117  0.1316 -0.4816
 7646TIP3    H144353   0.907   2.686  15.129 -0.3777  0.4024 -0.8599
 7646TIP3    H244354   0.985   2.805  15.075 -0.6750  0.3611 -1.3811
 7647TIP3   OH244355   6.233   4.503   4.195 -0.0205  0.7573  0.4443
 7647TIP3    H144356   6.273   4.443   4.257  1.5936 -0.0809 -1.2870
 7647TIP3    H244357   6.306   4.538   4.145 -1.2779  0.1467 -2.0311
 7648TIP3   OH244358   6.693   0.620  14.240  0.1278  0.1610 -0.7070
 7648TIP3    H144359   6.724   0.688  14.300  3.3157 -1.0323 -0.8265
 7648TIP3    H244360   6.613   0.587  14.281  0.5465  1.4374  1.2771
 7649TIP3   OH244361   4.339   3.947  11.357 -0.6024 -0.0629  0.8889
 7649TIP3    H144362   4.249   3.949  11.324  0.1101  0.1695 -1.2144
 7649TIP3    H244363   4.355   3.856  11.380 -0.7485 -0.4987 -0.6603
 7650TIP3   OH244364   4.230   5.547  15.793  0.1582  0.2395  0.4419
 7650TIP3    H144365   4.250   5.463  15.835  0.9321  0.4780  0.5708
 7650TIP3    H244366   4.287   5.610  15.838  0.6921  0.5770 -0.6733
 7651TIP3   OH244367   4.417   1.568   4.631 -0.1132 -0.2647 -0.2500
 7651TIP3    H144368   4.491   1.609   4.676 -1.2012 -0.3383  1.7200
 7651TIP3    H244369   4.421   1.603   4.542  2.1838 -0.1721 -0.1683
 7652TIP3   OH244370   4.854   5.178  12.815 -0.0003 -0.2150 -0.7860
 7652TIP3    H144371   4.948   5.194  12.816  0.0062  0.1697  1.9778
 7652TIP3    H244372   4.845   5.084  12.800  0.8613 -0.3403 -0.5466
 7653TIP3   OH244373   3.902   1.969   5.350  0.7010 -0.3430  0.8948
 7653TIP3    H144374   3.982   1.970   5.297  0.3097  0.8357  0.2975
 7653TIP3    H244375   3.843   1.910   5.302  0.2431  0.9422 -0.1886
 7654TIP3   OH244376   0.821   1.006  14.454 -0.4743  0.8611  0.5151
 7654TIP3    H144377   0.794   1.086  14.409 -1.7569  0.3092  0.2494
 7654TIP3    H244378   0.803   0.936  14.392  1.3184  0.3946  0.4596
 7655TIP3   OH244379   0.187   4.983  14.147  0.2180  0.3478 -0.4870
 7655TIP3    H144380   0.194   5.030  14.231  0.4402  1.0063 -0.8686
 7655TIP3    H244381   0.128   5.038  14.094  0.5052  0.2113 -0.9480
 7656TIP3   OH244382   0.286   1.804   4.284 -0.3765  0.3423 -0.1014
 7656TIP3    H144383   0.356   1.854   4.242 -1.5481 -0.0818 -2.7501
 7656TIP3    H244384   0.288   1.832   4.375  2.1049  1.6142 -0.4593
 7657TIP3   OH244385   0.425   3.077   0.510  0.2686 -0.0973 -0.0351
 7657TIP3    H144386   0.481   3.011   0.470  0.8199  0.2925  0.0694
 7657TIP3    H244387   0.342   3.070   0.464  0.5135 -0.4551 -0.4286
 7658TIP3   OH244388   3.537   0.966  15.233 -0.2255  0.1893  0.3447
 7658TIP3    H144389   3.455   0.977  15.280 -0.4185 -0.7013  0.2343
 7658TIP3    H244390   3.536   1.035  15.166  0.0513  1.4705  1.6047
 7659TIP3   OH244391   1.722   3.419  13.294 -0.5598  0.3661 -0.0040
 7659TIP3    H144392   1.664   3.370  13.353  0.7851 -1.3409 -0.0227
 7659TIP3    H244393   1.718   3.371  13.212  0.1980  0.7548 -0.2742
 7660TIP3   OH244394   4.087   6.540  13.196  0.5498  0.6825  0.1712
 7660TIP3    H144395   4.100   6.485  13.272  2.7059 -0.1529 -0.7009
 7660TIP3    H244396   4.000   6.518  13.164  0.3740 -0.3484  1.2917
 7661TIP3   OH244397   4.709   3.262  11.600  0.2230  0.2733  0.2249
 7661TIP3    H144398   4.799   3.295  11.596  0.3420 -0.0688  0.0471
 7661TIP3    H244399   4.719   3.167  11.601 -0.0400  0.2162  2.2363
 7662TIP3   OH244400   6.610   3.069  15.263  0.4985  0.3033 -0.2400
 7662TIP3    H144401   6.672   3.123  15.215  2.4948 -1.4206  0.2418
 7662TIP3    H244402   6.526   3.114  15.253  1.9186  3.1975 -0.2244
 7663TIP3   OH244403   1.798   5.085  12.352  0.1579  0.3897  0.4903
 7663TIP3    H144404   1.739   5.035  12.408 -0.4708 -0.1138 -0.5870
 7663TIP3    H244405   1.882   5.082  12.397 -0.7132  1.5670  2.3333
 7664TIP3   OH244406   0.480   2.595  15.259 -0.0456  0.1501  0.3481
 7664TIP3    H144407   0.458   2.575  15.350 -2.1916 -1.7058 -0.4996
 7664TIP3    H244408   0.443   2.681  15.243 -0.0512  0.2904  1.1106
 7665TIP3   OH244409   4.718   5.443   4.804  0.3077 -0.0027 -0.6236
 7665TIP3    H144410   4.628   5.451   4.834  1.0687  0.5430  1.7872
 7665TIP3    H244411   4.711   5.417   4.712 -2.2887 -1.4471 -0.1265
 7666TIP3   OH244412   4.404   5.269   1.143  0.2772  0.0525  0.1001
 7666TIP3    H144413   4.428   5.211   1.071  1.3568  0.2798  0.2548
 7666TIP3    H244414   4.318   5.239   1.171  0.7356 -1.3698  0.0718
 7667TIP3   OH244415   2.025   5.174   3.632  0.9510 -0.0562 -0.1645
 7667TIP3    H144416   2.119   5.185   3.615  0.6409  0.5747 -1.6363
 7667TIP3    H244417   2.004   5.089   3.593  0.9525 -0.3382  0.4334
 7668TIP3   OH244418   6.049   3.939   3.167  0.1767  0.0447  0.4784
 7668TIP3    H144419   6.026   3.920   3.076  1.4624 -2.5734  0.5848
 7668TIP3    H244420   5.975   3.906   3.218 -0.0682  0.5286  0.4424
 7669TIP3   OH244421   3.135   0.965  15.165  0.0406 -0.3151 -0.8111
 7669TIP3    H144422   3.122   1.059  15.176  1.5616 -0.0053 -1.3647
 7669TIP3    H244423   3.059   0.936  15.115 -2.0785 -0.0200  1.9677
 7670TIP3   OH244424   2.017   0.424   5.073 -0.1258  0.0714 -0.4414
 7670TIP3    H144425   2.011   0.487   5.001  1.5439  0.6460 -0.1201
 7670TIP3    H244426   1.999   0.339   5.032 -0.0761  0.4921 -1.3561
 7671TIP3   OH244427   3.508   3.890  15.307  0.0113  0.0962 -0.3684
 7671TIP3    H144428   3.536   3.799  15.299 -0.0624  0.0162  0.2741
 7671TIP3    H244429   3.465   3.895  15.392  0.8006  0.9348  0.0007
 7672TIP3   OH244430   4.116   2.649   5.798  0.1844  0.0472 -0.1899
 7672TIP3    H144431   4.088   2.689   5.881 -0.7907 -1.0542  0.0383
 7672TIP3    H244432   4.046   2.587   5.777  0.8635 -0.3345 -1.3816
 7673TIP3   OH244433   3.466   1.913  16.718 -0.4522 -0.4055 -0.8119
 7673TIP3    H144434   3.558   1.904  16.744 -0.6947 -0.7215 -0.0180
 7673TIP3    H244435   3.459   1.862  16.637 -0.0487 -0.8681 -0.5633
 7674TIP3   OH244436   6.053   4.086  15.969  0.0349 -0.2096  0.2475
 7674TIP3    H144437   6.117   4.087  15.898  0.9369 -1.0009  1.0111
 7674TIP3    H244438   5.986   4.149  15.943  0.4767 -0.2973 -1.1694
 7675TIP3   OH244439   5.592   3.491   5.464  0.0212 -0.0964 -0.3176
 7675TIP3    H144440   5.636   3.564   5.420 -1.3291  1.8253  1.3298
 7675TIP3    H244441   5.580   3.425   5.396  2.8533  0.4177 -1.4767
 7676TIP3   OH244442   6.448   5.456   3.492  0.2329  0.2807 -0.0348
 7676TIP3    H144443   6.478   5.469   3.582 -2.1027  1.9308  0.5967
 7676TIP3    H244444   6.368   5.507   3.485  0.0591 -0.1757 -2.9467
 7677TIP3   OH244445   3.675   5.270   4.916 -0.3319  0.1454 -0.1457
 7677TIP3    H144446   3.721   5.187   4.903 -0.1140  0.1971  0.2539
 7677TIP3    H244447   3.583   5.246   4.926 -0.1063 -0.2047  1.3872
 7678TIP3   OH244448   3.999   0.913  16.245  0.0830  0.5216  0.3502
 7678TIP3    H144449   3.998   0.826  16.206  0.1687  0.5884  0.2023
 7678TIP3    H244450   3.906   0.936  16.254  0.0618  0.9195 -0.7354
 7679TIP3   OH244451   1.918   0.263   0.390 -0.0492  0.0055  0.4952
 7679TIP3    H144452   1.888   0.173   0.403  1.0850 -0.4325  0.2051
 7679TIP3    H244453   1.839   0.316   0.395 -1.2009 -1.2836 -2.0898
 7680TIP3   OH244454   1.427   3.052   5.200 -0.2651  0.1241  0.4520
 7680TIP3    H144455   1.437   2.971   5.248  3.7484 -0.4224 -0.9141
 7680TIP3    H244456   1.421   3.120   5.267 -1.1393 -1.0659  1.6154
 7681TIP3   OH244457   5.883   4.476   2.349  0.1159  0.3350  0.1277
 7681TIP3    H144458   5.954   4.507   2.405  0.5168  1.2521 -0.8455
 7681TIP3    H244459   5.830   4.420   2.405  0.8457  0.7356  1.2370
 7682TIP3   OH244460   2.105   0.563  15.188 -0.0906 -0.2585 -0.2106
 7682TIP3    H144461   2.022   0.554  15.141 -0.4224  0.4200  0.2335
 7682TIP3    H244462   2.159   0.615  15.129  0.2302 -1.1817 -0.7521
 7683TIP3   OH244463   5.919   1.122   3.603 -0.4103  0.3706  0.2992
 7683TIP3    H144464   5.839   1.152   3.645 -0.4288 -1.0765  1.3882
 7683TIP3    H244465   5.888   1.066   3.531 -0.3855  0.4237  0.2478
 7684TIP3   OH244466   4.812   6.281  13.483  0.6447  0.1326 -0.2505
 7684TIP3    H144467   4.786   6.221  13.413  1.8423 -0.0733 -0.5462
 7684TIP3    H244468   4.768   6.247  13.561 -1.1443  0.6849 -0.9744
 7685TIP3   OH244469   6.402   5.032   2.113  0.4681 -0.0122  0.1252
 7685TIP3    H144470   6.345   5.109   2.104 -1.4939 -1.3833  0.3234
 7685TIP3    H244471   6.476   5.064   2.164  0.1784  1.9868 -0.6107
 7686TIP3   OH244472   4.140   0.510   1.536 -0.5285  0.4228  0.0036
 7686TIP3    H144473   4.146   0.504   1.440  1.5146  0.1075  0.0990
 7686TIP3    H244474   4.084   0.586   1.552  1.1873  2.0987 -1.4927
 7687TIP3   OH244475   0.707   2.784  10.805  0.3843 -0.2909 -0.8908
 7687TIP3    H144476   0.639   2.788  10.739 -1.2242 -0.8647  0.6583
 7687TIP3    H244477   0.684   2.709  10.860  2.2718 -0.5062 -0.2996
 7688TIP3   OH244478   0.902   0.476   3.617  0.5437 -0.6375  0.9840
 7688TIP3    H144479   0.828   0.530   3.588  1.3279  0.5974  1.1988
 7688TIP3    H244480   0.915   0.501   3.708  2.3850  0.5836  0.4526
 7689TIP3   OH244481   4.952   3.410  14.201  0.3148 -0.5046 -0.0183
 7689TIP3    H144482   4.879   3.471  14.190  1.1916  0.5285 -0.3083
 7689TIP3    H244483   5.027   3.455  14.162  0.8175 -2.1634 -1.0464
 7690TIP3   OH244484   6.123   6.708  16.973 -0.0995  0.5989  0.2827
 7690TIP3    H144485   6.073   6.630  16.950 -0.4385  0.8233  0.2601
 7690TIP3    H244486   6.208   6.695  16.932 -0.1900  0.2876  0.1937
 7691TIP3   OH244487   5.573   4.537   4.336 -0.1504  0.3019 -0.1888
 7691TIP3    H144488   5.557   4.443   4.327  0.4065  0.3054 -1.4010
 7691TIP3    H244489   5.669   4.545   4.338 -0.1977  0.7953  0.6094
 7692TIP3   OH244490   4.330   6.181  16.115 -0.1189 -0.2855  0.4432
 7692TIP3    H144491   4.398   6.117  16.092 -0.5775 -0.3044 -0.9237
 7692TIP3    H244492   4.378   6.258  16.144  0.4477 -1.3958  2.6367
 7693TIP3   OH244493   4.270   3.178   3.508  0.4094 -0.3272  0.3915
 7693TIP3    H144494   4.215   3.247   3.547 -0.1845  0.7022 -2.0787
 7693TIP3    H244495   4.359   3.206   3.526  0.1545  0.2028  0.8754
 7694TIP3   OH244496   1.871   4.257  15.703  0.2158  0.0646 -0.5322
 7694TIP3    H144497   1.839   4.347  15.715 -0.7696 -0.4945  1.5594
 7694TIP3    H244498   1.801   4.202  15.738  1.8051 -1.4040  0.5268
 7695TIP3   OH244499   1.146   1.116   1.828 -0.4531  0.5208 -0.6383
 7695TIP3    H144500   1.238   1.098   1.807 -0.5576  0.5135 -1.1131
 7695TIP3    H244501   1.139   1.100   1.922 -0.1926 -0.4328 -0.7693
 7696TIP3   OH244502   6.668   5.810  16.654 -0.0995  0.1502 -0.5190
 7696TIP3    H144503   6.672   5.818  16.750 -1.6690 -0.7630 -0.3399
 7696TIP3    H244504   6.759   5.818  16.626  0.4597 -0.0392  1.0947
 7697TIP3   OH244505   5.672   0.515  12.570 -0.2642 -0.3836  0.1755
 7697TIP3    H144506   5.679   0.537  12.663  1.0044  0.7456 -0.1645
 7697TIP3    H244507   5.700   0.423  12.566 -0.5206 -0.5049  0.9231
 7698TIP3   OH244508   4.882   5.951  16.611  0.0258 -0.0049 -0.8711
 7698TIP3    H144509   4.806   5.894  16.610  0.7612 -1.1934  1.8030
 7698TIP3    H244510   4.941   5.913  16.677  1.9452  2.1005 -1.2099
 7699TIP3   OH244511   1.294   0.669  11.606 -0.2054 -0.0696 -0.0005
 7699TIP3    H144512   1.285   0.756  11.566 -2.6222 -1.2848 -2.4446
 7699TIP3    H244513   1.208   0.650  11.642  0.2348 -1.5175  0.3401
 7700TIP3   OH244514   5.269   2.296   1.134 -0.3696 -0.1970 -0.1247
 7700TIP3    H144515   5.346   2.265   1.180 -0.7597  0.7751  1.2668
 7700TIP3    H244516   5.249   2.228   1.070  0.4574 -1.4004  0.8561
 7701TIP3   OH244517   1.109   0.596   4.930 -0.2334  0.1453  0.0401
 7701TIP3    H144518   1.044   0.617   4.863 -0.6372 -0.3472  0.2749
 7701TIP3    H244519   1.181   0.556   4.881 -0.8789 -0.9801 -0.0107
 7702TIP3   OH244520   3.511   0.189  16.644  0.0601 -0.5754  0.5880
 7702TIP3    H144521   3.584   0.155  16.591 -0.9178  0.9667 -1.9542
 7702TIP3    H244522   3.448   0.117  16.647  0.9120 -1.3196  1.3244
 7703TIP3   OH244523   5.756   2.608   2.522  0.7198  0.0570 -0.2751
 7703TIP3    H144524   5.792   2.610   2.611  0.1297  0.5600 -0.0348
 7703TIP3    H244525   5.682   2.670   2.525 -1.0993 -1.9998 -0.3200
 7704TIP3   OH244526   4.626   1.039  13.273  0.3349  0.1173  0.3596
 7704TIP3    H144527   4.689   1.081  13.333  0.2283 -1.6980  1.8370
 7704TIP3    H244528   4.576   0.980  13.329  1.9021 -3.6632 -1.8133
 7705TIP3   OH244529   4.811   0.725   6.015 -0.2898 -0.7327  0.0681
 7705TIP3    H144530   4.721   0.714   5.986 -0.7875  0.4759  1.0955
 7705TIP3    H244531   4.809   0.704   6.108  0.2123  0.5193  0.3825
 7706TIP3   OH244532   0.627   2.077   3.026  0.7820  0.5154 -0.1221
 7706TIP3    H144533   0.688   2.013   3.060  0.8279  0.3762 -0.4620
 7706TIP3    H244534   0.616   2.053   2.934 -0.5690 -0.0868  0.1741
 7707TIP3   OH244535   2.379   2.863   5.759  0.2463  0.0079 -0.1600
 7707TIP3    H144536   2.417   2.949   5.775  0.2805 -0.2206  1.0934
 7707TIP3    H244537   2.419   2.806   5.825  1.3220 -1.3129 -1.8532
 7708TIP3   OH244538   2.780   1.148   4.433  0.4912 -0.4300 -0.2151
 7708TIP3    H144539   2.817   1.067   4.400 -1.4864 -0.3437 -3.1211
 7708TIP3    H244540   2.685   1.132   4.434 -0.0422  2.0143 -1.7585
 7709TIP3   OH244541   5.573   1.593  16.955  0.5369 -0.3175  0.2087
 7709TIP3    H144542   5.585   1.524  17.021 -1.2207 -0.9217 -0.0491
 7709TIP3    H244543   5.485   1.627  16.973  0.0111 -0.5110 -1.8364
 7710TIP3   OH244544   2.339   4.452  15.851 -0.4942 -0.2396 -0.3718
 7710TIP3    H144545   2.307   4.365  15.828  1.3777 -0.9162 -0.5471
 7710TIP3    H244546   2.341   4.499  15.768  1.0291 -0.9286 -0.7700
 7711TIP3   OH244547   3.507   2.826   0.870 -0.0284  0.0997  0.0520
 7711TIP3    H144548   3.434   2.766   0.859  0.8355 -0.8374 -0.8459
 7711TIP3    H244549   3.495   2.864   0.958 -1.6669  0.1285 -0.1630
 7712TIP3   OH244550   4.186   2.367  12.062 -0.1111  0.0588 -0.3880
 7712TIP3    H144551   4.250   2.334  12.125 -1.6296  0.8788  1.6967
 7712TIP3    H244552   4.233   2.435  12.013  1.5189 -1.5696 -1.2033
 7713TIP3   OH244553   0.412   6.362  15.399  0.0025 -0.4055 -0.0820
 7713TIP3    H144554   0.493   6.362  15.348 -1.3722 -2.1698 -2.4230
 7713TIP3    H244555   0.349   6.313  15.346 -2.7222  1.0919  1.5050
 7714TIP3   OH244556   4.581   6.154   4.066 -0.9374 -0.9224 -0.4833
 7714TIP3    H144557   4.643   6.088   4.097 -1.7394 -1.7365 -0.5627
 7714TIP3    H244558   4.509   6.103   4.028 -1.9100 -0.0213  0.1001
 7715TIP3   OH244559   5.039   0.312  15.643  0.0130  0.4669 -0.1643
 7715TIP3    H144560   5.046   0.219  15.621  1.4133  1.0210 -2.4856
 7715TIP3    H244561   5.071   0.318  15.733  1.8845 -1.1081 -0.6456
 7716TIP3   OH244562   4.895   0.431   6.704 -0.1220 -0.1862  0.5709
 7716TIP3    H144563   4.882   0.498   6.636  1.2431 -0.7835 -0.3316
 7716TIP3    H244564   4.891   0.348   6.657 -1.8634 -0.7830  1.6912
 7717TIP3   OH244565   3.975   2.902  16.410 -0.0787  0.0505 -0.4809
 7717TIP3    H144566   3.993   2.993  16.389  2.7564 -0.5118 -0.8400
 7717TIP3    H244567   3.960   2.861  16.324 -0.7443  0.0224 -0.3633
 7718TIP3   OH244568   0.064   2.850  12.283  0.3545 -0.1055  0.4131
 7718TIP3    H144569   0.039   2.940  12.263  0.2675  0.0276  1.1062
 7718TIP3    H244570   0.110   2.820  12.205  1.0805  0.8040  0.4800
 7719TIP3   OH244571   2.927   2.600   0.654  0.3509 -0.0672 -1.1683
 7719TIP3    H144572   2.857   2.589   0.589 -1.6172  1.0422  0.6181
 7719TIP3    H244573   3.008   2.603   0.603 -1.0231 -0.0648 -3.4619
 7720TIP3   OH244574   4.845   5.452   0.120 -0.8832 -0.3049  0.3918
 7720TIP3    H144575   4.852   5.406   0.204  0.6298 -0.0382  0.4271
 7720TIP3    H244576   4.789   5.527   0.139 -0.1032  0.0604  1.3031
 7721TIP3   OH244577   4.308   5.808  11.947 -0.2838  0.3523 -0.6356
 7721TIP3    H144578   4.283   5.883  11.893 -1.2522  0.0769 -0.6071
 7721TIP3    H244579   4.401   5.794  11.929 -0.8760 -0.6698 -3.4365
 7722TIP3   OH244580   1.139   0.229   0.164 -0.0210 -0.1500 -0.5946
 7722TIP3    H144581   1.146   0.179   0.082 -0.5150 -1.5725  0.1880
 7722TIP3    H244582   1.222   0.214   0.208  0.6458  1.4425 -1.2526
 7723TIP3   OH244583   3.374   2.187  13.161  0.0025  0.1997 -0.4535
 7723TIP3    H144584   3.322   2.232  13.095 -2.0344  0.8520  1.4836
 7723TIP3    H244585   3.444   2.250  13.182 -1.4973  1.5996  0.6074
 7724TIP3   OH244586   2.619   3.865   5.089  0.0916 -0.3284 -0.2068
 7724TIP3    H144587   2.689   3.843   5.027  0.3971  1.5483 -0.5929
 7724TIP3    H244588   2.540   3.867   5.035 -0.2930 -2.3540  0.2113
 7725TIP3   OH244589   1.660   2.527   2.914  0.2480 -0.2096 -0.6732
 7725TIP3    H144590   1.730   2.555   2.974 -0.3996 -0.8239  0.3867
 7725TIP3    H244591   1.690   2.558   2.828  1.6164 -0.0739 -0.1843
 7726TIP3   OH244592   1.857   3.305   2.671  0.3465 -0.3596  0.4840
 7726TIP3    H144593   1.946   3.296   2.706 -0.3525  1.9450  3.2851
 7726TIP3    H244594   1.800   3.276   2.743 -1.2283 -1.2694 -1.0511
 7727TIP3   OH244595   5.522   2.772   2.570 -0.4937  0.2605  0.4122
 7727TIP3    H144596   5.459   2.701   2.576 -0.6487  0.2106 -1.3496
 7727TIP3    H244597   5.501   2.816   2.488  0.2510  1.7285  0.9615
 7728TIP3   OH244598   4.094   2.112   6.490  0.1716  0.2641 -0.3035
 7728TIP3    H144599   4.101   2.167   6.568  0.1570 -2.2101  1.5576
 7728TIP3    H244600   4.004   2.124   6.461 -0.4126 -0.1587  1.2186
 7729TIP3   OH244601   4.447   3.423   0.866  0.3783 -0.2361 -0.0503
 7729TIP3    H144602   4.422   3.473   0.944 -1.9092 -0.5705 -0.5040
 7729TIP3    H244603   4.484   3.342   0.901  0.6500  0.1925  0.6850
 7730TIP3   OH244604   0.840   2.925  15.169 -0.3576 -0.1582 -0.0064
 7730TIP3    H144605   0.793   2.946  15.249  1.2799 -0.9211  1.2294
 7730TIP3    H244606   0.803   2.983  15.103 -0.1928  2.1727  1.8226
 7731TIP3   OH244607   5.293   6.264  14.047  0.1065 -0.2021  0.0268
 7731TIP3    H144608   5.377   6.309  14.048 -0.2058  0.5035 -1.9754
 7731TIP3    H244609   5.261   6.270  14.137  0.7768  2.2825  0.1589
 7732TIP3   OH244610   5.221   2.401   4.621 -0.2416 -0.2076 -0.1397
 7732TIP3    H144611   5.276   2.429   4.547 -1.3175  0.4297 -0.7170
 7732TIP3    H244612   5.142   2.365   4.581 -1.3395  1.1783  0.6719
 7733TIP3   OH244613   1.955   3.238  14.765  0.2462 -0.6526 -0.1394
 7733TIP3    H144614   2.009   3.262  14.690 -0.2360  1.0941  0.0363
 7733TIP3    H244615   1.865   3.246  14.733 -0.0591  2.2285  1.1184
 7734TIP3   OH244616   4.280   3.076   1.465  0.2392  0.3044 -0.5226
 7734TIP3    H144617   4.195   3.035   1.475  0.0663  0.9929  1.2366
 7734TIP3    H244618   4.314   3.084   1.555  1.7683  0.8340 -1.1095
 7735TIP3   OH244619   4.550   4.603   1.324  0.7358  0.3568 -0.0019
 7735TIP3    H144620   4.568   4.526   1.378  2.2223 -0.2472 -1.2600
 7735TIP3    H244621   4.597   4.675   1.368 -0.6813  0.5973  1.1913
 7736TIP3   OH244622   4.139   4.712   1.693  0.0459 -0.1879 -0.8630
 7736TIP3    H144623   4.228   4.742   1.711 -0.2459  0.1927 -0.0322
 7736TIP3    H244624   4.147   4.664   1.610  1.6287 -2.7423  0.6036
 7737TIP3   OH244625   0.319   3.254   4.180 -0.5827 -0.4061 -0.0383
 7737TIP3    H144626   0.325   3.325   4.116  2.6701 -1.6239 -1.2475
 7737TIP3    H244627   0.352   3.292   4.261 -0.1528 -0.1677 -0.3229
 7738TIP3   OH244628   5.401   2.296  10.571  0.4713 -0.1575 -0.4424
 7738TIP3    H144629   5.426   2.204  10.572  1.3291  0.0592 -0.4369
 7738TIP3    H244630   5.452   2.336  10.642  2.9374  0.9665 -2.6610
 7739TIP3   OH244631   3.534   0.977  13.493  0.8328 -0.4041  0.2838
 7739TIP3    H144632   3.576   0.907  13.542 -2.8685 -2.4774  0.8430
 7739TIP3    H244633   3.450   0.941  13.466 -1.2937  3.7806  0.5137
 7740TIP3   OH244634   0.228   2.929   5.159  0.4641 -0.0170 -0.3668
 7740TIP3    H144635   0.268   2.851   5.120  0.6526  0.2798 -0.7668
 7740TIP3    H244636   0.275   3.003   5.120  2.3947  0.2695  2.2349
 7741TIP3   OH244637   0.907   4.355  11.627  0.0885  0.0345 -0.0594
 7741TIP3    H144638   0.859   4.293  11.681  1.1713 -0.2738  0.5799
 7741TIP3    H244639   0.950   4.301  11.561 -2.0088  0.4878 -1.9242
 7742TIP3   OH244640   4.403   1.075   6.163 -0.4457  0.6238  0.0101
 7742TIP3    H144641   4.353   1.156   6.152 -1.4762  0.3501  2.1996
 7742TIP3    H244642   4.337   1.007   6.169  0.0495  0.3063  3.4818
 7743TIP3   OH244643   6.259   1.571  14.399 -0.4447  0.2255  1.1622
 7743TIP3    H144644   6.205   1.646  14.377 -0.8171 -0.0597  1.0947
 7743TIP3    H244645   6.347   1.596  14.371 -0.3788  1.0234  2.0535
 7744TIP3   OH244646   3.236   0.394  17.004  0.0007 -0.0761  0.0216
 7744TIP3    H144647   3.150   0.393  16.962 -0.7119  3.2696  1.0746
 7744TIP3    H244648   3.299   0.385  16.932 -1.2271  1.1397 -1.2663
 7745TIP3   OH244649   2.442   1.547   2.125  0.1836  0.4511 -0.0245
 7745TIP3    H144650   2.394   1.471   2.091  0.9492 -0.3290  0.5944
 7745TIP3    H244651   2.378   1.592   2.181 -0.2102  0.1322 -0.2106
 7746TIP3   OH244652   1.496   5.347  12.657 -0.1889 -0.3993 -0.3351
 7746TIP3    H144653   1.411   5.346  12.702 -0.0284 -1.5885 -0.0293
 7746TIP3    H244654   1.483   5.291  12.580 -0.2532  1.0526 -1.4306
 7747TIP3   OH244655   4.695   5.929  12.897  0.5391  0.6250  0.5143
 7747TIP3    H144656   4.739   5.988  12.959 -0.3841  2.4306 -0.4627
 7747TIP3    H244657   4.755   5.856  12.887  0.8106  0.3097  3.3934
 7748TIP3   OH244658   0.546   0.738   0.738 -0.9431 -0.1705  0.3428
 7748TIP3    H144659   0.561   0.777   0.652 -1.8358 -1.0046 -0.2098
 7748TIP3    H244660   0.505   0.654   0.720 -1.2878 -0.2961  1.5882
 7749TIP3   OH244661   0.631   3.732  14.950  0.4524  0.9225  0.3638
 7749TIP3    H144662   0.572   3.745  14.876 -1.4533  0.3974  1.7247
 7749TIP3    H244663   0.692   3.664  14.921  0.4114  1.4784 -1.0723
 7750TIP3   OH244664   6.109   0.233  15.545 -0.6047 -0.0835 -0.0596
 7750TIP3    H144665   6.148   0.230  15.632  0.2363 -0.6806 -0.4381
 7750TIP3    H244666   6.178   0.272  15.490 -0.5227 -1.1756 -0.7434
 7751TIP3   OH244667   4.492   3.989   1.197 -0.1350  0.2875 -0.0073
 7751TIP3    H144668   4.498   4.064   1.137 -0.3157  1.6056  1.5497
 7751TIP3    H244669   4.504   4.027   1.284 -1.2081 -1.3641  0.9136
 7752TIP3   OH244670   1.594   3.898   2.096 -0.5061 -0.2613 -0.1518
 7752TIP3    H144671   1.553   3.954   2.162  2.2356  0.2864  1.2663
 7752TIP3    H244672   1.576   3.941   2.013 -0.0273  1.7770  0.7319
 7753TIP3   OH244673   3.958   4.430  15.158 -0.3210 -0.0988 -0.0980
 7753TIP3    H144674   4.006   4.446  15.077 -0.2175  0.6351  0.1031
 7753TIP3    H244675   3.913   4.512  15.175 -1.0401 -0.5337  0.1265
 7754TIP3   OH244676   6.125   0.165  15.827 -0.3728  0.1372  0.0501
 7754TIP3    H144677   6.153   0.135  15.913 -0.5746  1.6186  0.6727
 7754TIP3    H244678   6.182   0.239  15.808  3.3198 -3.1614 -3.5120
 7755TIP3   OH244679   5.614   5.405   0.108 -0.0940 -0.0610  0.3299
 7755TIP3    H144680   5.675   5.475   0.085  0.3353 -0.2888  0.7593
 7755TIP3    H244681   5.615   5.404   0.203  0.4280 -1.1046  0.3219
 7756TIP3   OH244682   3.031   1.806   2.745 -0.1110 -0.3581 -0.1316
 7756TIP3    H144683   2.964   1.745   2.778 -0.7416 -1.0607 -2.5511
 7756TIP3    H244684   3.054   1.772   2.659  0.7329  1.9419 -0.8793
 7757TIP3   OH244685   2.999   2.969   3.091  0.0190 -0.3782  0.2200
 7757TIP3    H144686   3.042   2.966   3.176  1.1495  0.5699 -0.2857
 7757TIP3    H244687   2.906   2.975   3.110  0.3465  1.4000  1.4169
 7758TIP3   OH244688   5.821   5.907  13.779  0.1956 -0.0573 -0.1145
 7758TIP3    H144689   5.803   5.956  13.699  0.6031  0.6868  0.2409
 7758TIP3    H244690   5.910   5.932  13.803  0.3274 -0.8027  0.1946
 7759TIP3   OH244691   3.327   1.808   3.060  0.0069 -0.1202  0.0925
 7759TIP3    H144692   3.301   1.826   2.970 -0.3959  0.7234  0.3689
 7759TIP3    H244693   3.266   1.858   3.114  1.0921  0.4968  0.8054
 7760TIP3   OH244694   3.152   5.456   4.257 -0.3962 -0.4932  0.6904
 7760TIP3    H144695   3.069   5.416   4.284 -0.9981 -0.0856 -0.4812
 7760TIP3    H244696   3.143   5.548   4.279 -0.3474 -0.4100  0.3793
 7761TIP3   OH244697   0.710   2.652   2.406  0.2044 -0.4014  0.1479
 7761TIP3    H144698   0.637   2.641   2.345  0.1444 -0.2496  0.1919
 7761TIP3    H244699   0.761   2.571   2.397  2.6841  1.2815 -3.3431
 7762TIP3   OH244700   0.133   1.533   0.260  0.2154  0.9560 -0.1738
 7762TIP3    H144701   0.184   1.600   0.305  0.4463  1.0670 -0.5991
 7762TIP3    H244702   0.188   1.455   0.264  0.4364  1.0883 -0.6748
 7763TIP3   OH244703   6.663   3.690  17.120  0.4988  0.2507  0.5252
 7763TIP3    H144704   6.668   3.759  17.054 -2.8732 -1.0188 -1.2761
 7763TIP3    H244705   6.687   3.610  17.074 -1.1151 -0.5383  0.9896
 7764TIP3   OH244706   6.612   3.038  15.575 -0.5299 -0.3267  0.0960
 7764TIP3    H144707   6.640   3.115  15.623 -3.5072  1.1870 -0.3752
 7764TIP3    H244708   6.642   3.053  15.485 -0.5910  0.0191  0.1313
 7765TIP3   OH244709   3.130   5.767   3.472 -0.1370 -0.2042 -0.3090
 7765TIP3    H144710   3.087   5.759   3.557 -0.5812 -0.9373 -0.5870
 7765TIP3    H244711   3.186   5.844   3.480 -1.3413  0.6610  0.1401
 7766TIP3   OH244712   0.838   5.808   0.957 -0.7702 -0.8926  0.0196
 7766TIP3    H144713   0.915   5.864   0.956 -1.4168  0.0069 -1.2455
 7766TIP3    H244714   0.868   5.728   1.001  0.9320 -0.6366 -0.5848
 7767TIP3   OH244715   3.278   1.066   1.147  0.4821  0.7551  0.0298
 7767TIP3    H144716   3.300   1.148   1.192  0.5429  0.6160  0.2534
 7767TIP3    H244717   3.301   0.998   1.209 -0.8262  0.6045  0.3836
 7768TIP3   OH244718   1.256   2.095   5.961  0.2638  0.0055  0.1875
 7768TIP3    H144719   1.205   2.145   6.025 -1.4568  0.5170 -1.5113
 7768TIP3    H244720   1.318   2.045   6.015 -0.6361  0.9340  2.2019
 7769TIP3   OH244721   0.793   4.385  15.145  0.1545  0.0716  0.1046
 7769TIP3    H144722   0.828   4.442  15.076 -1.5999  1.5038  0.3135
 7769TIP3    H244723   0.795   4.440  15.224 -0.0338 -0.7552  0.6909
 7770TIP3   OH244724   6.772   4.195  13.504 -0.6818 -0.2953  0.3915
 7770TIP3    H144725   6.762   4.249  13.425 -0.3996 -0.4617  0.2383
 7770TIP3    H244726   6.844   4.135  13.482  0.4773  0.6961  1.3371
 7771TIP3   OH244727   0.506   3.403  13.956  0.7049 -0.0807 -0.8683
 7771TIP3    H144728   0.454   3.430  13.881  2.4107  0.0909 -2.0484
 7771TIP3    H244729   0.509   3.307  13.949 -1.8938 -0.3967  0.9531
 7772TIP3   OH244730   4.402   2.114   4.458 -0.3854 -0.3989 -0.1838
 7772TIP3    H144731   4.326   2.057   4.467 -1.2874  0.3282 -2.4407
 7772TIP3    H244732   4.462   2.065   4.402  0.4308 -0.5582  0.7884
 7773TIP3   OH244733   1.805   1.819   1.271 -0.2638 -0.6556  0.3865
 7773TIP3    H144734   1.747   1.816   1.195  0.5921  1.4083 -0.4374
 7773TIP3    H244735   1.746   1.819   1.346 -1.2035 -1.0279 -0.3205
 7774TIP3   OH244736   5.915   6.714   5.116 -0.1084 -0.7252 -0.1496
 7774TIP3    H144737   5.959   6.691   5.034 -1.3678 -1.1019 -0.7520
 7774TIP3    H244738   5.910   6.809   5.115  1.7489 -0.5739  0.5314
 7775TIP3   OH244739   0.629   5.396  11.631  0.8245 -0.0056  0.7937
 7775TIP3    H144740   0.684   5.449  11.689  0.9220 -0.3489  1.0244
 7775TIP3    H244741   0.690   5.360  11.567  0.8934 -0.4892  1.1258
 7776TIP3   OH244742   4.819   1.246   1.198  0.1667 -0.3915  0.0272
 7776TIP3    H144743   4.821   1.154   1.171 -0.7385 -0.6994  0.9330
 7776TIP3    H244744   4.773   1.291   1.126 -0.0098 -0.7722 -0.0999
 7777TIP3   OH244745   5.110   4.126   4.901 -0.7200  0.0106 -0.2850
 7777TIP3    H144746   5.057   4.205   4.912  1.1827  1.2892  0.0065
 7777TIP3    H244747   5.183   4.153   4.846 -0.9013 -2.0033 -1.6542
 7778TIP3   OH244748   3.245   1.344   1.273  0.0150  0.0389  0.7202
 7778TIP3    H144749   3.334   1.331   1.307  0.5664 -0.2137 -0.7423
 7778TIP3    H244750   3.222   1.433   1.301  0.1208 -0.4064  2.3604
 7779TIP3   OH244751   0.993   6.278  13.574  0.2442  0.2609 -0.1948
 7779TIP3    H144752   0.976   6.239  13.660 -1.3407  1.7614  0.2270
 7779TIP3    H244753   1.030   6.365  13.594 -0.3349  0.7084 -1.0065
 7780TIP3   OH244754   2.848   5.704  15.284 -0.2471  0.6334 -0.0401
 7780TIP3    H144755   2.826   5.631  15.343 -0.0497  0.2213 -0.4714
 7780TIP3    H244756   2.764   5.737  15.254 -0.3265 -0.5389 -1.2001
 7781TIP3   OH244757   6.122   4.391   5.771 -0.1684  0.6279  0.0936
 7781TIP3    H144758   6.106   4.467   5.826 -2.2362  0.7887 -0.6413
 7781TIP3    H244759   6.100   4.316   5.826 -0.1720  0.6723  0.1526
 7782TIP3   OH244760   2.813   1.002  12.891 -0.1201  0.3219  0.3679
 7782TIP3    H144761   2.756   0.994  12.814  0.3685  0.1742  0.0194
 7782TIP3    H244762   2.841   0.912  12.909  2.9957  0.6999 -1.7436
 7783TIP3   OH244763   1.888   2.735  12.135 -0.3513  0.4629 -0.4080
 7783TIP3    H144764   1.967   2.716  12.085  0.5756  0.5452  0.9814
 7783TIP3    H244765   1.825   2.667  12.107  0.9359 -0.9877  0.0677
 7784TIP3   OH244766   2.582   1.701   0.286  0.1419  0.1010 -0.2185
 7784TIP3    H144767   2.581   1.611   0.320  0.9923  0.0775 -0.2368
 7784TIP3    H244768   2.576   1.690   0.191 -3.4559  0.1996 -0.1508
 7785TIP3   OH244769   0.701   4.584  13.980  0.3913  0.1397 -0.2201
 7785TIP3    H144770   0.714   4.623  13.893  0.6793  0.1975 -0.1521
 7785TIP3    H244771   0.609   4.557  13.980  0.1161  1.0497 -0.1715
 7786TIP3   OH244772   4.316   3.986  13.186 -0.5738 -0.0481  0.1704
 7786TIP3    H144773   4.386   4.047  13.207  0.1749  0.0393 -2.2725
 7786TIP3    H244774   4.240   4.041  13.167 -0.6748 -0.0384  0.5812
 7787TIP3   OH244775   0.172   2.328  13.863  0.0527 -0.0888  0.1381
 7787TIP3    H144776   0.196   2.282  13.944 -0.1406  0.1805  0.3530
 7787TIP3    H244777   0.219   2.411  13.868  1.8534 -0.9768 -1.1137
 7788TIP3   OH244778   0.812   2.681  14.626 -0.5319 -0.4662 -0.4598
 7788TIP3    H144779   0.840   2.693  14.536 -0.2542  2.4499 -0.0945
 7788TIP3    H244780   0.719   2.660  14.620 -0.7683  0.7535 -1.4352
 7789TIP3   OH244781   3.865   5.782   4.384  0.7847  0.2982 -0.4327
 7789TIP3    H144782   3.793   5.830   4.342  1.0070  0.4096 -0.6864
 7789TIP3    H244783   3.915   5.848   4.430  0.4346  0.1496  0.1699
 7790TIP3   OH244784   0.551   0.978  12.401  0.3597  0.2718  0.0957
 7790TIP3    H144785   0.511   1.057  12.363 -0.4881  0.9936  2.3337
 7790TIP3    H244786   0.582   1.006  12.487 -0.5878 -1.9948  1.2529
 7791TIP3   OH244787   6.143   5.433  17.108  0.5636  0.3948  0.2119
 7791TIP3    H144788   6.107   5.420  17.195 -0.0672  1.1905  0.0829
 7791TIP3    H244789   6.217   5.373  17.103  0.2994 -0.0187  1.1077
 7792TIP3   OH244790   5.645   2.289  11.871 -0.2494  0.1550 -0.1468
 7792TIP3    H144791   5.583   2.356  11.897  0.0848  0.3535  0.1506
 7792TIP3    H244792   5.591   2.215  11.844 -0.6359 -0.3488  1.8330
 7793TIP3   OH244793   3.630   4.924   0.227  0.0964  0.4510 -0.0820
 7793TIP3    H144794   3.717   4.894   0.203 -0.1094 -0.5226  0.3544
 7793TIP3    H244795   3.620   4.900   0.319 -0.2042  1.5958  0.2018
 7794TIP3   OH244796   5.524   2.199  12.943  0.0428 -0.2371  0.0495
 7794TIP3    H144797   5.578   2.193  13.021 -0.8459 -0.8735  0.6423
 7794TIP3    H244798   5.582   2.177  12.871  1.0994  1.2067  0.4152
 7795TIP3   OH244799   1.239   5.385  11.736  0.0696  0.6950  0.1955
 7795TIP3    H144800   1.198   5.314  11.687  1.8092 -0.8885  0.8815
 7795TIP3    H244801   1.192   5.387  11.819  0.0546  0.2819  0.1989
 7796TIP3   OH244802   1.172   3.012  15.309  0.3154 -0.0993 -0.0101
 7796TIP3    H144803   1.195   2.978  15.222 -0.3167  1.4788 -0.8321
 7796TIP3    H244804   1.141   3.101  15.292 -2.9501 -0.8405  1.4242
 7797TIP3   OH244805   4.715   6.562   2.167 -0.1335 -0.1688 -0.3558
 7797TIP3    H144806   4.688   6.579   2.077 -0.4375 -2.3381 -0.7226
 7797TIP3    H244807   4.809   6.546   2.161  0.3017  1.9150  0.1019
 7798TIP3   OH244808   5.963   2.278  12.341  0.5536  0.0959  0.1975
 7798TIP3    H144809   6.024   2.348  12.318  1.2562 -0.2826  0.8853
 7798TIP3    H244810   5.977   2.211  12.273  1.1284 -0.1257  0.5363
 7799TIP3   OH244811   0.510   5.497   0.774 -0.4807  0.4493  0.1594
 7799TIP3    H144812   0.557   5.581   0.776  0.7174 -0.1223  4.2237
 7799TIP3    H244813   0.422   5.520   0.744  0.7450  2.4528 -2.3462
 7800TIP3   OH244814   5.239   2.407  11.243  0.7266 -0.1754 -0.6941
 7800TIP3    H144815   5.226   2.454  11.325  0.2167  1.0778 -1.4582
 7800TIP3    H244816   5.168   2.343  11.240  0.6752 -0.1439 -0.2293
 7801TIP3   OH244817   2.671   2.365  16.627 -0.5963  0.5189  0.0307
 7801TIP3    H144818   2.618   2.367  16.706  0.2531  1.9927  0.6007
 7801TIP3    H244819   2.650   2.447  16.581  0.4517  0.6678 -0.2110
 7802TIP3   OH244820   5.981   3.184   1.864 -0.5168 -0.0076 -0.5339
 7802TIP3    H144821   6.029   3.134   1.930 -0.2650  0.5155 -0.3098
 7802TIP3    H244822   6.037   3.181   1.787  0.1400  1.0134 -0.1258
 7803TIP3   OH244823   5.109   5.539   6.069 -0.0202  0.3682 -0.2026
 7803TIP3    H144824   5.129   5.538   6.163 -1.1328 -2.0963  0.0849
 7803TIP3    H244825   5.093   5.631   6.049  4.7297  1.7402  0.9155
 7804TIP3   OH244826   0.757   4.487   3.945  0.5114  0.9950 -0.0413
 7804TIP3    H144827   0.769   4.427   4.018 -0.5854 -0.4928 -1.0316
 7804TIP3    H244828   0.782   4.573   3.980  0.6737  0.2180  1.8485
 7805TIP3   OH244829   0.354   6.459   3.174  0.6352 -0.4106 -0.2364
 7805TIP3    H144830   0.442   6.425   3.191  0.3785 -1.1818 -0.3785
 7805TIP3    H244831   0.296   6.393   3.213  0.1271  0.6626  0.8833
 7806TIP3   OH244832   2.993   4.752   1.634 -0.5899 -0.6147  0.3484
 7806TIP3    H144833   3.023   4.664   1.657 -2.0645 -1.3748 -0.4862
 7806TIP3    H244834   2.958   4.743   1.546  1.5247  1.3867 -0.8403
 7807TIP3   OH244835   5.429   2.455   6.337 -0.9287  0.3167  0.0907
 7807TIP3    H144836   5.388   2.507   6.268  0.2251 -0.7576 -1.4937
 7807TIP3    H244837   5.451   2.373   6.294  1.3027  0.2094  1.3080
 7808TIP3   OH244838   2.943   3.125  14.115  0.1276 -0.1798 -0.1991
 7808TIP3    H144839   2.948   3.043  14.066 -0.0643 -0.3300  0.0318
 7808TIP3    H244840   2.850   3.134  14.136  0.3177 -0.5286  0.8440
 7809TIP3   OH244841   0.655   3.329   2.624  0.0830 -0.3575 -0.0837
 7809TIP3    H144842   0.711   3.251   2.621  0.5162 -0.0480 -0.0304
 7809TIP3    H244843   0.698   3.392   2.566  0.2409  0.1754  0.6045
 7810TIP3   OH244844   2.666   4.033   1.358  0.1016  0.5866 -0.0631
 7810TIP3    H144845   2.607   4.003   1.427  1.0712 -1.2523  0.0151
 7810TIP3    H244846   2.753   4.025   1.396  0.7506 -1.5179 -1.7968
 7811TIP3   OH244847   1.595   4.589   3.590 -0.2793  0.1467 -0.0833
 7811TIP3    H144848   1.536   4.514   3.593 -0.3126  0.1186 -1.1663
 7811TIP3    H244849   1.610   4.605   3.497  3.5049 -1.5232  0.0237
 7812TIP3   OH244850   2.315   0.890   3.424  0.6537 -0.4491 -0.3861
 7812TIP3    H144851   2.408   0.899   3.405  0.2904  0.3413 -1.9435
 7812TIP3    H244852   2.274   0.874   3.339 -0.8209  1.1214 -0.0354
 7813TIP3   OH244853   2.034   5.433  11.060 -0.5042  0.1688 -0.5375
 7813TIP3    H144854   1.948   5.474  11.059 -0.9381 -0.5128  1.8642
 7813TIP3    H244855   2.080   5.469  10.984 -1.9965  2.5175 -0.3900
 7814TIP3   OH244856   1.273   0.076  15.664  0.1442  0.5662  0.3448
 7814TIP3    H144857   1.186   0.112  15.651  0.5351  1.6862  0.7076
 7814TIP3    H244858   1.331   0.152  15.660  1.3955 -0.3795 -2.3849
 7815TIP3   OH244859   0.939   4.787  12.580 -0.4024 -0.3909 -0.2143
 7815TIP3    H144860   0.918   4.786  12.673 -0.4468  0.4976 -0.2058
 7815TIP3    H244861   0.925   4.878  12.553 -2.5286 -1.0244 -1.5780
 7816TIP3   OH244862   3.231   0.179  17.194  0.2305 -0.2951  0.2310
 7816TIP3    H144863   3.220   0.119  17.120 -0.3383 -0.4261  0.4162
 7816TIP3    H244864   3.241   0.265  17.154  0.4174 -0.4294 -0.0135
 7817TIP3   OH244865   6.436   2.757   3.152 -0.2821 -0.5193 -0.1131
 7817TIP3    H144866   6.417   2.827   3.089  0.1084 -1.9568 -1.8996
 7817TIP3    H244867   6.443   2.802   3.236 -2.2962  1.2818 -0.8294
 7818TIP3   OH244868   4.154   3.032  13.376  0.4279  0.3485  0.5603
 7818TIP3    H144869   4.157   3.041  13.471  4.0569 -0.7079  0.6978
 7818TIP3    H244870   4.111   2.947  13.361 -0.2624  0.5725  1.2056
 7819TIP3   OH244871   2.573   2.281  12.796  0.2581  0.1429  0.3100
 7819TIP3    H144872   2.630   2.205  12.812  0.6002  0.4863  0.7253
 7819TIP3    H244873   2.609   2.320  12.716 -2.0069 -2.1022 -2.0185
 7820TIP3   OH244874   5.053   4.582   6.615 -0.5794 -0.2013 -0.4983
 7820TIP3    H144875   4.971   4.542   6.644 -0.4324 -1.8623 -2.1677
 7820TIP3    H244876   5.060   4.663   6.666 -1.3246 -1.8512  2.4574
 7821TIP3   OH244877   2.770   4.886   5.493  0.0173  0.1657  0.5320
 7821TIP3    H144878   2.862   4.890   5.466  0.0929 -2.0857  0.2350
 7821TIP3    H244879   2.740   4.977   5.491  1.7905  0.7858 -0.9098
 7822TIP3   OH244880   2.695   6.741   1.909 -0.2194  0.2585  0.1463
 7822TIP3    H144881   2.694   6.834   1.885 -0.1230 -0.2571 -2.1060
 7822TIP3    H244882   2.777   6.729   1.958  0.3722  1.1288 -0.6100
 7823TIP3   OH244883   0.240   5.075  15.803 -0.4119  0.0392  0.2062
 7823TIP3    H144884   0.160   5.023  15.791 -0.4701  0.1101  0.2878
 7823TIP3    H244885   0.259   5.069  15.896 -0.3810  0.1117  0.2046
 7824TIP3   OH244886   6.640   1.534  16.351 -0.1096  0.6283  0.3366
 7824TIP3    H144887   6.573   1.563  16.288  1.1409  0.3747 -1.1759
 7824TIP3    H244888   6.629   1.592  16.426 -1.4288  1.1819 -0.2544
 7825TIP3   OH244889   1.201   6.649   5.106 -0.4658 -0.3171  0.0295
 7825TIP3    H144890   1.111   6.664   5.136 -0.0196  0.4462  1.0589
 7825TIP3    H244891   1.226   6.567   5.148 -0.8968 -0.9109 -0.8280
 7826TIP3   OH244892   3.118   1.500  14.749 -0.3142 -0.3123  0.2816
 7826TIP3    H144893   3.139   1.442  14.676  3.1377  0.4148  0.5309
 7826TIP3    H244894   3.105   1.441  14.823 -0.5031 -0.8914 -0.2029
 7827TIP3   OH244895   5.206   4.541  15.179 -0.4286 -0.3490  0.5811
 7827TIP3    H144896   5.249   4.522  15.096 -0.2350 -0.8806  0.7969
 7827TIP3    H244897   5.178   4.632  15.172 -0.1774 -0.3122  0.0386
 7828TIP3   OH244898   0.868   5.953  15.623 -0.1412 -0.1791 -0.2638
 7828TIP3    H144899   0.848   5.860  15.609 -1.5317 -0.0895  0.8802
 7828TIP3    H244900   0.929   5.953  15.697 -0.9872 -0.1616  0.4579
 7829TIP3   OH244901   5.478   5.355  13.851  0.5548 -0.3323  0.3951
 7829TIP3    H144902   5.534   5.417  13.803 -2.4182  1.7429 -0.6447
 7829TIP3    H244903   5.457   5.401  13.933  3.1238 -2.6143  2.5604
 7830TIP3   OH244904   4.612   5.730   2.414  0.1932 -0.0431 -0.1179
 7830TIP3    H144905   4.523   5.763   2.423 -0.6335 -1.0275 -3.2000
 7830TIP3    H244906   4.618   5.658   2.477 -1.4404 -0.3605 -0.2901
 7831TIP3   OH244907   1.628   5.867   2.493  0.0919 -0.2749 -0.2150
 7831TIP3    H144908   1.612   5.950   2.538  0.9380 -0.1115 -0.1830
 7831TIP3    H244909   1.548   5.850   2.444  0.0566  0.7953 -0.5724
 7832TIP3   OH244910   6.772   4.689   4.694  0.0508 -0.0268 -0.9271
 7832TIP3    H144911   6.837   4.667   4.761 -0.8572  0.4479  0.1434
 7832TIP3    H244912   6.790   4.780   4.672  0.3441 -0.1802 -1.3415
 7833TIP3   OH244913   5.517   0.581  12.838 -0.3039 -0.8078 -0.0825
 7833TIP3    H144914   5.421   0.585  12.834 -0.2834  2.3750 -0.4082
 7833TIP3    H244915   5.539   0.616  12.924  0.5946 -1.4140 -0.0576
 7834TIP3   OH244916   4.821   1.596   5.031 -0.1163 -0.0527 -0.0083
 7834TIP3    H144917   4.883   1.577   4.960 -0.8227  0.6397 -0.8278
 7834TIP3    H244918   4.762   1.521   5.031  0.4639 -0.5248  0.5144
 7835TIP3   OH244919   6.294   2.062  11.326 -0.3577 -0.2663  0.2102
 7835TIP3    H144920   6.269   2.149  11.295 -1.8631 -0.2694  1.2923
 7835TIP3    H244921   6.244   2.051  11.407  1.2600 -1.3820  1.1156
 7836TIP3   OH244922   5.669   5.101   2.113  0.0683  0.0639  0.2551
 7836TIP3    H144923   5.577   5.097   2.087  0.0753  1.9951 -0.2861
 7836TIP3    H244924   5.672   5.063   2.200 -1.2753  0.1433  0.3434
 7837TIP3   OH244925   6.475   5.195   5.611  0.2400  0.2311  0.2719
 7837TIP3    H144926   6.486   5.172   5.703  0.4567 -0.8176 -0.0034
 7837TIP3    H244927   6.400   5.144   5.583  0.5834  0.0327 -0.2997
 7838TIP3   OH244928   3.080   0.753   3.772 -0.0738  0.1004 -0.4489
 7838TIP3    H144929   3.100   0.846   3.785  0.3945 -0.3561  3.1781
 7838TIP3    H244930   3.007   0.753   3.710 -0.3409  2.8988 -0.2768
 7839TIP3   OH244931   5.361   5.888  16.733 -0.1529 -0.3009  0.0451
 7839TIP3    H144932   5.350   5.805  16.687 -0.7180 -0.6798  0.8582
 7839TIP3    H244933   5.425   5.936  16.680 -1.1250 -0.5301 -1.4094
 7840TIP3   OH244934   4.905   4.330  13.009 -0.0936  0.2925  0.7340
 7840TIP3    H144935   4.881   4.312  12.918  0.3196 -3.4594  1.2183
 7840TIP3    H244936   4.977   4.392  13.003  0.1698 -0.1564 -1.5098
 7841TIP3   OH244937   1.495   0.193  11.895  0.7451  0.3774  0.1513
 7841TIP3    H144938   1.490   0.108  11.938  0.8575  0.3405  0.0930
 7841TIP3    H244939   1.490   0.257  11.966 -2.3472  0.4365  0.0317
 7842TIP3   OH244940   4.497   2.058  14.762 -0.5298 -0.0415 -0.4589
 7842TIP3    H144941   4.519   2.148  14.739 -0.7584  0.5703  1.5546
 7842TIP3    H244942   4.503   2.055  14.857 -3.3316 -1.3920 -0.2222
 7843TIP3   OH244943   2.499   2.541  14.305  0.6566 -0.6799  0.4812
 7843TIP3    H144944   2.421   2.573  14.349  1.1267  1.1060  0.1122
 7843TIP3    H244945   2.469   2.467  14.252 -0.8462  0.1528  0.1198
 7844TIP3   OH244946   5.557   0.958   5.888 -0.6983  0.7279 -0.2963
 7844TIP3    H144947   5.627   0.896   5.907 -1.3018 -0.3233 -1.3948
 7844TIP3    H244948   5.602   1.041   5.871  0.3661 -0.1244 -1.8583
 7845TIP3   OH244949   4.724   2.619   5.305  0.4502 -0.4957 -0.3525
 7845TIP3    H144950   4.739   2.531   5.269 -0.5477 -0.8439  0.0675
 7845TIP3    H244951   4.701   2.604   5.397 -0.4736  0.1477 -0.4684
 7846TIP3   OH244952   2.807   5.181  14.525  0.0105 -0.0802  0.5688
 7846TIP3    H144953   2.820   5.263  14.478  1.5024 -0.8544 -0.4715
 7846TIP3    H244954   2.721   5.189  14.566 -0.2650  1.6179 -0.2767
 7847TIP3   OH244955   4.405   3.556   2.451  0.4092  0.3716 -0.4689
 7847TIP3    H144956   4.360   3.628   2.495  0.7974 -0.4738  1.3916
 7847TIP3    H244957   4.340   3.486   2.446  0.7048  0.0789 -0.2366
 7848TIP3   OH244958   0.984   4.755   5.790  0.2533 -0.1552  0.7568
 7848TIP3    H144959   1.043   4.795   5.854  0.2390 -0.1071  0.7398
 7848TIP3    H244960   0.970   4.823   5.724 -0.5454  0.1455  1.2294
 7849TIP3   OH244961   2.513   0.384   4.735 -0.2657  0.2406 -0.3126
 7849TIP3    H144962   2.481   0.451   4.795 -0.1340  0.7003 -0.7500
 7849TIP3    H244963   2.452   0.312   4.746  0.9220 -0.5415  1.9219
 7850TIP3   OH244964   3.665   0.169   1.019  0.0290 -0.1511 -1.2398
 7850TIP3    H144965   3.614   0.153   0.939  0.5022  2.7648 -2.2657
 7850TIP3    H244966   3.756   0.162   0.991  0.1942 -0.2962 -0.6706
 7851TIP3   OH244967   1.930   1.975   1.464 -0.1477 -0.7454  0.5114
 7851TIP3    H144968   1.894   1.942   1.381  1.4871 -1.2931 -0.0215
 7851TIP3    H244969   1.872   2.046   1.489 -1.2526 -1.2227 -0.5927
 7852TIP3   OH244970   1.336   0.248  16.427 -0.0935 -0.8366  0.1088
 7852TIP3    H144971   1.328   0.329  16.378  0.4732 -0.2000  1.0420
 7852TIP3    H244972   1.348   0.180  16.360 -0.7012 -0.1793 -0.6823
 7853TIP3   OH244973   0.146   0.720  16.571 -0.0606 -0.3702 -0.0055
 7853TIP3    H144974   0.128   0.627  16.557  0.4304 -0.4510 -0.1298
 7853TIP3    H244975   0.141   0.759  16.484  1.2815 -0.5670 -0.1966
 7854TIP3   OH244976   2.730   3.820   5.348 -0.2445  0.3691 -0.3856
 7854TIP3    H144977   2.741   3.910   5.319 -2.7465  0.4410 -1.3961
 7854TIP3    H244978   2.685   3.776   5.275  1.3064 -1.8471 -0.1237
 7855TIP3   OH244979   2.736   6.438   3.631  0.1864 -0.6345  0.0083
 7855TIP3    H144980   2.710   6.480   3.549 -1.9739  0.8614  1.3574
 7855TIP3    H244981   2.654   6.404   3.667  0.7503  0.3693  2.4036
 7856TIP3   OH244982   0.083   3.462   2.505 -0.2955 -0.0214 -0.2862
 7856TIP3    H144983   0.021   3.515   2.556 -2.0786 -0.8395 -1.5039
 7856TIP3    H244984   0.163   3.462   2.557 -2.1177 -1.2153  2.7844
 7857TIP3   OH244985   2.858   4.744   0.485  0.1504 -0.2472  0.1385
 7857TIP3    H144986   2.953   4.741   0.498  0.1015 -2.0019  0.3202
 7857TIP3    H244987   2.835   4.835   0.504  1.8251  0.2902 -0.1920
 7858TIP3   OH244988   0.181   3.261  13.948  0.2051  0.0300  0.0611
 7858TIP3    H144989   0.157   3.306  14.029  2.5633  0.1676  0.7599
 7858TIP3    H244990   0.250   3.201  13.973 -0.1771 -1.1761 -1.5839
 7859TIP3   OH244991   3.308   0.621   3.359  0.1297 -1.0762  0.3615
 7859TIP3    H144992   3.239   0.604   3.295  1.2781 -2.3955 -0.5703
 7859TIP3    H244993   3.273   0.587   3.441 -1.2278  0.3541  0.4317
 7860TIP3   OH244994   2.456   1.017   0.009 -0.0316  0.0387 -0.7728
 7860TIP3    H144995   2.440   0.961  -0.067 -0.1462 -0.3428 -0.4715
 7860TIP3    H244996   2.537   0.982   0.048 -0.7589 -0.7289  0.1286
 7861TIP3   OH244997   0.866   2.681  14.354  0.0165 -0.4693 -0.1294
 7861TIP3    H144998   0.871   2.590  14.323  2.4316 -1.6799  3.1559
 7861TIP3    H244999   0.956   2.704  14.376 -0.5588  2.7207 -0.6520
 7862TIP3   OH245000   5.737   6.555  11.272  0.4677  0.0464  0.3335
 7862TIP3    H145001   5.646   6.569  11.301  0.4376  0.2307  0.1490
 7862TIP3    H245002   5.790   6.586  11.345  0.3843 -0.0261  0.4272
 7863TIP3   OH245003   2.060   1.483   3.127  0.7174 -0.0960 -0.6187
 7863TIP3    H145004   2.149   1.451   3.140  1.1459  0.5804 -1.7195
 7863TIP3    H245005   2.037   1.455   3.038  0.5656  1.3556 -1.0622
 7864TIP3   OH245006   0.272   6.729   0.068 -0.1672  0.2877  0.1733
 7864TIP3    H145007   0.326   6.651   0.071  0.0784  0.3716 -1.2233
 7864TIP3    H245008   0.327   6.794   0.024 -1.6107  0.1643 -1.9407
 7865TIP3   OH245009   5.184   5.019   0.521 -0.2032  0.1310 -0.1393
 7865TIP3    H145010   5.139   4.935   0.533  0.1121  0.0351  0.3882
 7865TIP3    H245011   5.239   5.006   0.444 -0.0756 -0.1854  0.0008
 7866TIP3   OH245012   3.741   5.164  13.600  0.1694  0.6257  0.1532
 7866TIP3    H145013   3.718   5.073  13.615 -1.0588  0.8492 -0.2734
 7866TIP3    H245014   3.802   5.162  13.527 -3.1792  0.3885 -2.9138
 7867TIP3   OH245015   5.289   3.995  12.391  0.0873  0.1045 -0.1181
 7867TIP3    H145016   5.358   4.007  12.457  1.6210  0.2356 -1.6911
 7867TIP3    H245017   5.289   3.901  12.373  0.1704  0.1685 -0.4521
 7868TIP3   OH245018   5.717   5.417  13.354  0.0502 -0.6400 -0.1843
 7868TIP3    H145019   5.793   5.398  13.409  0.9601  0.4168 -1.0408
 7868TIP3    H245020   5.736   5.374  13.271 -0.9845 -1.6104  0.0562
 7869TIP3   OH245021   2.662   2.848  15.556  0.1779  0.2689  0.0012
 7869TIP3    H145022   2.628   2.883  15.474  0.5657 -0.4273 -0.4647
 7869TIP3    H245023   2.626   2.760  15.562 -3.3127  1.6254  2.6603
 7870TIP3   OH245024   5.859   2.035   1.849  0.1304  0.3314  0.0731
 7870TIP3    H145025   5.794   1.965   1.844  0.4873  0.0754 -1.3915
 7870TIP3    H245026   5.913   2.013   1.925 -1.5599  0.6398  1.4134
 7871TIP3   OH245027   2.140   3.029  17.205 -0.3847 -0.2707 -0.3942
 7871TIP3    H145028   2.172   2.981  17.282 -1.0049  0.8713  0.6281
 7871TIP3    H245029   2.218   3.051  17.155  0.2591  0.5752  0.9117
 7872TIP3   OH245030   1.133   4.020   1.360  0.7175  0.4001 -0.4518
 7872TIP3    H145031   1.129   4.027   1.455  0.6364 -1.1854 -0.3186
 7872TIP3    H245032   1.208   4.075   1.335  0.5895  1.0206  0.4890
 7873TIP3   OH245033   5.852   4.703  11.497  0.2882 -0.0130 -0.2078
 7873TIP3    H145034   5.881   4.699  11.406  0.3606 -0.9383 -0.1581
 7873TIP3    H245035   5.770   4.653  11.499  0.0805  0.3330  0.1610
 7874TIP3   OH245036   1.152   4.620   2.190 -0.3883 -0.0385 -0.0342
 7874TIP3    H145037   1.203   4.597   2.268  0.4872  2.1188  0.1228
 7874TIP3    H245038   1.184   4.707   2.166 -1.5676 -0.0970 -2.0482
 7875TIP3   OH245039   3.306   6.273   1.353  0.5411  0.2376 -0.3582
 7875TIP3    H145040   3.366   6.250   1.281 -0.2485 -0.6151 -0.7666
 7875TIP3    H245041   3.322   6.366   1.368  0.6736  0.4632 -1.6999
 7876TIP3   OH245042   3.191   1.673  10.420 -0.1602  0.0106  0.2192
 7876TIP3    H145043   3.201   1.616  10.496  2.6432  0.4080  0.2369
 7876TIP3    H245044   3.211   1.761  10.453 -0.1908  0.3757 -0.7021
 7877TIP3   OH245045   3.611   0.941  11.015 -0.4286  0.4377 -0.4592
 7877TIP3    H145046   3.581   0.855  10.987 -0.1033 -0.5882  2.1045
 7877TIP3    H245047   3.706   0.937  11.010 -0.3741  0.3036  0.5268
 7878TIP3   OH245048   1.134   0.305  12.466 -0.1620 -0.1153  0.1528
 7878TIP3    H145049   1.147   0.214  12.441 -1.2025  0.1835 -1.6419
 7878TIP3    H245050   1.042   0.310  12.493 -0.1768  0.4558  0.0128
 7879TIP3   OH245051   2.816   0.944   1.311  0.2222  0.6699 -0.5432
 7879TIP3    H145052   2.859   1.004   1.250  0.2315  0.5269 -0.6796
 7879TIP3    H245053   2.724   0.971   1.312  0.0407  0.1121 -1.3101
 7880TIP3   OH245054   1.021   2.161   4.979  0.0191 -0.3287  0.1659
 7880TIP3    H145055   1.045   2.226   4.912 -1.2740  0.7020  0.6681
 7880TIP3    H245056   0.974   2.211   5.045  0.4176 -1.5078  1.3881
 7881TIP3   OH245057   0.207   1.274  12.191  0.0010 -0.2778  0.4903
 7881TIP3    H145058   0.175   1.205  12.134 -2.3546  1.2787 -0.2025
 7881TIP3    H245059   0.162   1.261  12.274 -0.0873  0.1412  0.5122
 7882TIP3   OH245060   6.018   0.153   0.652  0.5990 -0.1925  0.1499
 7882TIP3    H145061   5.961   0.224   0.679 -0.1613 -0.4725 -0.6939
 7882TIP3    H245062   6.045   0.111   0.734 -0.5806 -0.1950  0.5502
 7883TIP3   OH245063   4.520   6.414   6.217 -0.4323 -0.0953 -0.1100
 7883TIP3    H145064   4.507   6.418   6.122 -1.6871 -0.6334  0.0229
 7883TIP3    H245065   4.511   6.505   6.246 -2.1981 -0.1821 -0.2710
 7884TIP3   OH245066   4.750   0.625  12.379  0.1745 -0.6724 -0.0530
 7884TIP3    H145067   4.829   0.676  12.363  0.5232 -1.3391 -0.4608
 7884TIP3    H245068   4.680   0.691  12.384  0.9905  0.1111  2.2092
 7885TIP3   OH245069   5.992   5.836   1.165  0.6632  0.0034 -0.1162
 7885TIP3    H145070   5.988   5.747   1.129  1.0819 -0.3263  0.6333
 7885TIP3    H245071   5.910   5.845   1.213  0.4285  0.1841 -0.5416
 7886TIP3   OH245072   4.782   5.852   0.785 -0.1507  0.1242 -0.1265
 7886TIP3    H145073   4.819   5.929   0.828 -0.2248  0.0966 -0.0109
 7886TIP3    H245074   4.809   5.778   0.839 -0.6275  0.1350  0.1294
 7887TIP3   OH245075   5.054   2.586   3.269  0.2243  0.1763 -0.6711
 7887TIP3    H145076   5.041   2.568   3.363  0.1992  1.2249 -0.4625
 7887TIP3    H245077   5.143   2.620   3.263  0.0405  0.6242 -0.9425
 7888TIP3   OH245078   2.452   2.227   4.976  0.2014  0.4924  0.2374
 7888TIP3    H145079   2.363   2.221   4.939  0.1251  2.7502 -0.0871
 7888TIP3    H245080   2.446   2.182   5.060 -0.8326 -0.7264 -0.4497
 7889TIP3   OH245081   3.680   1.706   0.672 -0.2761 -0.2327  0.4471
 7889TIP3    H145082   3.695   1.762   0.748 -1.1541  2.5599 -1.2855
 7889TIP3    H245083   3.768   1.680   0.644  0.2464  1.0714  0.7875
 7890TIP3   OH245084   6.281   3.447   6.458  0.0858  1.0243  0.1054
 7890TIP3    H145085   6.353   3.423   6.516  1.1642  0.2956 -1.4817
 7890TIP3    H245086   6.221   3.372   6.463  0.0174  1.1036  0.5084
 7891TIP3   OH245087   6.640   1.772   5.052 -0.2547 -0.0516  0.1973
 7891TIP3    H145088   6.633   1.694   4.997 -2.2576  0.4425 -0.3228
 7891TIP3    H245089   6.730   1.770   5.085  0.1518 -1.8354 -0.8875
 7892TIP3   OH245090   4.116   4.788  12.831 -0.6633  0.1100 -0.2507
 7892TIP3    H145091   4.022   4.773  12.822 -0.9803  1.6553  0.3039
 7892TIP3    H245092   4.130   4.799  12.925  0.0111  0.3028 -0.3627
 7893TIP3   OH245093   2.745   0.274  14.352  0.2499 -0.1515 -0.3299
 7893TIP3    H145094   2.747   0.184  14.385  1.4333  0.6254  1.9541
 7893TIP3    H245095   2.827   0.283  14.303  2.1715  0.6517  2.6875
 7894TIP3   OH245096   2.262   3.677   5.986 -0.6601 -0.2526  0.1535
 7894TIP3    H145097   2.204   3.751   6.007 -0.1020  0.1459  0.3042
 7894TIP3    H245098   2.343   3.696   6.033 -0.7637 -1.3405  0.8206
 7895TIP3   OH245099   0.757   1.607   5.067  0.3213  0.0881  0.0606
 7895TIP3    H145100   0.714   1.547   5.007  0.1448 -0.4866  0.7498
 7895TIP3    H245101   0.690   1.672   5.088  0.4920  0.4951 -0.6309
 7896TIP3   OH245102   5.381   4.267   1.691 -0.0558  0.2236  0.3785
 7896TIP3    H145103   5.393   4.279   1.785 -0.4683 -0.9081  0.5884
 7896TIP3    H245104   5.413   4.349   1.652 -2.9497  2.1429  1.6913
 7897TIP3   OH245105   5.172   1.254  14.660  0.6481 -0.8453 -0.3930
 7897TIP3    H145106   5.220   1.211  14.589  1.2373  0.8453 -1.0731
 7897TIP3    H245107   5.082   1.262  14.626  0.7569 -0.7057 -0.6522
 7898TIP3   OH245108   5.617   4.321   3.807  0.1087  0.2691 -0.2808
 7898TIP3    H145109   5.561   4.360   3.874 -0.1507  1.1771 -1.0145
 7898TIP3    H245110   5.705   4.350   3.831  0.1067  0.0031  0.0649
 7899TIP3   OH245111   5.978   6.600  14.805 -0.4070 -0.2605 -0.4362
 7899TIP3    H145112   5.902   6.546  14.828  0.0305 -0.7463 -0.1060
 7899TIP3    H245113   6.018   6.556  14.730 -0.4343 -0.0186 -0.5955
 7900TIP3   OH245114   4.114   5.793  11.276  0.4208 -0.1934  0.0562
 7900TIP3    H145115   4.147   5.740  11.349 -0.4795 -1.0107 -0.1087
 7900TIP3    H245116   4.148   5.750  11.198  2.8330  1.6611 -0.0263
 7901TIP3   OH245117   3.234   4.356   1.067  0.2468 -0.4735  0.0703
 7901TIP3    H145118   3.212   4.268   1.098  0.4786 -0.9373 -1.0515
 7901TIP3    H245119   3.152   4.392   1.034  0.5431 -1.0904 -1.4133
 7902TIP3   OH245120   3.936   4.271  12.947 -0.5666  0.3904 -0.1635
 7902TIP3    H145121   3.959   4.183  12.919 -0.3897  0.7629 -1.2310
 7902TIP3    H245122   3.853   4.290  12.902 -0.4708  0.8684 -0.1438
 7903TIP3   OH245123   0.116   3.779  15.955 -0.4112  0.3324  0.4837
 7903TIP3    H145124   0.168   3.809  16.029 -0.8714 -0.9003  1.3439
 7903TIP3    H245125   0.181   3.759  15.887  0.0657  0.8122  0.7901
 7904TIP3   OH245126   3.840   5.048   2.654  0.5645 -0.0304  0.0259
 7904TIP3    H145127   3.898   5.073   2.583  1.9631 -0.0201  1.1286
 7904TIP3    H245128   3.795   5.130   2.677  2.5513  0.7750  1.3038
 7905TIP3   OH245129   4.133   0.928  16.491 -0.0860  0.7498 -0.0198
 7905TIP3    H145130   4.079   0.944  16.414  0.5168 -0.5034 -0.7344
 7905TIP3    H245131   4.223   0.943  16.462  0.1204  0.6680  0.5523
 7906TIP3   OH245132   1.063   0.063  15.189  0.2208  0.3242 -0.0076
 7906TIP3    H145133   1.076   0.090  15.098 -1.8936  0.8089 -0.2248
 7906TIP3    H245134   1.017  -0.021  15.183  1.0370 -0.1878  0.6426
 7907TIP3   OH245135   3.737   2.337  16.726  0.1357 -0.1728  0.6190
 7907TIP3    H145136   3.720   2.331  16.633  1.1438 -0.0923  0.4113
 7907TIP3    H245137   3.754   2.430  16.742  2.3030 -0.4805  0.4056
 7908TIP3   OH245138   4.588   1.129  14.343  0.2038  0.2089 -0.3093
 7908TIP3    H145139   4.560   1.092  14.259  0.2885 -0.4309 -0.0601
 7908TIP3    H245140   4.516   1.185  14.370 -0.1617 -0.1967 -0.4340
 7909TIP3   OH245141   1.555   2.899  11.589  0.3956 -0.2156 -0.5931
 7909TIP3    H145142   1.524   2.990  11.591  1.9622  0.3435 -0.2952
 7909TIP3    H245143   1.475   2.847  11.581 -0.5988  1.1437  0.0390
 7910TIP3   OH245144   2.266   0.011  14.433  0.3814  0.1906 -0.2099
 7910TIP3    H145145   2.235  -0.067  14.387 -2.6439  1.8223 -1.1458
 7910TIP3    H245146   2.361   0.001  14.435  0.3567 -1.8581 -3.3324
 7911TIP3   OH245147   6.727   5.630   4.278 -0.3239 -0.3389 -0.2364
 7911TIP3    H145148   6.821   5.645   4.291 -0.3153  0.1083 -0.7676
 7911TIP3    H245149   6.721   5.540   4.246 -0.2985 -1.2839  2.2026
 7912TIP3   OH245150   3.178   6.549  17.085 -0.2983  0.6598 -0.3964
 7912TIP3    H145151   3.097   6.589  17.052  0.7018  2.7945 -0.4184
 7912TIP3    H245152   3.231   6.623  17.116  1.3232 -0.7494  0.3665
 7913TIP3   OH245153   5.087   5.533   0.743  0.0343  0.4431  0.2397
 7913TIP3    H145154   5.015   5.514   0.683 -1.0880  2.1077  1.0115
 7913TIP3    H245155   5.055   5.505   0.829  0.6784  0.3554  0.4573
 7914TIP3   OH245156   1.156   1.958  14.417  0.6590  0.1214 -0.0788
 7914TIP3    H145157   1.073   1.992  14.449  1.0332  0.4508  0.5419
 7914TIP3    H245158   1.217   2.030  14.425  0.9579 -0.0388 -0.7761
 7915TIP3   OH245159   4.088   5.119  16.282 -0.3045  0.2463 -0.0839
 7915TIP3    H145160   4.038   5.038  16.282  0.4196 -0.2087  0.1235
 7915TIP3    H245161   4.117   5.130  16.192 -0.7930  0.5197 -0.2079
 7916TIP3   OH245162   4.338   0.526  15.253 -0.2279  0.3679  0.0399
 7916TIP3    H145163   4.368   0.533  15.344 -2.5002 -5.3894  1.6847
 7916TIP3    H245164   4.245   0.504  15.261  0.2165 -3.9709 -3.2203
 7917TIP3   OH245165   4.037   0.509   4.456 -0.2087 -0.2088  0.0992
 7917TIP3    H145166   4.043   0.458   4.375 -2.8112  0.6367 -0.7139
 7917TIP3    H245167   4.090   0.460   4.518  1.9394 -0.8759 -2.0636
 7918TIP3   OH245168   3.753   4.911   2.403  0.1374 -0.0758  0.0158
 7918TIP3    H145169   3.769   4.912   2.497  1.6693 -1.2935 -0.1999
 7918TIP3    H245170   3.731   5.002   2.381  0.9425  0.4651  1.3470
 7919TIP3   OH245171   4.233   6.714  15.747 -0.2899  0.0240 -0.3190
 7919TIP3    H145172   4.160   6.697  15.806 -0.9681  2.1372 -0.4650
 7919TIP3    H245173   4.193   6.758  15.671  1.0931  1.2153 -0.4028
 7920TIP3   OH245174   4.917   2.905  16.370  0.3437 -0.1623  0.5756
 7920TIP3    H145175   4.904   2.891  16.276  0.0702 -0.8024  0.7014
 7920TIP3    H245176   4.959   2.824  16.399 -2.2939 -1.2704  1.5603
 7921TIP3   OH245177   1.774   1.194  16.203 -0.1267 -0.2550 -0.1891
 7921TIP3    H145178   1.800   1.155  16.286 -0.1232 -0.1380 -0.1345
 7921TIP3    H245179   1.747   1.120  16.148 -0.1911 -0.3259 -0.0612
 7922TIP3   OH245180   0.469   6.058  13.404 -0.0451 -0.0145 -0.4423
 7922TIP3    H145181   0.463   5.972  13.447 -1.7398 -0.1774 -0.9475
 7922TIP3    H245182   0.445   6.121  13.472 -0.2000 -0.0573 -0.4580
 7923TIP3   OH245183   5.020   6.458  12.888  0.2463  0.3598  0.2210
 7923TIP3    H145184   5.033   6.548  12.858  0.3417  0.1123 -0.4982
 7923TIP3    H245185   5.076   6.450  12.966 -1.0342  1.4241  1.3051
 7924TIP3   OH245186   1.797   4.292   1.896 -0.5946 -0.2559  0.3528
 7924TIP3    H145187   1.866   4.282   1.962 -0.2949 -1.0292 -0.0644
 7924TIP3    H245188   1.770   4.384   1.904 -0.0307 -0.1365  1.0240
 7925TIP3   OH245189   2.279   2.297  11.696 -0.2181 -0.2793 -0.1603
 7925TIP3    H145190   2.306   2.287  11.605  0.0394 -1.1059  0.0023
 7925TIP3    H245191   2.247   2.211  11.721  0.0500 -0.1504  0.6440
 7926TIP3   OH245192   0.979   3.895   2.734  0.1129 -0.2663  0.0441
 7926TIP3    H145193   0.988   3.826   2.668 -2.0528 -1.2076  0.6475
 7926TIP3    H245194   0.983   3.849   2.817 -2.2897  0.1285  0.4471
 7927TIP3   OH245195   1.730   2.500  14.174  0.3849  0.2849 -0.2125
 7927TIP3    H145196   1.695   2.442  14.107 -1.4693  0.3725  0.6070
 7927TIP3    H245197   1.742   2.444  14.251 -3.6186  1.1763  1.3404
 7928TIP3   OH245198   4.000   5.116   3.515 -0.1877  0.0833 -0.4414
 7928TIP3    H145199   3.969   5.034   3.555  1.5333  0.1138  1.0518
 7928TIP3    H245200   3.935   5.181   3.542 -0.1003 -0.2788  0.7062
 7929TIP3   OH245201   4.776   6.333   4.518  0.0181 -0.1558 -0.0256
 7929TIP3    H145202   4.701   6.281   4.546 -1.8587  2.1233 -0.5149
 7929TIP3    H245203   4.792   6.306   4.428  0.4971 -1.3953  0.4186
 7930TIP3   OH245204   5.467   5.282   1.192 -0.5050 -0.0011  1.1670
 7930TIP3    H145205   5.466   5.194   1.155 -2.4689 -0.8380  2.9623
 7930TIP3    H245206   5.410   5.333   1.135 -2.5056 -0.9571  2.2084
 7931TIP3   OH245207   0.397   2.789   0.211 -0.5222  0.0378  0.4921
 7931TIP3    H145208   0.453   2.809   0.286 -0.2501  0.0625  0.2841
 7931TIP3    H245209   0.316   2.837   0.228  0.3716  1.9476 -0.3567
 7932TIP3   OH245210   6.677   0.080  13.738  0.5085 -0.0931  0.0474
 7932TIP3    H145211   6.705   0.070  13.647  0.6265  1.1639 -0.0811
 7932TIP3    H245212   6.592   0.124  13.732  1.1820  1.3339  0.5540
 7933TIP3   OH245213   4.905   5.632  16.129  0.0169 -0.3478 -0.2829
 7933TIP3    H145214   4.950   5.612  16.046  0.5203  1.6688 -0.5364
 7933TIP3    H245215   4.859   5.551  16.150 -0.5577 -0.7864 -2.8174
 7934TIP3   OH245216   1.996   5.382   0.839 -0.0752  0.4738 -0.3173
 7934TIP3    H145217   2.033   5.293   0.834  2.1555  1.1734  1.6530
 7934TIP3    H245218   2.029   5.426   0.761  1.3412  0.3807  0.1963
 7935TIP3   OH245219   6.154   5.276  16.497  0.2962 -0.0066  0.0757
 7935TIP3    H145220   6.148   5.183  16.516  0.7418  0.4644  3.0132
 7935TIP3    H245221   6.067   5.311  16.517  0.0385  0.1983 -1.3063
 7936TIP3   OH245222   0.690   6.412  17.209  0.7915  0.5037  0.3580
 7936TIP3    H145223   0.732   6.391  17.293 -0.7127 -2.4875  0.4938
 7936TIP3    H245224   0.611   6.460  17.233  1.0834  0.9069  0.5280
 7937TIP3   OH245225   2.785   2.261   4.466 -0.3487  0.1894  0.3043
 7937TIP3    H145226   2.727   2.281   4.393  1.8511  3.6742 -0.7439
 7937TIP3    H245227   2.742   2.301   4.542 -1.6140 -1.5871  0.5689
 7938TIP3   OH245228   1.545   2.905  14.238 -0.1250 -0.6069  0.0288
 7938TIP3    H145229   1.489   2.946  14.172  0.6449 -1.9842 -1.5492
 7938TIP3    H245230   1.526   2.812  14.233 -1.2755 -0.6595  3.0059
 7939TIP3   OH245231   6.111   2.581   2.531 -0.7661 -0.1700  0.4684
 7939TIP3    H145232   6.182   2.626   2.577 -0.4588 -0.5270  0.3456
 7939TIP3    H245233   6.053   2.651   2.503  0.4918  0.3203 -1.0860
 7940TIP3   OH245234   6.685   1.921  14.558 -0.6401 -0.1627  0.1771
 7940TIP3    H145235   6.748   1.935  14.629 -1.1511  1.3527  0.3751
 7940TIP3    H245236   6.640   1.840  14.581  1.7241 -1.7474 -0.3745
 7941TIP3   OH245237   0.421   5.427  16.506  0.2570 -0.1178  0.0473
 7941TIP3    H145238   0.360   5.365  16.466  0.0131  1.1288 -1.5798
 7941TIP3    H245239   0.413   5.410  16.600 -0.5362 -1.8585 -0.2869
 7942TIP3   OH245240   4.990   2.933   3.525 -0.2015  0.4681 -0.6232
 7942TIP3    H145241   5.018   2.851   3.484  0.0597  0.7155 -0.9469
 7942TIP3    H245242   4.898   2.942   3.502 -0.9625 -1.0180  1.5380
 7943TIP3   OH245243   2.604   3.218   4.131  0.3498 -0.6749 -0.8802
 7943TIP3    H145244   2.656   3.219   4.050  2.5932 -1.4448  0.4668
 7943TIP3    H245245   2.669   3.222   4.201 -1.5232 -0.2326  0.9194
 7944TIP3   OH245246   5.646   1.291   5.975 -0.5779 -0.0274  0.5888
 7944TIP3    H145247   5.566   1.272   6.022 -0.3095  0.0263  1.0732
 7944TIP3    H245248   5.699   1.342   6.037  0.4994 -1.4393  0.8744
 7945TIP3   OH245249   1.064   6.306  16.499 -0.2470 -0.3545  0.2978
 7945TIP3    H145250   0.983   6.346  16.532 -0.9211 -0.8965 -0.6313
 7945TIP3    H245251   1.082   6.352  16.417  1.6657  1.3053  1.5538
 7946TIP3   OH245252   5.821   6.407   0.952 -0.0466  0.1297 -0.1116
 7946TIP3    H145253   5.806   6.500   0.936  1.4928  0.3359 -0.5037
 7946TIP3    H245254   5.904   6.404   1.001 -0.1513 -1.0246  0.0273
 7947TIP3   OH245255   3.575   3.354  16.904  0.2130  0.0643 -0.1494
 7947TIP3    H145256   3.485   3.322  16.912  0.0834  0.7033  1.3873
 7947TIP3    H245257   3.576   3.405  16.823 -0.8102  0.0205 -0.2017
 7948TIP3   OH245258   6.079   4.383   3.998  0.3426  0.3069 -0.2033
 7948TIP3    H145259   6.122   4.415   4.078  0.1347  0.0021  0.0299
 7948TIP3    H245260   6.129   4.424   3.927  0.8970  0.1210  0.0679
 7949TIP3   OH245261   2.364   3.839  12.031 -0.2252 -0.0187 -0.3243
 7949TIP3    H145262   2.401   3.873  12.113 -0.4540 -0.4479 -0.0392
 7949TIP3    H245263   2.428   3.775  12.001  0.1909  0.6337 -0.8465
 7950TIP3   OH245264   3.869   4.804  12.399 -0.3450  0.2037  0.1792
 7950TIP3    H145265   3.825   4.844  12.324 -0.9895 -1.6916 -0.5108
 7950TIP3    H245266   3.921   4.734  12.362  2.9287  1.9718  1.0505
 7951TIP3   OH245267   0.981   4.234   0.247  0.0876  0.1701 -0.4424
 7951TIP3    H145268   1.045   4.259   0.314 -1.1986  2.3776  0.0958
 7951TIP3    H245269   1.005   4.287   0.171 -0.5872  0.4010 -0.4994
 7952TIP3   OH245270   2.866   2.721  17.022  0.0701 -0.1054  0.1824
 7952TIP3    H145271   2.914   2.639  17.018 -1.0375 -0.7730  0.3557
 7952TIP3    H245272   2.871   2.747  17.114  0.5397  0.1004  0.1008
 7953TIP3   OH245273   4.244   5.123  15.497 -0.0337  0.4558  0.1582
 7953TIP3    H145274   4.181   5.178  15.544 -2.1471 -0.1050 -1.8551
 7953TIP3    H245275   4.203   5.036  15.494  1.0069 -0.0312 -0.9170
 7954TIP3   OH245276   5.945   3.590  11.806 -0.1170  0.1385 -0.0367
 7954TIP3    H145277   5.992   3.623  11.729 -0.7911  0.7766 -0.1855
 7954TIP3    H245278   6.013   3.572  11.870  0.6182 -1.7280 -1.2324
 7955TIP3   OH245279   5.270   4.682   4.974  0.3680  0.5405 -0.1384
 7955TIP3    H145280   5.202   4.719   5.030  0.7523  0.3321  0.4804
 7955TIP3    H245281   5.253   4.719   4.887 -0.7473  0.2175 -0.0776
 7956TIP3   OH245282   2.472   1.228   0.991 -0.3241 -0.2933 -0.1503
 7956TIP3    H145283   2.520   1.310   0.988 -0.4721 -0.1632  0.8923
 7956TIP3    H245284   2.499   1.182   0.911 -1.0368  1.1847 -1.2977
 7957TIP3   OH245285   0.044   0.778  14.412 -0.5701  0.5260 -0.5630
 7957TIP3    H145286   0.129   0.820  14.429  0.6931 -1.4908 -1.4275
 7957TIP3    H245287   0.003   0.772  14.498  0.1597  1.5110 -0.1158
 7958TIP3   OH245288   2.907   6.024   6.025  0.8745  0.5071 -0.0748
 7958TIP3    H145289   2.872   6.046   6.111  1.7312 -0.0982  0.4410
 7958TIP3    H245290   2.831   6.026   5.967  0.4338  1.8441  0.5090
 7959TIP3   OH245291   0.963   1.486  17.165  0.0011 -0.2602  0.1202
 7959TIP3    H145292   1.056   1.471  17.180  0.3815  2.4602  1.0941
 7959TIP3    H245293   0.919   1.441  17.238  0.6964 -0.2056  0.5815
 7960TIP3   OH245294   5.403   3.780  10.672  0.2906 -0.1326 -0.2230
 7960TIP3    H145295   5.373   3.790  10.581 -0.1201 -1.9695 -0.3172
 7960TIP3    H245296   5.381   3.690  10.695  0.3155  0.3156  1.7445
 7961TIP3   OH245297   0.664   2.773  13.063 -0.1973  0.3633  0.4747
 7961TIP3    H145298   0.691   2.806  12.977  1.1517 -1.4359  0.1420
 7961TIP3    H245299   0.579   2.733  13.047  0.5654 -1.0044 -0.3387
 7962TIP3   OH245300   3.876   1.723   3.263 -0.4055  0.1648  0.0621
 7962TIP3    H145301   3.846   1.632   3.269 -1.1354  0.4472  0.9650
 7962TIP3    H245302   3.921   1.738   3.347 -3.1309  1.5958  1.4105
 7963TIP3   OH245303   3.551   1.198  13.341 -0.0034 -0.1328  0.0810
 7963TIP3    H145304   3.547   1.122  13.400 -0.8139  0.0652  0.3053
 7963TIP3    H245305   3.501   1.171  13.264  3.0982 -1.3109 -1.6837
 7964TIP3   OH245306   0.875   1.854  17.195 -0.0207  0.1535 -0.6723
 7964TIP3    H145307   0.906   1.923  17.254 -0.6320  0.4048 -0.6412
 7964TIP3    H245308   0.909   1.773  17.233 -0.4282  0.3100  0.0479
 7965TIP3   OH245309   4.502   0.033  15.064  0.1499  0.3696 -0.2172
 7965TIP3    H145310   4.544   0.006  15.146  0.1988  0.3104 -0.2622
 7965TIP3    H245311   4.512   0.128  15.062  1.1460  0.2622 -0.7062
 7966TIP3   OH245312   5.349   1.921  13.453 -0.3116  0.2995  0.5445
 7966TIP3    H145313   5.429   1.909  13.403  1.6955  0.7089  3.4267
 7966TIP3    H245314   5.279   1.901  13.391  1.9104  1.1392 -2.4740
 7967TIP3   OH245315   2.742   0.601   4.769  0.1058 -0.1168 -0.1009
 7967TIP3    H145316   2.698   0.516   4.767 -0.3867  0.1322 -1.4071
 7967TIP3    H245317   2.773   0.614   4.679  0.3454  0.9938  0.1229
 7968TIP3   OH245318   3.158   5.302  16.828  0.0367  0.0443 -0.2780
 7968TIP3    H145319   3.119   5.298  16.741  1.2540  3.0407 -1.0775
 7968TIP3    H245320   3.084   5.322  16.886 -0.2177  3.0038 -1.4185
 7969TIP3   OH245321   1.583   4.075  14.036  0.1728 -0.4421  0.6475
 7969TIP3    H145322   1.533   4.141  14.084  1.6180  0.8717  0.4258
 7969TIP3    H245323   1.569   3.994  14.086 -0.5801  0.3022  1.6978
 7970TIP3   OH245324   3.801   3.047  10.462 -0.1361  0.1397 -0.5521
 7970TIP3    H145325   3.863   3.118  10.452 -0.6328  0.6074 -0.3894
 7970TIP3    H245326   3.850   2.968  10.438  0.7838  0.3841  0.4634
 7971TIP3   OH245327   4.156   6.139   5.129 -0.2368 -0.3978  0.1544
 7971TIP3    H145328   4.087   6.203   5.145 -0.3016  0.6070 -3.4104
 7971TIP3    H245329   4.237   6.190   5.132 -0.1864 -0.3343 -1.4276
 7972TIP3   OH245330   2.850   1.443  13.708  0.0617  0.1751 -0.1174
 7972TIP3    H145331   2.794   1.463  13.634  0.6681 -0.0783 -0.6555
 7972TIP3    H245332   2.874   1.351  13.697  1.0428  0.4317 -0.2192
 7973TIP3   OH245333   5.770   5.570   0.759 -0.0738 -0.6222 -0.1454
 7973TIP3    H145334   5.781   5.664   0.775 -0.9162 -0.6974  0.9445
 7973TIP3    H245335   5.829   5.552   0.685 -2.4907  1.4725 -2.8492
 7974TIP3   OH245336   6.134   4.528   5.124  0.0785 -0.3027  0.4502
 7974TIP3    H145337   6.041   4.548   5.113  0.0132 -0.2454  1.0983
 7974TIP3    H245338   6.145   4.443   5.080 -0.2109 -0.1658  0.1034
 7975TIP3   OH245339   2.137   2.861  11.050  0.5988  0.5248  0.7233
 7975TIP3    H145340   2.212   2.920  11.045  0.6913  0.4736  1.3556
 7975TIP3    H245341   2.147   2.817  11.135  0.7328 -0.6727  0.1049
 7976TIP3   OH245342   2.560   2.499   3.223 -0.5489 -0.3480 -0.3261
 7976TIP3    H145343   2.533   2.562   3.156  0.1514 -1.3006 -1.5523
 7976TIP3    H245344   2.480   2.482   3.273 -0.8992  1.0082 -0.3847
 7977TIP3   OH245345   1.656   6.447  14.010  0.2094  0.2432  0.2305
 7977TIP3    H145346   1.706   6.516  14.054  0.3080  0.8166 -0.7471
 7977TIP3    H245347   1.684   6.451  13.918 -0.0274 -0.8878  0.0960
 7978TIP3   OH245348   1.842   3.296   4.079 -0.6921 -0.5717 -0.1301
 7978TIP3    H145349   1.826   3.289   4.173 -1.4742  0.7247 -0.1455
 7978TIP3    H245350   1.937   3.289   4.071 -0.7046 -2.0056  0.6038
 7979TIP3   OH245351   3.602   1.458  15.459 -0.2295 -0.4002 -0.2764
 7979TIP3    H145352   3.618   1.543  15.418 -2.4762 -0.0676 -0.5845
 7979TIP3    H245353   3.674   1.403  15.428 -0.5635  0.4736 -2.8341
 7980TIP3   OH245354   0.584   2.079  13.614  0.0364  0.1398  0.2762
 7980TIP3    H145355   0.551   2.075  13.524 -0.5041  0.6172  0.4552
 7980TIP3    H245356   0.661   2.135  13.608  0.3722 -0.3361  0.0039
 7981TIP3   OH245357   3.301   2.944   4.542 -0.5273  0.3161  0.6185
 7981TIP3    H145358   3.280   2.993   4.463 -1.2085  2.0898  1.8493
 7981TIP3    H245359   3.359   3.002   4.592  1.2933 -1.4563  0.7070
 7982TIP3   OH245360   0.166   3.250  10.574  0.6673 -0.4353 -0.0546
 7982TIP3    H145361   0.084   3.262  10.622 -0.4722 -1.6058 -1.6149
 7982TIP3    H245362   0.179   3.331  10.527 -0.3676 -0.7375 -0.8922
 7983TIP3   OH245363   3.669   2.682   2.510  0.2634  0.1829  0.5816
 7983TIP3    H145364   3.584   2.725   2.503 -0.7259 -1.4678  1.5974
 7983TIP3    H245365   3.679   2.634   2.428 -2.3186 -3.7456  2.2531
 7984TIP3   OH245366   1.857   1.868   5.574 -0.2751 -0.0537 -0.8656
 7984TIP3    H145367   1.787   1.836   5.518 -0.3420 -1.5231  0.0237
 7984TIP3    H245368   1.912   1.791   5.591  0.1494  0.5178  0.4842
 7985TIP3   OH245369   4.934   0.808  14.568 -0.0779 -0.0105 -0.2139
 7985TIP3    H145370   4.945   0.845  14.656 -0.4332  0.2202 -0.2644
 7985TIP3    H245371   5.005   0.847  14.517 -0.9838  1.3567 -0.5023
 7986TIP3   OH245372   2.994   5.197  14.079 -0.0705  0.4891 -0.0009
 7986TIP3    H145373   2.914   5.245  14.098 -0.6266 -0.8180  1.1383
 7986TIP3    H245374   3.065   5.256  14.104 -0.7322  0.2859  2.6356
 7987TIP3   OH245375   3.476   2.664   3.576  0.2480  0.5922 -0.1856
 7987TIP3    H145376   3.390   2.644   3.539  0.7777 -0.4471 -0.8874
 7987TIP3    H245377   3.487   2.601   3.647  1.9439 -1.8238 -2.4410
 7988TIP3   OH245378   6.476   1.730   0.116  0.2378  0.2743  0.0810
 7988TIP3    H145379   6.559   1.693   0.086 -0.8721 -3.5392  1.2018
 7988TIP3    H245380   6.497   1.770   0.200  1.2005  0.7277 -0.3593
 7989TIP3   OH245381   6.006   3.317  13.976  0.0782  0.0381 -0.3774
 7989TIP3    H145382   5.979   3.338  14.066 -0.0394 -0.5330 -0.2702
 7989TIP3    H245383   6.096   3.348  13.970  0.1815 -0.1697  0.0351
 7990TIP3   OH245384   2.054   3.880   3.546 -0.3142  0.8613 -0.0190
 7990TIP3    H145385   2.056   3.966   3.504 -3.0641  0.7799 -0.4650
 7990TIP3    H245386   2.002   3.894   3.625 -0.1690 -0.2541  0.2808
 7991TIP3   OH245387   3.471   2.291   4.702  0.3031 -0.9364 -0.2688
 7991TIP3    H145388   3.410   2.355   4.739  1.3427  1.0024 -1.7357
 7991TIP3    H245389   3.530   2.270   4.775 -0.8098 -1.2499  0.5797
 7992TIP3   OH245390   3.827   6.431   0.431  0.1620 -0.0941  0.0497
 7992TIP3    H145391   3.898   6.494   0.423  0.1759 -0.0887  0.2051
 7992TIP3    H245392   3.868   6.354   0.472  0.5742 -0.9115 -1.8167
 7993TIP3   OH245393   3.205   6.137  16.796 -0.3059  0.5480 -0.0094
 7993TIP3    H145394   3.206   6.063  16.857 -1.2768  0.7995  0.3219
 7993TIP3    H245395   3.140   6.197  16.832 -1.8966  0.1069 -1.9939
 7994TIP3   OH245396   2.235   3.435  16.957  0.0892 -0.2099 -0.5434
 7994TIP3    H145397   2.283   3.367  16.909 -0.5034  0.2122 -1.7551
 7994TIP3    H245398   2.165   3.462  16.898  1.0667  2.3732 -0.6475
 7995TIP3   OH245399   3.977   5.439   3.008 -0.0343 -0.3346  0.1806
 7995TIP3    H145400   3.979   5.451   3.103  0.8956  0.2270  0.0991
 7995TIP3    H245401   3.925   5.512   2.975 -0.9904 -0.9359  0.2968
 7996TIP3   OH245402   3.885   6.053   1.326  0.2189 -1.1154  0.0108
 7996TIP3    H145403   3.968   6.075   1.283 -0.8238  1.2475 -0.9627
 7996TIP3    H245404   3.909   6.035   1.417  1.5959  1.7807  0.3211
 7997TIP3   OH245405   5.252   3.138   4.896 -0.6453 -0.3802 -0.2685
 7997TIP3    H145406   5.216   3.084   4.825 -1.4295 -0.5161  0.2144
 7997TIP3    H245407   5.228   3.091   4.976 -1.2937  0.6402  0.1623
 7998TIP3   OH245408   6.349   2.727  11.433 -0.3718  0.4011  0.0912
 7998TIP3    H145409   6.439   2.705  11.412 -0.7154  0.7902 -1.9303
 7998TIP3    H245410   6.305   2.737  11.349 -2.1151  1.0449  1.0053
 7999TIP3   OH245411   1.541   4.685  11.177 -0.5733 -0.2034  0.8331
 7999TIP3    H145412   1.456   4.645  11.159  0.4215 -2.3326  0.4969
 7999TIP3    H245413   1.604   4.624  11.138  1.1014  1.4496  0.8355
 8000TIP3   OH245414   5.330   0.759   1.106 -0.4469  0.0968  0.3764
 8000TIP3    H145415   5.358   0.692   1.043  0.1658 -0.2002  0.9602
 8000TIP3    H245416   5.274   0.817   1.054 -1.9531 -1.4883  0.1075
 8001TIP3   OH245417   4.390   5.920  10.709  0.0997  0.1436  0.9844
 8001TIP3    H145418   4.476   5.877  10.706 -0.2909 -0.6513  1.0112
 8001TIP3    H245419   4.347   5.894  10.628  1.3610  3.8002 -1.1013
 8002TIP3   OH245420   2.613   0.236  17.197  0.0272 -0.5719 -0.1263
 8002TIP3    H145421   2.648   0.160  17.151  1.7148 -0.2418  0.5387
 8002TIP3    H245422   2.652   0.231  17.284 -1.1995  0.1320  0.4853
 8003TIP3   OH245423   5.400   2.443  16.836  0.4881  0.1092  0.2790
 8003TIP3    H145424   5.349   2.411  16.762  0.1401 -0.8144  0.8924
 8003TIP3    H245425   5.477   2.386  16.840  0.3639 -0.0353  0.7789
 8004TIP3   OH245426   3.752   6.204   2.247  0.6118  0.1980 -0.3289
 8004TIP3    H145427   3.770   6.289   2.206 -0.1077 -0.1827 -1.4789
 8004TIP3    H245428   3.665   6.179   2.213  0.6971 -0.8665  0.2027
 8005TIP3   OH245429   6.521   0.065   0.197 -0.6117 -0.0285  0.2262
 8005TIP3    H145430   6.459   0.104   0.258 -0.4233  1.2777 -0.3727
 8005TIP3    H245431   6.526   0.128   0.125 -1.2113 -1.7263 -1.3940
 8006TIP3   OH245432   0.803   1.219   5.492  0.1517 -0.6667 -0.0232
 8006TIP3    H145433   0.719   1.191   5.529 -1.2347  0.2535 -2.2615
 8006TIP3    H245434   0.839   1.140   5.453 -0.3626 -0.8011 -0.2435
 8007TIP3   OH245435   2.307   0.898  10.095 -0.6568  0.5522 -0.0228
 8007TIP3    H145436   2.278   0.808  10.078  0.2469  0.2488 -0.0149
 8007TIP3    H245437   2.401   0.890  10.114 -0.2132  1.6738 -1.5457
 8008TIP3   OH245438   1.200   3.362  17.022  0.6261 -0.8260 -0.2200
 8008TIP3    H145439   1.112   3.370  17.058  1.4195  1.8045  1.3994
 8008TIP3    H245440   1.215   3.447  16.979  2.8067 -0.6891  0.7045
 8009TIP3   OH245441   4.442   3.441   3.086  0.4262 -0.4129 -0.2084
 8009TIP3    H145442   4.524   3.427   3.132  0.3505  0.0570  0.0704
 8009TIP3    H245443   4.376   3.401   3.142  0.4336 -0.5763 -0.3151
 8010TIP3   OH245444   0.328   1.147   2.733 -0.0612  0.4425  0.0005
 8010TIP3    H145445   0.357   1.056   2.739  0.6943  0.7069  0.4851
 8010TIP3    H245446   0.399   1.193   2.688 -0.2660  0.8758  0.1069
 8011TIP3   OH245447   5.804   1.813  11.651  0.2423 -0.7133 -0.4584
 8011TIP3    H145448   5.827   1.737  11.596 -0.4080 -0.2270 -1.4345
 8011TIP3    H245449   5.723   1.787  11.695 -1.1560  0.1207 -2.3772
 8012TIP3   OH245450   1.870   4.480  17.123  0.2868  0.5841  0.1077
 8012TIP3    H145451   1.913   4.549  17.071  0.5261  0.2912 -0.0884
 8012TIP3    H245452   1.825   4.426  17.058  0.7114  0.1260  0.1897
 8013TIP3   OH245453   0.601   1.609   5.622 -0.0927  0.5673  0.1628
 8013TIP3    H145454   0.651   1.588   5.543  0.0143 -0.0992  0.4007
 8013TIP3    H245455   0.558   1.692   5.601  0.4468  0.7264 -0.3542
 8014TIP3   OH245456   2.604   5.485  11.757  0.1888 -0.3902  0.4613
 8014TIP3    H145457   2.617   5.501  11.850  1.2987 -1.7402  0.5693
 8014TIP3    H245458   2.691   5.493  11.719 -0.3536  0.9135 -0.6226
 8015TIP3   OH245459   1.592   2.522  13.113 -0.0015  0.5823  0.7429
 8015TIP3    H145460   1.544   2.555  13.037 -0.5580 -0.7333  0.4992
 8015TIP3    H245461   1.524   2.504  13.178  0.3271  0.3201  1.0213
 8016TIP3   OH245462   5.133   5.122   1.145  0.3805 -0.4920 -0.0685
 8016TIP3    H145463   5.175   5.207   1.132  0.6512 -0.7641 -1.0544
 8016TIP3    H245464   5.066   5.138   1.211  0.1009  0.6057 -0.6057
 8017TIP3   OH245465   3.048   2.839   4.309 -0.2399  0.4773 -0.0718
 8017TIP3    H145466   3.121   2.901   4.314 -0.2790  0.6074 -0.9656
 8017TIP3    H245467   3.079   2.769   4.252 -1.1602  1.0424 -1.3202
 8018TIP3   OH245468   5.635   1.240   1.360 -0.0482 -0.6140 -0.0171
 8018TIP3    H145469   5.550   1.196   1.354  0.4086 -2.0168  2.3444
 8018TIP3    H245470   5.646   1.259   1.454  1.1868  1.8021 -0.5630
 8019TIP3   OH245471   5.122   4.429   4.611  0.4602 -0.2058 -0.1339
 8019TIP3    H145472   5.050   4.477   4.653  0.2435 -1.3717  0.8952
 8019TIP3    H245473   5.199   4.482   4.629  0.2157 -0.1822  0.9288
 8020TIP3   OH245474   6.201   4.774  13.229 -0.1873 -0.6182 -0.1839
 8020TIP3    H145475   6.183   4.680  13.229  0.9664 -0.9133 -2.4555
 8020TIP3    H245476   6.223   4.794  13.320 -3.5077 -1.8378  1.0185
 8021TIP3   OH245477   5.838   4.331  13.007 -0.3972  0.1774  0.0515
 8021TIP3    H145478   5.895   4.339  13.084 -1.0648  0.0241  0.5688
 8021TIP3    H245479   5.846   4.416  12.963  1.4700 -0.3717 -0.7735
 8022TIP3   OH245480   0.229   1.291  14.035 -0.0189  0.4588  0.1886
 8022TIP3    H145481   0.256   1.299  13.943 -1.1773 -3.4755 -0.6523
 8022TIP3    H245482   0.144   1.334  14.039 -0.1160  0.3665 -0.6819
 8023TIP3   OH245483   4.788   0.247  12.056  0.0190 -0.3575 -0.4650
 8023TIP3    H145484   4.860   0.254  12.118  0.3033 -0.2291 -0.8091
 8023TIP3    H245485   4.712   0.226  12.110 -0.0064  1.0633  0.0757
 8024TIP3   OH245486   4.803   3.497   6.007  0.0571  0.8533 -0.0834
 8024TIP3    H145487   4.733   3.457   6.059 -1.1375  1.0780 -1.4523
 8024TIP3    H245488   4.825   3.577   6.056  2.5024 -1.3071  2.7013
 8025TIP3   OH245489   5.318   4.644   5.996 -0.6318  0.5303 -0.6333
 8025TIP3    H145490   5.282   4.565   6.034  0.2622 -0.2669 -1.3975
 8025TIP3    H245491   5.382   4.675   6.059  1.2595 -1.1004 -1.6533
 8026TIP3   OH245492   5.313   1.723  17.030  0.2264 -0.1166  0.4650
 8026TIP3    H145493   5.321   1.796  16.968 -0.4695 -0.5372 -0.1387
 8026TIP3    H245494   5.235   1.676  17.001  0.4874 -0.9209  1.0419
 8027TIP3   OH245495   4.429   5.587   1.987 -0.4074  0.7142 -0.0331
 8027TIP3    H145496   4.388   5.636   2.058 -0.7529  0.5595 -0.1224
 8027TIP3    H245497   4.359   5.577   1.922 -0.1958  0.5415 -0.2340
 8028TIP3   OH245498   0.786   5.005  15.174  0.6785 -0.3644  0.3985
 8028TIP3    H145499   0.870   4.959  15.167  0.7358 -0.4435  1.4473
 8028TIP3    H245500   0.732   4.948  15.230  0.0269 -0.1647 -0.0172
 8029TIP3   OH245501   5.413   1.009  16.935  0.6907 -0.1244 -0.0666
 8029TIP3    H145502   5.425   0.967  16.849  0.6243 -0.5791  0.1415
 8029TIP3    H245503   5.422   0.937  16.997 -0.8672 -0.1036  0.2267
 8030TIP3   OH245504   5.134   3.930   0.374  0.0859 -0.0384 -0.7576
 8030TIP3    H145505   5.085   3.949   0.294 -1.0727  0.0593 -0.0498
 8030TIP3    H245506   5.136   3.834   0.379  0.5858 -0.0518 -1.1485
 8031TIP3   OH245507   2.765   5.546  16.327  0.2732  0.1799 -0.2833
 8031TIP3    H145508   2.722   5.461  16.341 -0.4137  0.5608 -0.0556
 8031TIP3    H245509   2.842   5.543  16.383 -0.3969  0.1681  0.6718
 8032TIP3   OH245510   4.236   1.182   4.742  0.1480 -0.5351  0.2904
 8032TIP3    H145511   4.156   1.221   4.705  0.3013  1.0278  1.5158
 8032TIP3    H245512   4.292   1.256   4.763  1.8523 -1.5934 -0.2783
 8033TIP3   OH245513   0.731   2.980  16.271  0.2687  0.6313 -0.1193
 8033TIP3    H145514   0.793   3.053  16.281  0.4969  0.2840  1.3274
 8033TIP3    H245515   0.726   2.942  16.359  1.3457 -2.0677 -1.1240
 8034TIP3   OH245516   6.577   0.300   0.924 -0.1385  0.0382 -0.0452
 8034TIP3    H145517   6.572   0.335   1.013  0.1689  0.2017 -0.0891
 8034TIP3    H245518   6.553   0.374   0.868  0.3113  0.1290 -0.1281
 8035TIP3   OH245519   3.236   2.934  12.460  0.4820  0.3543  0.3577
 8035TIP3    H145520   3.207   3.021  12.489  0.9300  0.7152 -0.2576
 8035TIP3    H245521   3.155   2.887  12.440  0.2524  0.8085  0.1965
 8036TIP3   OH245522   0.951   5.580   0.219 -0.0550 -0.7528 -0.4208
 8036TIP3    H145523   0.992   5.549   0.300  1.7791  0.1452 -0.9412
 8036TIP3    H245524   0.984   5.520   0.152  0.7187  0.1908 -0.9031
 8037TIP3   OH245525   0.067   2.744  12.580 -0.3534  0.3742  0.2625
 8037TIP3    H145526  -0.014   2.733  12.629  0.1986 -0.3117  1.0479
 8037TIP3    H245527   0.127   2.785  12.642  1.1261 -2.6956  1.0457
 8038TIP3   OH245528   1.133   1.778   4.660  0.4471 -0.3369 -0.0833
 8038TIP3    H145529   1.197   1.801   4.592 -0.0200  1.0277 -0.1122
 8038TIP3    H245530   1.052   1.821   4.631 -0.1176 -0.8761  0.6568
 8039TIP3   OH245531   4.133   0.331  14.821 -0.4604 -0.0307  0.1359
 8039TIP3    H145532   4.052   0.365  14.783 -0.4807  0.3296  0.5051
 8039TIP3    H245533   4.149   0.249  14.773 -2.5488 -1.6158  1.9362
 8040TIP3   OH245534   5.519   0.611  15.870 -0.0011  0.2157  0.2421
 8040TIP3    H145535   5.506   0.569  15.785 -1.0302  0.6111  0.1882
 8040TIP3    H245536   5.567   0.692  15.849  3.0671 -1.3805  0.4714
 8041TIP3   OH245537   4.717   5.041  13.391  0.6291  0.5914  0.0177
 8041TIP3    H145538   4.752   5.129  13.399  1.4038  0.2919  0.0873
 8041TIP3    H245539   4.640   5.039  13.448  0.7050  1.1698  0.1407
 8042TIP3   OH245540   3.853   1.008  16.590  0.4628  0.0966 -0.0585
 8042TIP3    H145541   3.900   1.071  16.535  0.2161 -0.2231 -0.6368
 8042TIP3    H245542   3.922   0.968  16.643  0.4765  1.7662  1.2664
 8043TIP3   OH245543   5.363   4.014  12.756 -0.0850  0.0373 -0.1507
 8043TIP3    H145544   5.378   3.942  12.694 -1.2567 -0.3239 -0.0475
 8043TIP3    H245545   5.441   4.016  12.810 -0.5133 -1.9987  0.6525
 8044TIP3   OH245546   3.745   5.495  13.563 -0.1428 -0.4918 -0.2095
 8044TIP3    H145547   3.722   5.506  13.471  0.8295 -0.9850 -0.5216
 8044TIP3    H245548   3.803   5.419  13.565 -2.8111 -2.7014  1.2403
 8045TIP3   OH245549   2.161   5.228   0.134  0.2607  0.1736 -0.0161
 8045TIP3    H145550   2.073   5.252   0.162  0.7544  1.3127  0.5941
 8045TIP3    H245551   2.218   5.296   0.170  1.0277  1.4305 -3.2537
 8046TIP3   OH245552   5.559   5.763  11.616 -0.2372  0.5261 -0.1596
 8046TIP3    H145553   5.611   5.774  11.536 -0.2287  1.3723 -0.0449
 8046TIP3    H245554   5.516   5.678  11.605  1.1102 -0.1721 -0.2906
 8047TIP3   OH245555   4.628   3.497   0.558  0.4101 -0.5806 -0.0492
 8047TIP3    H145556   4.684   3.424   0.532  1.7489  0.5429 -0.4067
 8047TIP3    H245557   4.542   3.457   0.573  1.2079 -2.2815  0.1664
 8048TIP3   OH245558   0.157   2.824  12.005  0.2832 -0.0385 -0.2537
 8048TIP3    H145559   0.186   2.761  11.940 -2.1190 -0.7251 -0.7784
 8048TIP3    H245560   0.074   2.857  11.970 -1.2596 -0.6273  2.5284
 8049TIP3   OH245561   4.601   3.776   3.173  0.0238  0.2520  0.2172
 8049TIP3    H145562   4.548   3.788   3.252 -0.8647 -0.2864 -0.2861
 8049TIP3    H245563   4.623   3.683   3.173 -0.9467  0.0083 -0.7572
 8050TIP3   OH245564   4.505   6.071  13.078 -0.5091  0.2811  0.7799
 8050TIP3    H145565   4.448   6.146  13.093 -2.2820 -0.1624 -2.7489
 8050TIP3    H245566   4.535   6.081  12.988  1.5820 -1.8040  1.1327
 8051TIP3   OH245567   1.501   3.112   4.298  0.3407  0.0803 -0.0412
 8051TIP3    H145568   1.435   3.107   4.228 -0.7506 -0.8393  1.0120
 8051TIP3    H245569   1.511   3.206   4.314 -0.0231  0.2702 -0.8449
 8052TIP3   OH245570   0.219   0.953   2.104 -0.4884  0.2014  0.2348
 8052TIP3    H145571   0.125   0.953   2.119  0.0181 -1.6484  5.4235
 8052TIP3    H245572   0.253   1.026   2.155  1.0464 -1.3813  1.6548
 8053TIP3   OH245573   6.268   3.848   4.672 -0.1999 -0.7062 -0.2531
 8053TIP3    H145574   6.321   3.826   4.596 -0.0877 -1.7196  0.1076
 8053TIP3    H245575   6.189   3.886   4.636  0.4542  0.1548 -0.8224
 8054TIP3   OH245576   5.303   3.104   2.382 -0.3396  0.1417  0.0829
 8054TIP3    H145577   5.388   3.075   2.347 -0.3841 -0.2858  0.3235
 8054TIP3    H245578   5.321   3.125   2.473 -0.8082 -1.4734  0.5870
 8055TIP3   OH245579   0.328   5.511   5.127 -0.3294 -0.2613 -0.5142
 8055TIP3    H145580   0.291   5.435   5.173  1.9465 -1.0932  0.0814
 8055TIP3    H245581   0.283   5.586   5.164 -3.3057 -1.3022 -1.7456
 8056TIP3   OH245582   3.990   2.453  16.413 -0.2854  0.1661 -0.0628
 8056TIP3    H145583   3.993   2.453  16.318 -1.6343  1.0044 -0.1279
 8056TIP3    H245584   3.935   2.528  16.436  2.5697  1.9334  1.4963
 8057TIP3   OH245585   1.391   6.121   3.579 -0.5665 -0.1737  0.0503
 8057TIP3    H145586   1.303   6.142   3.611 -0.2874 -1.1834  1.5914
 8057TIP3    H245587   1.434   6.079   3.653  1.4833  0.9435 -0.4228
 8058TIP3   OH245588   4.858   4.602   1.145 -0.1142  0.1619 -0.1625
 8058TIP3    H145589   4.818   4.685   1.171  0.7574  0.4424  0.3221
 8058TIP3    H245590   4.836   4.593   1.052 -2.4905 -0.3990  0.3913
 8059TIP3   OH245591   4.177   0.507  11.835  0.1807  0.3481  0.2603
 8059TIP3    H145592   4.100   0.452  11.832  0.4349 -0.1560  1.8865
 8059TIP3    H245593   4.182   0.547  11.748 -1.0507 -0.7462 -0.3422
 8060TIP3   OH245594   4.429   5.767   0.912 -0.0994  0.2006 -0.4921
 8060TIP3    H145595   4.441   5.771   0.817 -0.6123  0.3228 -0.5543
 8060TIP3    H245596   4.388   5.682   0.927  0.7401 -0.1836 -0.2873
 8061TIP3   OH245597   2.030   3.951  13.871 -0.2916 -0.5639  0.6540
 8061TIP3    H145598   1.958   3.950  13.934 -0.3363 -1.9546  0.6037
 8061TIP3    H245599   2.003   4.015  13.805 -1.4592 -1.0203  0.6693
 8062TIP3   OH245600   2.025   2.774  15.362 -0.5921 -0.4266  0.3950
 8062TIP3    H145601   2.075   2.840  15.410 -0.2190 -1.1335  0.9963
 8062TIP3    H245602   1.971   2.731  15.429 -0.8418 -0.7214  0.0108
 8063TIP3   OH245603   1.862   2.695  16.946 -0.0832 -0.1641  0.4602
 8063TIP3    H145604   1.770   2.717  16.961 -0.3742 -1.2116  0.2964
 8063TIP3    H245605   1.889   2.649  17.026  0.3101  0.1599  0.5173
 8064TIP3   OH245606   5.027   4.965  15.300 -0.3514  0.2491  0.0220
 8064TIP3    H145607   5.034   5.016  15.220 -0.9858  0.8316  0.3324
 8064TIP3    H245608   4.948   4.912  15.288  0.3221 -0.7029 -0.3154
 8065TIP3   OH245609   5.046   5.020  10.451 -0.1434  0.4619  0.2939
 8065TIP3    H145610   5.131   4.998  10.412  1.4454  0.5996  3.4271
 8065TIP3    H245611   4.990   4.945  10.430  0.0368  1.1321 -3.3601
 8066TIP3   OH245612   5.087   0.328   4.851  0.2486  0.5384 -0.3794
 8066TIP3    H145613   5.053   0.409   4.811 -0.0132 -0.3426 -2.0301
 8066TIP3    H245614   5.010   0.272   4.858 -0.0309  1.1387  2.8184
 8067TIP3   OH245615   6.773   1.951  15.206 -0.0535  0.9416 -0.3121
 8067TIP3    H145616   6.684   1.948  15.241  0.1565  0.6057  0.2191
 8067TIP3    H245617   6.823   1.997  15.274  0.2863  0.6359 -0.3565
 8068TIP3   OH245618   5.319   5.692  14.147 -0.2161 -0.5413 -0.1850
 8068TIP3    H145619   5.404   5.729  14.171 -0.7689 -0.1028  1.2165
 8068TIP3    H245620   5.324   5.600  14.173 -0.5185 -0.2680  0.8682
 8069TIP3   OH245621   2.811   0.318  15.839  0.2194 -0.4489 -0.8374
 8069TIP3    H145622   2.799   0.245  15.779  0.4406 -1.4432  0.3027
 8069TIP3    H245623   2.740   0.308  15.903  0.9968 -0.4104  0.0528
 8070TIP3   OH245624   5.209   1.803   3.526  0.3384  0.1746 -0.6297
 8070TIP3    H145625   5.142   1.809   3.594  0.7630  0.8116 -0.2629
 8070TIP3    H245626   5.160   1.774   3.448  0.0242 -1.5763  0.1696
 8071TIP3   OH245627   4.708   2.257   3.973 -0.6474  0.1411  0.1790
 8071TIP3    H145628   4.621   2.264   3.934 -0.6214 -1.3834 -0.1959
 8071TIP3    H245629   4.721   2.164   3.987  1.8177  0.0688 -1.8515
 8072TIP3   OH245630   2.901   0.113  11.206 -0.0292 -0.8070 -0.0205
 8072TIP3    H145631   2.981   0.144  11.164 -0.7223 -0.1755 -0.9126
 8072TIP3    H245632   2.888   0.025  11.170  0.7927 -1.3341  0.9068
 8073TIP3   OH245633   5.451   6.708  15.332  0.3563  0.1849 -0.2676
 8073TIP3    H145634   5.535   6.674  15.299  0.5675  0.1901  0.2527
 8073TIP3    H245635   5.451   6.684  15.424  0.0493  0.7170 -0.1279
 8074TIP3   OH245636   0.649   0.506  14.928  0.0879  0.2496 -0.9040
 8074TIP3    H145637   0.642   0.469  15.017 -1.6196  1.6412 -0.3944
 8074TIP3    H245638   0.617   0.436  14.871 -0.1455 -0.1732 -0.2772
 8075TIP3   OH245639   4.833   6.626  12.668  0.2033  0.2636  0.3992
 8075TIP3    H145640   4.819   6.650  12.577  2.7154 -0.0035 -0.1469
 8075TIP3    H245641   4.883   6.544  12.664 -0.7039 -0.4244  2.0485
 8076TIP3   OH245642   1.816   3.174  16.432 -0.7417  0.3520 -0.2852
 8076TIP3    H145643   1.762   3.238  16.386  0.8224  2.4130  0.6260
 8076TIP3    H245644   1.799   3.091  16.386 -0.0624  2.0408 -3.9440
 8077TIP3   OH245645   6.215   4.900   2.637 -0.2530  0.1520  0.0599
 8077TIP3    H145646   6.124   4.912   2.664 -0.0519  1.6276  0.1485
 8077TIP3    H245647   6.250   4.988   2.628  0.3708 -0.2682 -2.7374
 8078TIP3   OH245648   2.010   5.091  12.546 -0.1430  0.1227 -0.2437
 8078TIP3    H145649   1.928   5.117  12.589 -1.1607  1.9799 -3.0125
 8078TIP3    H245650   2.078   5.139  12.592 -0.8086 -0.0233  0.9459
 8079TIP3   OH245651   4.205   0.233  11.097 -0.2243 -0.0507  0.2970
 8079TIP3    H145652   4.232   0.142  11.093 -0.4969 -0.0855 -1.8576
 8079TIP3    H245653   4.249   0.275  11.023 -1.2936  1.2184  0.3356
 8080TIP3   OH245654   0.547   5.253  13.108  0.0219 -0.6438  0.3848
 8080TIP3    H145655   0.479   5.300  13.156  0.6814 -0.4844  1.1881
 8080TIP3    H245656   0.557   5.303  13.026 -0.9639 -0.8010  0.1567
 8081TIP3   OH245657   3.853   2.547   1.396 -0.5764  0.3190  0.3802
 8081TIP3    H145658   3.850   2.485   1.323  1.4584 -0.2338  0.7355
 8081TIP3    H245659   3.945   2.568   1.407 -1.0488  2.1397  1.3806
 8082TIP3   OH245660   1.024   0.693  13.206 -0.0793  0.2287 -0.4444
 8082TIP3    H145661   0.985   0.639  13.137 -0.8124 -1.2232  1.0486
 8082TIP3    H245662   0.982   0.779  13.195  0.2490  0.2105 -2.1321
 8083TIP3   OH245663   3.308   2.873  11.205  0.0533  0.2399 -0.0334
 8083TIP3    H145664   3.227   2.822  11.205  0.2777 -0.1207 -0.3506
 8083TIP3    H245665   3.366   2.827  11.144  0.5576  0.3997  0.3113
 8084TIP3   OH245666   2.072   3.004  14.444 -0.0956  0.2931  0.1847
 8084TIP3    H145667   1.981   3.031  14.452 -0.1805  0.0699 -0.0460
 8084TIP3    H245668   2.079   2.925  14.498  0.1503  0.7588  0.8486
 8085TIP3   OH245669   1.743   1.972   1.923 -0.0488  0.1360  0.0821
 8085TIP3    H145670   1.746   2.066   1.944 -0.2322  0.9272 -2.9423
 8085TIP3    H245671   1.828   1.955   1.880 -0.8311 -0.5215 -1.2720
 8086TIP3   OH245672   6.157   2.431  12.123  0.3035  0.1438 -0.2924
 8086TIP3    H145673   6.086   2.385  12.079 -0.4003 -0.0341  0.9810
 8086TIP3    H245674   6.206   2.473  12.052 -0.3791 -0.6908 -1.2856
 8087TIP3   OH245675   5.602   3.097   3.030 -0.0073  0.6618 -0.4055
 8087TIP3    H145676   5.597   3.064   3.119 -1.9276  0.0736 -0.6817
 8087TIP3    H245677   5.511   3.099   3.000  0.6241  0.4273 -2.4950
 8088TIP3   OH245678   2.656   6.645   4.969 -0.6445  0.2246 -0.4264
 8088TIP3    H145679   2.743   6.607   4.973 -1.1796 -0.9792  0.3613
 8088TIP3    H245680   2.668   6.727   4.922  1.1324  0.7516  0.8675
 8089TIP3   OH245681   5.387   6.165  14.659 -0.2318  0.1795 -0.0653
 8089TIP3    H145682   5.314   6.132  14.607 -0.4487  1.4833 -0.6395
 8089TIP3    H245683   5.362   6.148  14.750 -1.6088  1.2383 -0.2100
 8090TIP3   OH245684   1.543   2.158  17.107 -0.4249 -0.2227  0.0392
 8090TIP3    H145685   1.535   2.104  17.029 -0.2067 -1.9911  1.1695
 8090TIP3    H245686   1.637   2.174  17.117 -0.6032  2.5316 -1.6041
 8091TIP3   OH245687   4.480   2.000  11.874  0.2810 -0.4795  0.0154
 8091TIP3    H145688   4.562   1.955  11.891  0.9502  0.0738 -1.5453
 8091TIP3    H245689   4.494   2.089  11.908 -0.5947 -1.0335  1.9720
 8092TIP3   OH245690   0.144   0.243  11.052  0.5005 -0.5527 -0.3973
 8092TIP3    H145691   0.211   0.281  10.995  0.4832  0.9366  0.5207
 8092TIP3    H245692   0.192   0.184  11.109  1.0966  0.6640  0.3968
 8093TIP3   OH245693   2.227   5.484   3.749  0.5452 -0.2861 -0.6889
 8093TIP3    H145694   2.289   5.508   3.680  0.0922 -0.4918 -1.1749
 8093TIP3    H245695   2.158   5.436   3.703  0.0847 -0.1568 -0.1384
 8094TIP3   OH245696   6.107   5.976  15.437 -0.1545  0.1806 -0.0215
 8094TIP3    H145697   6.079   5.907  15.377 -1.4702 -1.9452  2.8247
 8094TIP3    H245698   6.030   5.992  15.492  1.7046  0.1589  2.7416
 8095TIP3   OH245699   5.597   5.620  15.118  0.2058  0.0026 -0.0975
 8095TIP3    H145700   5.618   5.667  15.037  0.6062 -1.7231 -1.0620
 8095TIP3    H245701   5.516   5.660  15.149 -0.9899 -0.4396 -2.3818
 8096TIP3   OH245702   5.090   6.183  15.534 -0.5977 -0.4852  0.0282
 8096TIP3    H145703   5.122   6.210  15.448  0.1796  0.8125  0.6885
 8096TIP3    H245704   5.148   6.227  15.596 -1.2659 -1.2315  1.2257
 8097TIP3   OH245705   3.868   1.423  16.929 -0.4478  0.8275 -0.3968
 8097TIP3    H145706   3.791   1.372  16.954 -0.6315  0.2475 -2.0633
 8097TIP3    H245707   3.931   1.358  16.897 -0.1375  1.5113 -1.2005
 8098TIP3   OH245708   0.373   1.999  11.541 -0.3046  0.7387  0.4442
 8098TIP3    H145709   0.298   1.978  11.595  0.1497  1.2079  1.2762
 8098TIP3    H245710   0.390   2.092  11.557  0.4998  0.6237  0.3328
 8099TIP3   OH245711   1.873   3.796   3.791 -0.2673 -0.1030  0.1820
 8099TIP3    H145712   1.826   3.770   3.870 -0.4542 -1.3197 -0.3117
 8099TIP3    H245713   1.959   3.825   3.822 -0.0854 -1.2399  0.7794
 8100TIP3   OH245714   6.551   6.580  14.948 -0.5642  0.2466  0.2346
 8100TIP3    H145715   6.622   6.642  14.967 -0.5696 -0.1486  1.6157
 8100TIP3    H245716   6.471   6.630  14.965 -0.5668 -0.1647  1.5146
 8101TIP3   OH245717   2.527   2.052   1.908 -0.1273  0.1006  0.1932
 8101TIP3    H145718   2.517   1.982   1.973 -1.3252 -0.5964 -0.7012
 8101TIP3    H245719   2.518   2.133   1.958 -0.8516 -0.4169  0.9336
 8102TIP3   OH245720   2.296   6.507   0.261  0.5391  0.1504 -0.4784
 8102TIP3    H145721   2.248   6.440   0.214  0.1155 -0.2908  0.5520
 8102TIP3    H245722   2.280   6.489   0.354  3.2996 -0.4899 -0.0211
 8103TIP3   OH245723   4.981   3.973  13.560 -0.0036  0.2474  0.5908
 8103TIP3    H145724   4.903   3.999  13.511 -0.3268 -0.2557  0.8267
 8103TIP3    H245725   4.967   4.009  13.647 -0.7163 -1.1227  1.0824
 8104TIP3   OH245726   2.755   6.354   5.467  0.3970 -0.0948  0.1020
 8104TIP3    H145727   2.665   6.325   5.475  0.3778  0.3538  2.0299
 8104TIP3    H245728   2.749   6.450   5.466  0.7561 -0.0650 -1.5586
 8105TIP3   OH245729   4.095   1.634   3.075  0.1406 -0.3268 -0.5779
 8105TIP3    H145730   4.160   1.700   3.097  1.9860 -2.0044 -0.7158
 8105TIP3    H245731   4.017   1.659   3.125  1.1024  1.3451  0.1600
 8106TIP3   OH245732   1.578   1.118   2.242 -0.1970 -0.2604 -0.1800
 8106TIP3    H145733   1.655   1.093   2.192 -0.0222  0.3090 -0.1998
 8106TIP3    H245734   1.605   1.111   2.334 -0.1681 -0.2006 -0.1842
 8107TIP3   OH245735   3.582   6.301   3.144 -0.3346  0.2879  0.5484
 8107TIP3    H145736   3.507   6.295   3.204 -0.2058 -0.2632  0.6618
 8107TIP3    H245737   3.617   6.388   3.159 -1.6656  1.0115 -0.3597
 8108TIP3   OH245738   3.228   1.728  15.805 -0.2612  0.3116  0.0939
 8108TIP3    H145739   3.137   1.753  15.792 -0.5764  0.5641  2.3986
 8108TIP3    H245740   3.278   1.797  15.761 -1.1586  0.4314 -0.7743
 8109TIP3   OH245741   3.961   2.873   5.177  0.2226  0.2149 -0.7550
 8109TIP3    H145742   3.974   2.914   5.092 -0.6761 -0.1024 -1.0537
 8109TIP3    H245743   3.962   2.946   5.240  1.2533  0.4134 -0.9794
 8110TIP3   OH245744   2.750   5.446  12.241  0.1817  0.9553 -0.2212
 8110TIP3    H145745   2.707   5.450  12.327 -0.9606 -0.4892 -0.6664
 8110TIP3    H245746   2.687   5.486  12.181 -0.1621 -0.3193 -0.7428
 8111TIP3   OH245747   3.466   6.445  13.825 -0.8155  0.1555  0.4069
 8111TIP3    H145748   3.541   6.431  13.883 -0.1486  0.0421 -0.4587
 8111TIP3    H245749   3.505   6.470  13.741 -1.6902 -1.0948 -0.3995
 8112TIP3   OH245750   3.630   1.228  11.002 -0.1109  0.2820  0.0103
 8112TIP3    H145751   3.615   1.135  10.988 -0.4215  0.3931 -0.4365
 8112TIP3    H245752   3.619   1.241  11.096 -2.5830  0.2803 -0.1974
 8113TIP3   OH245753   5.731   2.700  14.767  0.0552  0.1160  0.0295
 8113TIP3    H145754   5.797   2.751  14.720 -0.4788 -0.1479 -1.0233
 8113TIP3    H245755   5.663   2.682  14.703 -0.9223  0.1296  1.0253
 8114TIP3   OH245756   0.466   4.025   2.922  0.6611 -0.2584 -0.1561
 8114TIP3    H145757   0.555   4.059   2.934  1.2576 -1.4889 -0.8192
 8114TIP3    H245758   0.446   3.982   3.005  1.2792 -1.2074 -0.4768
 8115TIP3   OH245759   6.575   4.054  16.039  0.4256 -0.2613 -0.1059
 8115TIP3    H145760   6.555   4.144  16.063  0.1544 -0.4691  0.4681
 8115TIP3    H245761   6.669   4.055  16.018  0.3392  0.2268 -0.4702
 8116TIP3   OH245762   1.786   1.163  12.428 -0.0736 -0.2134  0.1754
 8116TIP3    H145763   1.872   1.128  12.452  0.0795  1.3769  2.1889
 8116TIP3    H245764   1.730   1.140  12.502 -1.3012 -0.8468 -0.9254
 8117TIP3   OH245765   0.071   3.974   3.821  0.3183 -0.4691  0.5058
 8117TIP3    H145766   0.114   3.933   3.746  0.1870 -0.4523  0.4226
 8117TIP3    H245767   0.042   3.900   3.875  0.2814 -0.4822  0.4676
 8118TIP3   OH245768   2.891   5.014   2.222 -0.3159  0.0194 -0.7712
 8118TIP3    H145769   2.843   4.931   2.229  1.3414 -0.8675  0.9795
 8118TIP3    H245770   2.983   4.990   2.233  0.2899  1.9972 -1.1077
 8119TIP3   OH245771   2.399   0.194   2.033 -0.0267 -0.6890 -0.6267
 8119TIP3    H145772   2.330   0.140   1.995 -1.2553 -1.0285  1.9475
 8119TIP3    H245773   2.419   0.154   2.117  3.6445 -0.8239 -1.3820
 8120TIP3   OH245774   3.380   5.045   2.909  0.0483  0.2798 -0.4094
 8120TIP3    H145775   3.353   5.023   2.998 -0.5929  2.0259 -0.1302
 8120TIP3    H245776   3.323   5.118   2.885  1.0150  0.5952 -1.8151
 8121TIP3   OH245777   2.027   4.817   1.909 -0.1909  0.4704 -0.4465
 8121TIP3    H145778   1.995   4.883   1.847  0.2733  0.4322 -0.7235
 8121TIP3    H245779   1.954   4.806   1.971 -0.8493  0.1247 -1.2742
 8122TIP3   OH245780   3.455   1.169  17.167 -0.7962 -0.8313  0.1683
 8122TIP3    H145781   3.422   1.208  17.248 -0.7144 -0.4151  0.0072
 8122TIP3    H245782   3.412   1.218  17.097  1.3400  0.8681 -0.0757
 8123TIP3   OH245783   6.532   1.690  14.664  0.1401 -0.0127  0.2789
 8123TIP3    H145784   6.533   1.701  14.759  1.6671  0.3241  0.2519
 8123TIP3    H245785   6.586   1.613  14.649 -2.4277 -1.8334 -0.1782
 8124TIP3   OH245786   5.797   0.409   0.012  0.3693  0.1071 -0.0751
 8124TIP3    H145787   5.711   0.442  -0.013  1.0899  0.7809 -1.8443
 8124TIP3    H245788   5.809   0.437   0.103 -1.2592 -0.0235  0.2035
 8125TIP3   OH245789   0.231   6.326  14.236 -0.4728 -0.2166 -0.3130
 8125TIP3    H145790   0.310   6.318  14.182 -1.1420 -3.3671 -1.0227
 8125TIP3    H245791   0.259   6.375  14.313  1.9840 -0.5452 -0.9271
 8126TIP3   OH245792   4.321   2.963   3.261 -0.2946  0.2317  0.3891
 8126TIP3    H145793   4.389   3.030   3.264  0.2592 -0.3412  0.9530
 8126TIP3    H245794   4.267   2.979   3.338 -0.0675 -0.0594  0.6123
 8127TIP3   OH245795   1.199   5.928   4.847  0.2103 -0.7877  0.0072
 8127TIP3    H145796   1.111   5.955   4.820  1.0569  1.4771 -0.7345
 8127TIP3    H245797   1.216   5.978   4.927  0.6491 -1.5708  0.4144
 8128TIP3   OH245798   4.733   3.367  14.550  0.3074 -0.4545  0.1739
 8128TIP3    H145799   4.824   3.367  14.520  0.5259 -0.4343  0.8323
 8128TIP3    H245800   4.694   3.442  14.505 -0.0819 -1.9120 -2.1370
 8129TIP3   OH245801   6.414   3.954  16.366 -0.0048  0.0937  0.0811
 8129TIP3    H145802   6.495   3.905  16.350 -0.0443 -0.7995  2.2252
 8129TIP3    H245803   6.380   3.975  16.279  2.5715  0.5917 -0.8751
 8130TIP3   OH245804   2.552   4.709   3.845 -0.3214 -0.5644  0.1014
 8130TIP3    H145805   2.604   4.784   3.817 -0.8862 -0.7441 -1.4850
 8130TIP3    H245806   2.593   4.681   3.927  1.7593 -0.3837 -0.8316
 8131TIP3   OH245807   4.305   5.916  15.477  0.3631 -0.0040  0.1393
 8131TIP3    H145808   4.340   5.976  15.412  0.5577 -0.6052 -0.3152
 8131TIP3    H245809   4.378   5.900  15.537 -0.2325  1.7552  1.4337
 8132TIP3   OH245810   4.868   2.393   1.087 -0.5262 -0.0669 -0.0517
 8132TIP3    H145811   4.938   2.410   1.024 -1.5087 -3.2325 -2.2123
 8132TIP3    H245812   4.913   2.358   1.164  0.4031 -0.2976 -0.6840
 8133TIP3   OH245813   5.660   1.010   4.213  0.5295  0.5745 -0.5054
 8133TIP3    H145814   5.746   1.013   4.256 -0.1126  2.9697  0.8389
 8133TIP3    H245815   5.598   1.004   4.286 -0.5050  1.2583 -1.3052
 8134TIP3   OH245816   0.223   6.274   3.827 -0.3702 -0.6211  0.6159
 8134TIP3    H145817   0.203   6.181   3.836  0.6307 -0.9581 -0.3414
 8134TIP3    H245818   0.223   6.307   3.916 -0.8158 -1.5216  0.9638
 8135TIP3   OH245819   4.334   1.132   1.638 -0.1287  0.0050 -0.0012
 8135TIP3    H145820   4.342   1.175   1.723 -0.0696  1.3798 -0.6662
 8135TIP3    H245821   4.363   1.198   1.575 -1.4786 -0.4846 -1.1953
 8136TIP3   OH245822   2.830   2.950  14.474  0.1287 -0.0315  0.6750
 8136TIP3    H145823   2.743   2.982  14.496 -1.1514 -2.1184 -0.9565
 8136TIP3    H245824   2.817   2.858  14.451  2.0709  0.4387 -3.1832
 8137TIP3   OH245825   4.251   3.313   0.726  0.1013  0.0153  0.0798
 8137TIP3    H145826   4.324   3.367   0.758  0.7558  0.4508 -2.0332
 8137TIP3    H245827   4.177   3.373   0.721 -0.2348 -0.2419  1.4531
 8138TIP3   OH245828   5.038   3.079  11.433  0.0779  0.0729  0.2479
 8138TIP3    H145829   4.991   3.012  11.483 -1.6838  0.3980 -0.9079
 8138TIP3    H245830   5.117   3.034  11.403 -0.0282 -0.8424  1.2666
 8139TIP3   OH245831   0.857   3.165   6.224 -0.5660 -0.3181 -0.3862
 8139TIP3    H145832   0.846   3.208   6.139  2.4292  1.0869 -0.1820
 8139TIP3    H245833   0.770   3.168   6.264 -1.3300  1.9923 -2.0381
 8140TIP3   OH245834   4.273   0.328  11.529  0.0735  0.2646  0.5767
 8140TIP3    H145835   4.361   0.367  11.534  0.6060 -0.7213 -0.7655
 8140TIP3    H245836   4.258   0.313  11.436 -1.1493 -0.4419  0.8664
 8141TIP3   OH245837   2.821   0.265  12.037 -0.2568 -0.5370 -0.2671
 8141TIP3    H145838   2.887   0.334  12.037 -0.3804 -0.3350 -2.5385
 8141TIP3    H245839   2.746   0.304  11.994 -0.5783 -1.8559 -0.9525
 8142TIP3   OH245840   2.487   4.913   2.490  0.0355 -0.4440  0.1173
 8142TIP3    H145841   2.503   4.865   2.572 -2.5391  0.4357  1.2318
 8142TIP3    H245842   2.431   4.855   2.439 -0.8326  0.2383  0.2866
 8143TIP3   OH245843   6.673   6.342  14.388 -0.8370  0.1948  0.5926
 8143TIP3    H145844   6.598   6.284  14.396 -1.6777  1.0719 -0.5994
 8143TIP3    H245845   6.695   6.340  14.295  1.6783 -1.3009  1.1104
 8144TIP3   OH245846   5.926   0.144  12.035 -0.7586  0.6444 -0.0568
 8144TIP3    H145847   5.974   0.165  12.116  0.3456  0.1850 -0.5743
 8144TIP3    H245848   5.942   0.219  11.978  1.3729 -0.5194 -1.1027
 8145TIP3   OH245849   0.787   4.996   0.373  0.8132  0.4304  0.2524
 8145TIP3    H145850   0.788   4.957   0.286  0.9097 -1.6714  1.1528
 8145TIP3    H245851   0.805   5.089   0.357 -0.5879  0.3842 -2.0687
 8146TIP3   OH245852   6.116   4.140   3.788  0.4942 -0.5522 -0.0113
 8146TIP3    H145853   6.173   4.184   3.724  0.0301  0.4956  0.2674
 8146TIP3    H245854   6.166   4.140   3.869 -0.5451  2.1087  0.7503
 8147TIP3   OH245855   2.773   1.223   0.667  0.1469  0.0831 -0.3105
 8147TIP3    H145856   2.787   1.314   0.693  1.0582  0.2193 -1.2048
 8147TIP3    H245857   2.835   1.173   0.720 -0.5790 -0.0596  0.4120
 8148TIP3   OH245858   1.187   5.246  13.618 -0.3554  0.0623 -0.5744
 8148TIP3    H145859   1.167   5.312  13.684 -1.3918 -1.5102  0.7554
 8148TIP3    H245860   1.128   5.265  13.546 -0.3704  0.8248 -0.3643
 8149TIP3   OH245861   1.085   6.045  12.721  0.1692 -0.0815 -0.0004
 8149TIP3    H145862   1.013   6.097  12.757 -0.6838 -1.7280  0.7678
 8149TIP3    H245863   1.044   5.964  12.691  1.1675  0.3646 -2.8615
 8150TIP3   OH245864   1.704   4.016  16.670  0.3871  0.5591 -0.5289
 8150TIP3    H145865   1.639   4.082  16.695  2.9828  3.0038  0.2183
 8150TIP3    H245866   1.728   3.974  16.753  0.0178 -0.1101 -0.7571
 8151TIP3   OH245867   4.841   6.731  11.038  0.1245  0.0990  0.0536
 8151TIP3    H145868   4.909   6.668  11.016 -0.2000 -0.4977  0.7193
 8151TIP3    H245869   4.878   6.784  11.108  0.0865  0.0942  0.0778
 8152TIP3   OH245870   2.236   1.397   0.983  0.5952  0.3311  0.3947
 8152TIP3    H145871   2.299   1.465   1.008 -1.1517  2.1728  0.0879
 8152TIP3    H245872   2.259   1.375   0.892  1.8027 -0.2711  0.8266
 8153TIP3   OH245873   2.480   0.647  15.498  0.4744 -0.2278  0.1791
 8153TIP3    H145874   2.537   0.590  15.550  2.9455  0.9247 -1.0624
 8153TIP3    H245875   2.445   0.589  15.430  3.1486 -0.3585 -1.2282
 8154TIP3   OH245876   6.569   0.305  12.249  0.0808  0.3963  0.2159
 8154TIP3    H145877   6.526   0.267  12.326  0.6716 -1.6510 -0.3925
 8154TIP3    H245878   6.540   0.250  12.176 -0.7305  2.5022 -1.1257
 8155TIP3   OH245879   1.703   2.224   2.778 -0.7657 -0.1289 -0.6845
 8155TIP3    H145880   1.731   2.315   2.766 -0.3638 -0.1329  0.1428
 8155TIP3    H245881   1.630   2.229   2.839  1.4580 -0.5662  2.2791
 8156TIP3   OH245882   2.339   1.946   5.479 -0.1845  0.6359 -0.1778
 8156TIP3    H145883   2.256   1.994   5.471 -0.1903  0.7257  0.4009
 8156TIP3    H245884   2.322   1.862   5.438 -1.0689  0.0367  1.3323
 8157TIP3   OH245885   1.720   5.483   1.853 -0.6710 -0.2769  0.4863
 8157TIP3    H145886   1.802   5.522   1.881 -0.6133  0.0546 -0.1138
 8157TIP3    H245887   1.742   5.392   1.833 -0.5519 -0.3092  0.7594
 8158TIP3   OH245888   0.669   5.223   3.614 -1.0787  0.1854  0.7571
 8158TIP3    H145889   0.586   5.200   3.571 -0.7571  1.2168 -0.4848
 8158TIP3    H245890   0.711   5.284   3.553 -0.7738  2.0776  2.7170
 8159TIP3   OH245891   4.287   2.639  14.046 -0.0245  0.0801  0.3330
 8159TIP3    H145892   4.245   2.554  14.059  0.2026 -0.1126 -0.1692
 8159TIP3    H245893   4.273   2.686  14.128 -2.7470  0.6932 -0.3988
 8160TIP3   OH245894   1.762   6.531  16.589 -0.5471  0.0493 -0.3000
 8160TIP3    H145895   1.776   6.445  16.550 -0.9813 -0.3788  0.4726
 8160TIP3    H245896   1.735   6.513  16.679  1.2348  1.0194  0.4934
 8161TIP3   OH245897   0.666   3.836   4.516 -0.2126 -0.9412 -0.6866
 8161TIP3    H145898   0.729   3.820   4.586  1.1370 -1.3214 -1.9588
 8161TIP3    H245899   0.708   3.804   4.437 -1.2925  0.3706 -1.8560
 8162TIP3   OH245900   3.702   0.208   6.300 -0.3735 -0.1636  0.4152
 8162TIP3    H145901   3.611   0.179   6.291 -0.8650  1.6997 -1.2578
 8162TIP3    H245902   3.697   0.301   6.321  1.1338  0.0015  0.2055
 8163TIP3   OH245903   4.156   5.168   1.483  0.0485 -0.4335 -0.1538
 8163TIP3    H145904   4.063   5.145   1.487  0.1964 -1.0284 -0.0107
 8163TIP3    H245905   4.188   5.127   1.403  0.3018 -0.6773  0.0684
 8164TIP3   OH245906   1.531   5.225  14.132  0.2136  0.3984  0.4356
 8164TIP3    H145907   1.562   5.278  14.205  0.9532  0.5709  0.0064
 8164TIP3    H245908   1.610   5.196  14.088 -0.1871 -0.7511  0.4280
 8165TIP3   OH245909   5.446   5.449   4.072  0.0308 -0.1138  0.0634
 8165TIP3    H145910   5.370   5.393   4.058 -1.7339  2.0522  0.3220
 8165TIP3    H245911   5.424   5.498   4.152  0.2511  2.6924 -1.4692
 8166TIP3   OH245912   2.188   1.002  14.124  0.5237 -0.2884  0.0656
 8166TIP3    H145913   2.150   1.037  14.043  1.2708 -0.9332 -0.5747
 8166TIP3    H245914   2.208   0.911  14.104  1.3932 -0.2599  0.7459
 8167TIP3   OH245915   4.763   5.912   0.511  0.4627 -0.5095  0.4587
 8167TIP3    H145916   4.782   5.921   0.604 -0.9495 -2.6227  1.0225
 8167TIP3    H245917   4.826   5.847   0.480  3.0794  2.4066 -0.9163
 8168TIP3   OH245918   3.717   1.756  11.392  0.0140  0.1269 -0.4735
 8168TIP3    H145919   3.809   1.761  11.416  0.4363  0.1070 -1.9762
 8168TIP3    H245920   3.679   1.693  11.454  0.5410  1.5936  1.4373
 8169TIP3   OH245921   5.454   0.223  12.528 -0.0888 -1.0065 -0.3369
 8169TIP3    H145922   5.451   0.305  12.578  1.1272 -1.0877 -0.1069
 8169TIP3    H245923   5.510   0.165  12.580  0.5527 -1.3576 -1.3885
 8170TIP3   OH245924   0.214   1.587  13.276  0.4530 -0.1156  0.4942
 8170TIP3    H145925   0.286   1.619  13.221 -1.6629  0.9013 -1.8817
 8170TIP3    H245926   0.195   1.659  13.335 -0.2570  0.6676 -0.6500
 8171TIP3   OH245927   5.094   0.158  12.659 -0.1332 -0.0348  0.4711
 8171TIP3    H145928   5.021   0.219  12.667 -0.8446 -0.9724  1.3496
 8171TIP3    H245929   5.122   0.166  12.567  0.4950  2.3557  0.8033
 8172TIP3   OH245930   5.688   5.907   5.437 -0.0233 -0.4873  0.5074
 8172TIP3    H145931   5.695   5.812   5.444  1.2591 -0.4347  0.2607
 8172TIP3    H245932   5.718   5.926   5.348 -0.1804  0.1557  0.5877
 8173TIP3   OH245933   6.675   4.613   1.069 -0.0656  0.1079  0.1894
 8173TIP3    H145934   6.665   4.591   0.976 -1.8162  1.3290  0.0455
 8173TIP3    H245935   6.736   4.687   1.070 -0.3623  0.3575 -0.0353
 8174TIP3   OH245936   2.338   1.228   3.518 -0.0198  0.8210 -0.2607
 8174TIP3    H145937   2.285   1.151   3.538  0.2045  1.0529  1.4103
 8174TIP3    H245938   2.426   1.194   3.504 -0.0671  0.7016 -0.2656
 8175TIP3   OH245939   5.003   1.564   6.496  0.4549  0.0603 -0.5961
 8175TIP3    H145940   5.036   1.569   6.406  0.4009  2.1123 -0.5470
 8175TIP3    H245941   4.921   1.613   6.495  0.5137  0.2232  0.5803
 8176TIP3   OH245942   1.504   3.623   4.936  0.6975 -0.4014 -0.1483
 8176TIP3    H145943   1.569   3.552   4.937 -0.1943 -1.2389  1.1758
 8176TIP3    H245944   1.419   3.578   4.935  0.0617  0.5304  2.5708
 8177TIP3   OH245945   4.243   1.094  15.634 -0.0871  0.2765  0.2867
 8177TIP3    H145946   4.174   1.039  15.669  0.9050 -1.5443 -0.4278
 8177TIP3    H245947   4.287   1.131  15.710 -2.3910  2.2834  0.7364
 8178TIP3   OH245948   3.802   2.332  12.609 -0.3447  0.4057 -0.1753
 8178TIP3    H145949   3.794   2.413  12.660  0.6801  0.5135 -0.1765
 8178TIP3    H245950   3.846   2.358  12.529  3.3342 -0.6871  1.3036
 8179TIP3   OH245951   2.612   1.501  15.944 -0.0928 -0.3393  0.2753
 8179TIP3    H145952   2.684   1.476  15.886  0.4906  0.5961  0.5810
 8179TIP3    H245953   2.549   1.543  15.886  0.5563  0.7310  0.3265
 8180TIP3   OH245954   2.959   5.885   5.011 -0.4976  0.3769  0.3753
 8180TIP3    H145955   3.022   5.884   4.939 -1.6653 -2.8109 -0.7896
 8180TIP3    H245956   2.970   5.971   5.052  2.1057  1.2691 -1.9076
 8181TIP3   OH245957   3.683   4.914  13.678  0.6027  0.4959 -0.0879
 8181TIP3    H145958   3.588   4.907  13.672  0.5878  0.0297  0.5958
 8181TIP3    H245959   3.712   4.829  13.711  1.0696  1.2203  1.4922
 8182TIP3   OH245960   5.947   4.199   3.061  0.4580  0.3316 -0.0825
 8182TIP3    H145961   5.959   4.141   2.985 -0.9978 -1.7321  1.1416
 8182TIP3    H245962   5.963   4.142   3.136 -0.5606  1.6586  1.1899
 8183TIP3   OH245963   6.531   5.924  12.934 -0.6018  0.4254  0.0716
 8183TIP3    H145964   6.523   5.993  12.868  3.4942  3.1263  1.9702
 8183TIP3    H245965   6.586   5.857  12.893 -1.5427  0.0444 -0.5825
 8184TIP3   OH245966   1.505   1.886  16.951  0.0812  0.3083 -0.3700
 8184TIP3    H145967   1.417   1.862  16.978  0.0555  2.1501  1.3354
 8184TIP3    H245968   1.560   1.814  16.982 -0.3692  0.8900  1.9090
 8185TIP3   OH245969   4.351   2.700  16.281 -0.0434 -0.8718  0.1163
 8185TIP3    H145970   4.362   2.685  16.375  0.8736 -0.3321  0.1114
 8185TIP3    H245971   4.384   2.789  16.268  0.3300 -1.1362 -0.8009
 8186TIP3   OH245972   4.909   3.926  16.540 -0.3999 -0.3904  0.0264
 8186TIP3    H145973   4.856   3.892  16.613 -0.5897 -1.4780 -0.6044
 8186TIP3    H245974   4.879   3.877  16.464  2.3620 -2.0124 -0.1715
 8187TIP3   OH245975   0.429   3.424   2.189 -0.6198  0.1584  0.5860
 8187TIP3    H145976   0.403   3.392   2.275  2.7557 -0.0547  1.6652
 8187TIP3    H245977   0.451   3.345   2.140  0.0233  0.4099  0.4656
 8188TIP3   OH245978   3.785   2.818   2.721 -0.3965 -0.0246 -0.2837
 8188TIP3    H145979   3.734   2.781   2.649  0.6147  0.2465 -1.1676
 8188TIP3    H245980   3.870   2.773   2.717 -0.5316 -0.4739  1.1569
 8189TIP3   OH245981   4.553   6.473  14.173  0.1623 -0.3321 -0.3397
 8189TIP3    H145982   4.506   6.503  14.250  1.2610  0.6992 -0.0464
 8189TIP3    H245983   4.606   6.548  14.146 -1.3525 -0.0957 -3.0471
 8190TIP3   OH245984   1.131   0.584  14.753 -0.3404  0.4992 -0.1473
 8190TIP3    H145985   1.192   0.532  14.701  0.2941  1.0018  0.0795
 8190TIP3    H245986   1.178   0.600  14.835 -2.5385 -3.1886  2.1395
 8191TIP3   OH245987   5.017   2.297   4.436  0.0718 -0.7668 -0.4782
 8191TIP3    H145988   4.953   2.262   4.498 -1.2728  1.2960 -0.6044
 8191TIP3    H245989   5.077   2.225   4.420  0.8532 -1.2421  3.6394
 8192TIP3   OH245990   2.258   0.380  12.493  0.4606 -0.0881  0.0221
 8192TIP3    H145991   2.199   0.452  12.514  1.1285  1.0784 -1.9126
 8192TIP3    H245992   2.344   0.420  12.486  0.6054 -0.6599 -2.8407
 8193TIP3   OH245993   2.859   4.467   2.526 -0.0764 -0.2030 -0.7390
 8193TIP3    H145994   2.851   4.386   2.476  0.9363  0.1311 -1.4670
 8193TIP3    H245995   2.940   4.458   2.575 -2.0486 -1.4368  2.6190
 8194TIP3   OH245996   0.732   5.331  16.755  0.0031 -0.2458  0.7259
 8194TIP3    H145997   0.795   5.376  16.699 -0.5247 -0.9900 -0.5175
 8194TIP3    H245998   0.693   5.264  16.698 -2.0691  0.3390  1.3756
 8195TIP3   OH245999   4.643   5.701  14.902  0.2808  0.3243 -0.1173
 8195TIP3    H146000   4.584   5.731  14.972 -0.3844 -0.1464 -0.4649
 8195TIP3    H246001   4.599   5.625  14.865  1.0943 -0.0004 -0.4239
 8196TIP3   OH246002   2.177   1.913  12.723 -0.5748 -0.3460  0.3094
 8196TIP3    H146003   2.139   1.957  12.799  2.4307  0.1707  1.6830
 8196TIP3    H246004   2.208   1.829  12.757 -0.7624 -0.8884 -0.8047
 8197TIP3   OH246005   0.989   5.763  16.350 -0.0019 -0.0412  0.0045
 8197TIP3    H146006   0.898   5.768  16.379 -0.3567 -0.4037 -1.0106
 8197TIP3    H246007   0.985   5.719  16.265  1.2173 -1.0526  0.4333
 8198TIP3   OH246008   1.014   1.152   0.640 -0.2248  0.1967  0.1793
 8198TIP3    H146009   1.105   1.145   0.610  0.7808  1.1260  2.7322
 8198TIP3    H246010   0.978   1.064   0.631  1.4375 -0.5490  0.5718
 8199TIP3   OH246011   1.855   4.540   4.766 -0.1275 -0.0811  0.3642
 8199TIP3    H146012   1.928   4.503   4.716 -1.1316  0.8060 -1.9125
 8199TIP3    H246013   1.866   4.635   4.758 -0.3320  0.0785  1.8549
 8200TIP3   OH246014   4.902   6.255  15.852  0.0365  0.4384 -0.5387
 8200TIP3    H146015   4.906   6.349  15.835 -0.8001  1.0499  2.1077
 8200TIP3    H246016   4.969   6.240  15.919 -1.6985 -0.2532  1.1205
 8201TIP3   OH246017   5.701   5.437  13.701 -0.4364 -0.3360 -0.0791
 8201TIP3    H146018   5.773   5.497  13.682 -1.1020  0.8248  0.8357
 8201TIP3    H246019   5.710   5.366  13.638  0.0087  1.0599 -1.6612
 8202TIP3   OH246020   3.377   2.696  14.665  0.6475 -0.2996 -0.1131
 8202TIP3    H146021   3.284   2.685  14.644  0.1770  2.0514  0.4884
 8202TIP3    H246022   3.419   2.705  14.579  0.0396  0.3790 -0.3552
 8203TIP3   OH246023   3.006   6.332  16.942 -0.1979 -0.0437  0.4199
 8203TIP3    H146024   2.996   6.307  17.034 -1.3931 -0.5558  0.1801
 8203TIP3    H246025   2.993   6.426  16.941 -1.0888 -0.1524  0.6786
 8204TIP3   OH246026   0.494   1.612   0.750  0.0889 -0.2822  0.1583
 8204TIP3    H146027   0.589   1.613   0.737  0.3304 -0.0757  1.7245
 8204TIP3    H246028   0.482   1.639   0.841 -1.5512  1.0558 -0.3866
 8205TIP3   OH246029   6.443   0.121  14.387  0.1854  0.1972 -0.1943
 8205TIP3    H146030   6.523   0.070  14.370  0.4239  0.0589  1.2652
 8205TIP3    H246031   6.471   0.191  14.446 -0.7063  0.3697  0.0331
 8206TIP3   OH246032   6.343   4.671  15.824  0.5594 -0.2076  0.4456
 8206TIP3    H146033   6.403   4.734  15.785  0.4928 -0.4729 -0.1054
 8206TIP3    H246034   6.338   4.600  15.759 -0.1487 -0.3007  0.5943
 8207TIP3   OH246035   5.946   2.055  13.866 -0.9156 -0.1897 -0.0787
 8207TIP3    H146036   6.014   2.000  13.905 -0.5949  1.8150  2.4583
 8207TIP3    H246037   5.992   2.108  13.801 -0.0155  0.9519  1.4231
 8208TIP3   OH246038   4.800   5.779  15.402  0.3702  0.1405 -0.1869
 8208TIP3    H146039   4.775   5.701  15.451  0.0983 -0.9405 -1.9656
 8208TIP3    H246040   4.717   5.824  15.385  0.5131  0.7745  0.7178
 8209TIP3   OH246041   3.897   6.454  11.908  0.5037 -0.3410  0.6151
 8209TIP3    H146042   3.949   6.533  11.897 -0.9394  0.6745  0.8981
 8209TIP3    H246043   3.962   6.384  11.914  1.8584  0.9273  1.4231
 8210TIP3   OH246044   0.902   5.448  16.543  0.0380  0.0582 -0.4963
 8210TIP3    H146045   0.903   5.477  16.452  0.7827  0.3140 -0.4084
 8210TIP3    H246046   0.978   5.390  16.551 -0.7469 -0.9838 -0.3582
 8211TIP3   OH246047   5.817   6.674  12.425  0.4601  0.7501 -0.5794
 8211TIP3    H146048   5.889   6.615  12.446  1.0669  1.1105 -1.5865
 8211TIP3    H246049   5.795   6.715  12.509 -0.9374 -1.8847  0.4525
 8212TIP3   OH246050   0.648   6.709  15.451  0.6209 -0.0258  0.4214
 8212TIP3    H146051   0.701   6.783  15.420  0.6690 -0.5482 -0.7954
 8212TIP3    H246052   0.699   6.631  15.427 -0.5331 -0.5314 -0.4942
 8213TIP3   OH246053   1.471   1.635   3.374 -0.5832 -0.0033 -0.6047
 8213TIP3    H146054   1.480   1.542   3.352 -1.6914 -0.4931  0.8563
 8213TIP3    H246055   1.561   1.669   3.372 -0.4098 -0.2536 -4.3336
 8214TIP3   OH246056   4.000   1.730  11.460 -0.3774  0.0130  0.2539
 8214TIP3    H146057   4.048   1.812  11.454  0.4381 -0.4619  0.1185
 8214TIP3    H246058   4.033   1.690  11.541 -0.9843 -0.0442  0.4719
 8215TIP3   OH246059   3.129   4.961   4.918  0.4141 -0.4651  0.4677
 8215TIP3    H146060   3.131   5.007   4.835 -1.4923 -0.4529  0.3899
 8215TIP3    H246061   3.111   4.870   4.895  3.8839 -1.3313  0.6381
 8216TIP3   OH246062   0.989   1.737   1.201  0.0089 -0.0782 -0.0916
 8216TIP3    H146063   1.039   1.724   1.120 -0.8179 -2.3535 -0.3011
 8216TIP3    H246064   1.001   1.830   1.221  4.2303 -0.4044 -0.1500
 8217TIP3   OH246065   5.798   3.348   4.500  0.3889  0.0225 -0.0508
 8217TIP3    H146066   5.881   3.304   4.485  0.4289  0.0098  0.2106
 8217TIP3    H246067   5.795   3.363   4.594 -0.5998 -1.3725  0.1709
 8218TIP3   OH246068   1.230   0.258  13.252 -0.5835  0.1852 -0.3585
 8218TIP3    H146069   1.138   0.273  13.273  0.2154  1.0287  3.2080
 8218TIP3    H246070   1.248   0.169  13.282 -0.2325  0.0059 -1.0784
 8219TIP3   OH246071   2.569   3.705  13.546  0.2635  0.0330  0.3010
 8219TIP3    H146072   2.630   3.632  13.549  1.1351  0.7575  0.5640
 8219TIP3    H246073   2.507   3.682  13.477  0.9532 -0.6183 -0.1134
 8220TIP3   OH246074   0.258   0.385   1.568  0.1025  0.7031  0.0819
 8220TIP3    H146075   0.309   0.382   1.487 -1.3159  1.2852 -0.8630
 8220TIP3    H246076   0.174   0.423   1.543 -0.3989  0.8537  1.8224
 8221TIP3   OH246077   0.302   5.962   1.481  0.7465 -0.1974 -0.3147
 8221TIP3    H146078   0.242   5.896   1.445 -0.3227  0.8089 -0.4306
 8221TIP3    H246079   0.301   6.033   1.417  0.7664  0.5372  0.4851
 8222TIP3   OH246080   2.078   5.002  15.648  0.7106 -0.0665 -0.0175
 8222TIP3    H146081   2.063   4.909  15.631  2.9656 -0.7847  1.5289
 8222TIP3    H246082   1.998   5.032  15.692  0.4159 -1.5623  0.4990
 8223TIP3   OH246083   1.163   2.307   5.218  0.0154 -0.6045 -1.3715
 8223TIP3    H146084   1.072   2.327   5.243  0.2175  0.0349 -1.1262
 8223TIP3    H246085   1.167   2.212   5.218 -0.3478 -0.6368 -0.2580
 8224TIP3   OH246086   2.820   0.129  15.030 -0.6028 -0.7103  0.0683
 8224TIP3    H146087   2.748   0.067  15.018 -0.8018 -0.2623 -1.1917
 8224TIP3    H246088   2.778   0.210  15.058 -0.5430 -0.6171 -0.1041
 8225TIP3   OH246089   5.445   5.277  16.714  0.3291  0.3480 -0.5635
 8225TIP3    H146090   5.366   5.315  16.675  0.2513 -0.0092 -0.7610
 8225TIP3    H246091   5.468   5.206  16.654  0.7179  0.3602 -0.4273
 8226TIP3   OH246092   2.639   0.675  14.562  0.1489  0.0112 -0.1802
 8226TIP3    H146093   2.626   0.586  14.529  1.1727  0.6649 -2.5551
 8226TIP3    H246094   2.615   0.731  14.489  0.5911  1.6668  0.9011
 8227TIP3   OH246095   0.282   6.283  12.132  0.0182  0.0022 -0.1577
 8227TIP3    H146096   0.249   6.234  12.208  0.1249  1.3596  0.8203
 8227TIP3    H246097   0.376   6.293  12.149  0.1328 -0.1260 -0.7256
 8228TIP3   OH246098   4.561   2.082  15.308 -0.3021 -0.0487  0.0629
 8228TIP3    H146099   4.547   2.174  15.329 -0.7102  0.3405 -1.7547
 8228TIP3    H246100   4.553   2.037  15.392 -0.4461  1.5243  0.9320
 8229TIP3   OH246101   2.472   4.847  14.287 -0.6757 -0.8689 -0.1208
 8229TIP3    H146102   2.527   4.776  14.322 -0.3185 -0.0004  1.1460
 8229TIP3    H246103   2.400   4.855  14.350 -0.6228 -0.0078 -0.1574
 8230TIP3   OH246104   0.447   3.578   0.133  0.0050  0.6622 -0.1616
 8230TIP3    H146105   0.424   3.488   0.109 -0.2780  0.4603  0.8310
 8230TIP3    H246106   0.370   3.630   0.110 -0.1310  0.5265 -0.0117
 8231TIP3   OH246107   2.458   0.540   4.962  0.2030  0.2415 -0.1429
 8231TIP3    H146108   2.463   0.603   5.033 -1.3100  1.4004 -0.9975
 8231TIP3    H246109   2.435   0.457   5.004  0.0352  0.7428  0.7740
 8232TIP3   OH246110   2.458   5.241  11.647 -0.6765 -0.7269  0.4301
 8232TIP3    H146111   2.538   5.274  11.689 -0.6857  1.4354 -1.0576
 8232TIP3    H246112   2.480   5.151  11.623 -0.2037 -1.5992  3.6628
 8233TIP3   OH246113   1.290   0.280   3.269 -0.3016 -0.1688 -0.1362
 8233TIP3    H146114   1.276   0.360   3.218  0.4983  0.1847  0.1741
 8233TIP3    H246115   1.367   0.300   3.324  1.4753 -2.0028 -1.7899
 8234TIP3   OH246116   1.111   4.338  12.632 -0.2314 -0.3235  0.4680
 8234TIP3    H146117   1.138   4.425  12.602 -1.0262 -0.1313  0.2645
 8234TIP3    H246118   1.029   4.354  12.679 -0.9841 -1.0776 -0.5149
 8235TIP3   OH246119   5.577   4.401  13.891  0.0336  0.2745  0.3658
 8235TIP3    H146120   5.513   4.333  13.873  1.3217 -0.9004  0.0586
 8235TIP3    H246121   5.546   4.477  13.843 -0.8612 -0.4139 -0.1735
 8236TIP3   OH246122   1.715   0.584   5.775  0.2710 -0.0590 -0.6637
 8236TIP3    H146123   1.724   0.643   5.699 -0.4182  1.5545  0.4572
 8236TIP3    H246124   1.796   0.596   5.824  0.1775 -0.1349 -0.4902
 8237TIP3   OH246125   1.392   0.941  16.726  0.4144  0.3133  0.2837
 8237TIP3    H146126   1.468   0.999  16.719  0.8986 -0.2807  0.5466
 8237TIP3    H246127   1.429   0.855  16.745 -0.3002 -0.0771 -0.0580
 8238TIP3   OH246128   1.398   2.955  13.504 -0.2501  0.4993  0.2322
 8238TIP3    H146129   1.465   2.897  13.540 -1.0990 -0.3077  0.5514
 8238TIP3    H246130   1.438   2.993  13.426  0.3838 -0.3740  0.1193
 8239TIP3   OH246131   5.052   0.531  12.347 -0.6060  0.5289  0.1203
 8239TIP3    H146132   5.089   0.485  12.272 -1.1186  1.7113 -0.9011
 8239TIP3    H246133   4.979   0.477  12.375 -0.2888 -0.0228 -0.1071
 8240TIP3   OH246134   6.381   3.159   3.550 -0.2382  0.3683  0.6231
 8240TIP3    H146135   6.459   3.126   3.594 -0.0768 -2.3505 -1.3972
 8240TIP3    H246136   6.379   3.253   3.570  2.6938  0.2470  1.9479
 8241TIP3   OH246137   2.752   4.138  14.245  0.0600  0.4700  0.0015
 8241TIP3    H146138   2.751   4.053  14.289  1.6030  0.1128 -0.5691
 8241TIP3    H246139   2.802   4.122  14.165 -2.6725  1.0692 -1.9641
 8242TIP3   OH246140   2.498   6.510   5.143  0.7292 -0.4412  0.1997
 8242TIP3    H146141   2.560   6.556   5.086  0.4483  0.6255  0.7241
 8242TIP3    H246142   2.436   6.469   5.083  1.5661 -0.9821 -0.3127
 8243TIP3   OH246143   6.184   3.471  10.644 -0.1038  0.0292  0.2220
 8243TIP3    H146144   6.229   3.475  10.560 -2.4649 -0.8186 -1.2080
 8243TIP3    H246145   6.137   3.554  10.650 -0.9712 -0.4237  0.0086
 8244TIP3   OH246146   3.749   1.812   2.206  0.2204 -0.1127  0.5515
 8244TIP3    H146147   3.779   1.749   2.272  1.0828 -0.3300 -0.0319
 8244TIP3    H246148   3.708   1.757   2.139  0.2291  0.0143  0.4425
 8245TIP3   OH246149   6.298   4.100   0.756  0.8345  0.3023 -0.3673
 8245TIP3    H146150   6.297   4.116   0.662 -0.1011  1.5638 -0.1524
 8245TIP3    H246151   6.334   4.180   0.794 -0.2976  0.4445  0.4529
 8246TIP3   OH246152   0.806   2.411  14.693 -0.3354  0.7109  0.5733
 8246TIP3    H146153   0.870   2.480  14.672  0.7569  0.0107  1.4896
 8246TIP3    H246154   0.734   2.458  14.736 -0.3555  1.4889 -0.2853
 8247TIP3   OH246155   0.710   4.774   2.512  0.6997  0.2530 -0.2760
 8247TIP3    H146156   0.682   4.694   2.467 -0.3921  0.2268  0.4221
 8247TIP3    H246157   0.731   4.745   2.601 -0.1436  0.8011  0.1137
 8248TIP3   OH246158   4.263   3.469   3.295 -0.1667 -0.4772 -0.2907
 8248TIP3    H146159   4.253   3.519   3.376 -0.6489 -0.4464 -0.3676
 8248TIP3    H246160   4.174   3.457   3.262 -0.0071 -0.8306 -0.6124
 8249TIP3   OH246161   2.132   1.539  12.630 -0.1303  0.1975  0.1147
 8249TIP3    H146162   2.098   1.603  12.693 -0.5667 -0.6961  0.7929
 8249TIP3    H246163   2.195   1.487  12.680  0.0107 -0.1053 -0.3641
 8250TIP3   OH246164   3.224   6.060  12.686  0.3323 -0.3612  0.1685
 8250TIP3    H146165   3.306   6.100  12.656 -0.5842  0.0453 -2.0413
 8250TIP3    H246166   3.162   6.133  12.689 -0.3899 -0.9480 -0.0401
 8251TIP3   OH246167   5.432   4.710   4.033  0.1218 -0.6797 -0.0925
 8251TIP3    H146168   5.372   4.770   4.077 -0.9816 -1.1240 -0.9530
 8251TIP3    H246169   5.518   4.751   4.042 -0.5711  0.9144 -0.4517
 8252TIP3   OH246170   0.097   2.859  15.269 -0.1543 -0.2594 -0.0030
 8252TIP3    H146171   0.057   2.875  15.184 -0.4588 -1.9219 -0.1920
 8252TIP3    H246172   0.023   2.857  15.331 -0.1942 -1.4245 -0.0703
 8253TIP3   OH246173   3.359   5.651  14.775  0.0586  0.6786  0.0231
 8253TIP3    H146174   3.339   5.740  14.805  1.3160  0.4439  1.7403
 8253TIP3    H246175   3.277   5.603  14.788 -0.1432  1.1946  0.7882
 8254TIP3   OH246176   0.528   0.218   0.248 -0.3266  0.0423 -0.3857
 8254TIP3    H146177   0.531   0.279   0.174 -0.5503 -0.8205 -1.1233
 8254TIP3    H246178   0.532   0.131   0.208 -3.2871 -0.5555  0.3733
 8255TIP3   OH246179   3.904   0.690  13.771 -0.3607  0.5784  0.1184
 8255TIP3    H146180   3.974   0.667  13.709  1.8483  0.8829  2.3258
 8255TIP3    H246181   3.848   0.613  13.773 -1.7062  1.2817 -3.6409
 8256TIP3   OH246182   3.446   6.117   1.624 -0.5154  0.4501  0.3980
 8256TIP3    H146183   3.424   6.210   1.631  2.3160  1.3143 -0.6564
 8256TIP3    H246184   3.442   6.099   1.530 -3.5376 -1.2759  0.7504
 8257TIP3   OH246185   6.139   5.107   3.466 -0.0131 -0.2331 -0.2344
 8257TIP3    H146186   6.081   5.034   3.444  0.0931 -0.9568  1.6902
 8257TIP3    H246187   6.209   5.104   3.401 -2.2631  0.9475 -2.9290
 8258TIP3   OH246188   1.393   4.703   4.447  0.2440 -0.0829  0.5479
 8258TIP3    H146189   1.468   4.698   4.506  0.9223  0.5499 -0.2333
 8258TIP3    H246190   1.354   4.616   4.451 -0.6328  0.3555  3.0505
 8259TIP3   OH246191   6.160   2.267  11.164  0.6416  0.2968 -0.4467
 8259TIP3    H146192   6.208   2.200  11.116 -1.0043 -0.4437 -1.1648
 8259TIP3    H246193   6.076   2.274  11.118  0.7847  2.9288 -0.4304
 8260TIP3   OH246194   4.006   6.646  15.942  0.4087  0.1830 -0.1803
 8260TIP3    H146195   3.933   6.708  15.932  0.0074 -0.5020 -1.8640
 8260TIP3    H246196   3.971   6.576  15.997 -0.4551 -0.4531 -1.4870
 8261TIP3   OH246197   6.396   5.695  16.616  0.0489 -0.6775  0.6261
 8261TIP3    H146198   6.483   5.725  16.588 -0.5389  1.7440  1.1992
 8261TIP3    H246199   6.413   5.642  16.693  1.0515 -0.4504  0.5770
 8262TIP3   OH246200   6.644   4.708   3.426  0.1087  0.1033 -0.0624
 8262TIP3    H146201   6.568   4.753   3.388 -1.5836 -0.6899  2.2060
 8262TIP3    H246202   6.628   4.615   3.407 -0.0102 -0.1585  1.2791
 8263TIP3   OH246203   5.650   2.942   1.970  0.0083 -0.5130  0.6354
 8263TIP3    H146204   5.716   2.880   2.001 -0.8169 -1.6746  0.1437
 8263TIP3    H246205   5.568   2.911   2.009 -0.0485  2.0225  2.8213
 8264TIP3   OH246206   2.438   3.362   1.144  0.2333 -0.7203 -0.2502
 8264TIP3    H146207   2.430   3.335   1.053  2.4239 -1.6878 -0.2296
 8264TIP3    H246208   2.486   3.445   1.140  2.3245 -1.8566  0.0485
 8265TIP3   OH246209   6.031   6.733  15.660 -0.1143 -0.1149  0.1483
 8265TIP3    H146210   6.010   6.792  15.587 -0.2995  1.2526  1.2521
 8265TIP3    H246211   6.086   6.786  15.718  0.6690 -1.4286  0.6280
 8266TIP3   OH246212   0.275   4.700  11.115  0.1858  0.1286  0.0088
 8266TIP3    H146213   0.345   4.685  11.178  0.4745  2.1415  0.2184
 8266TIP3    H246214   0.312   4.673  11.031  1.2137  1.1404  0.1216
 8267TIP3   OH246215   4.893   3.083   4.136  0.4369 -0.7176  0.0815
 8267TIP3    H146216   4.815   3.129   4.106 -0.0814 -2.4355 -1.4126
 8267TIP3    H246217   4.893   3.094   4.231 -1.7541 -0.8255  0.1458
 8268TIP3   OH246218   6.758   4.746   6.667  0.4296 -0.0876  0.1234
 8268TIP3    H146219   6.739   4.810   6.599  0.6524  1.6953  1.6736
 8268TIP3    H246220   6.690   4.679   6.657  0.2699  0.2973 -1.6205
 8269TIP3   OH246221   1.608   1.240  12.704  0.9068 -0.1654  0.0246
 8269TIP3    H146222   1.538   1.273  12.647  1.1967  1.2986  0.4607
 8269TIP3    H246223   1.669   1.314  12.711  0.3241  0.1284  3.1364
 8270TIP3   OH246224   5.473   4.011  14.544 -0.4063  0.1555 -0.1535
 8270TIP3    H146225   5.456   3.933  14.492 -0.7949  1.6562 -2.4272
 8270TIP3    H246226   5.404   4.012  14.610 -1.2119 -0.7042 -0.9612
 8271TIP3   OH246227   6.269   3.908   5.552  0.0548 -0.0528 -0.3278
 8271TIP3    H146228   6.210   3.934   5.623  0.9830 -0.2689  0.5418
 8271TIP3    H246229   6.258   3.976   5.486 -1.7994 -0.5288 -0.5731
 8272TIP3   OH246230   2.034   5.926  16.739  0.1820  0.6461  0.0892
 8272TIP3    H146231   2.028   5.903  16.646  2.3155 -1.3015  0.3470
 8272TIP3    H246232   1.944   5.946  16.765 -0.6271  0.1103 -2.1138
 8273TIP3   OH246233   1.715   6.753  15.047  0.1941 -0.2260  0.0082
 8273TIP3    H146234   1.685   6.818  15.110  1.4150 -1.3899  1.8737
 8273TIP3    H246235   1.698   6.668  15.088 -0.2357 -1.0804 -1.8345
 8274TIP3   OH246236   6.430   5.300  11.909 -0.5518  0.2560  0.3322
 8274TIP3    H146237   6.407   5.327  11.820 -0.6589  0.6281  0.4734
 8274TIP3    H246238   6.477   5.217  11.897  0.9134  1.1276 -0.2091
 8275TIP3   OH246239   2.082   2.537  13.257 -0.0574  0.0081  0.0105
 8275TIP3    H146240   2.046   2.561  13.343 -1.1229 -1.3107 -0.0281
 8275TIP3    H246241   2.018   2.475  13.221  0.3448  0.5717 -1.7701
 8276TIP3   OH246242   4.289   5.436   5.345  0.0705  0.0863  0.2860
 8276TIP3    H146243   4.324   5.522   5.325 -0.9541 -0.1532 -3.2284
 8276TIP3    H246244   4.259   5.442   5.436  0.4619  3.2442  0.2991
 8277TIP3   OH246245   4.038   3.899  17.178  0.0555  0.0627  0.0310
 8277TIP3    H146246   4.018   3.929  17.266  0.7407  2.0832 -0.4449
 8277TIP3    H246247   3.956   3.905  17.130  0.2257  1.5759 -0.1242
 8278TIP3   OH246248   6.004   4.278  14.059 -0.0145 -0.4760 -0.0646
 8278TIP3    H146249   5.975   4.204  14.005 -0.0977  0.7794 -1.8209
 8278TIP3    H246250   6.081   4.244  14.105  0.2930 -1.5077 -1.2615
 8279TIP3   OH246251   3.252   2.773  15.732 -0.0467  0.0766  0.0148
 8279TIP3    H146252   3.160   2.766  15.755  0.3121 -1.7732  1.1175
 8279TIP3    H246253   3.276   2.686  15.700  1.7153 -0.0509  1.5014
 8280TIP3   OH246254   3.859   2.055   0.885 -0.0689 -0.7257  0.1850
 8280TIP3    H146255   3.927   2.121   0.888  0.8422 -1.6316  3.1494
 8280TIP3    H246256   3.777   2.103   0.897  0.4648  0.0206  0.9455
 8281TIP3   OH246257   5.390   4.159   3.262 -0.0759  0.1235  0.3486
 8281TIP3    H146258   5.337   4.195   3.334  2.5986 -0.5971  2.8918
 8281TIP3    H246259   5.369   4.066   3.261 -1.3764  0.3977 -1.0596
 8282TIP3   OH246260   3.627   2.159   5.780 -0.3394 -0.0768 -0.0692
 8282TIP3    H146261   3.719   2.184   5.780 -0.6502  1.1562 -0.6100
 8282TIP3    H246262   3.596   2.183   5.692 -1.1916 -0.3995  0.1365
 8283TIP3   OH246263   5.402   5.098  13.010  0.2620  0.3457 -0.2948
 8283TIP3    H146264   5.418   5.054  13.093 -1.1878  2.5774  1.3027
 8283TIP3    H246265   5.346   5.038  12.961  0.0296 -0.4648  0.9209
 8284TIP3   OH246266   1.594   4.696   0.499  0.4239 -0.1988 -0.3157
 8284TIP3    H146267   1.670   4.718   0.552 -0.2245 -0.2243  0.6734
 8284TIP3    H246268   1.604   4.746   0.419  0.4272  1.4514  0.6720
 8285TIP3   OH246269   2.124   2.317  14.025  0.0471 -1.0182  0.2305
 8285TIP3    H146270   2.051   2.348  13.971  0.2192 -0.1641  0.4763
 8285TIP3    H246271   2.194   2.381  14.010  0.9816 -2.1507 -0.4829
 8286TIP3   OH246272   1.943   1.921  14.129 -0.1798  0.0112 -0.0374
 8286TIP3    H146273   1.955   1.827  14.122  1.1271 -0.0583  2.2364
 8286TIP3    H246274   2.024   1.959  14.095  0.0335  0.2325  0.7047
 8287TIP3   OH246275   6.783   5.323  13.434  0.2079  0.0718  0.1512
 8287TIP3    H146276   6.740   5.390  13.382  0.7271 -0.0207 -0.4050
 8287TIP3    H246277   6.767   5.241  13.388 -0.1238 -0.1478  0.6413
 8288TIP3   OH246278   1.080   4.200  16.492  0.0120  0.3387 -0.4666
 8288TIP3    H146279   1.175   4.207  16.498  0.1025  0.0526 -1.4033
 8288TIP3    H246280   1.053   4.167  16.577  0.9358 -1.3024 -0.7659
 8289TIP3   OH246281   5.145   0.964   3.680  0.4425 -0.0878  0.3942
 8289TIP3    H146282   5.178   0.907   3.610  0.2746 -0.2503  0.4476
 8289TIP3    H246283   5.064   0.923   3.708 -0.8861  1.3845 -1.0918
 8290TIP3   OH246284   0.129   0.818   2.924 -0.1992  0.3767 -0.5167
 8290TIP3    H146285   0.097   0.885   2.984 -1.0796  0.1714 -0.7379
 8290TIP3    H246286   0.147   0.743   2.979  2.7753  1.3703  0.0574
 8291TIP3   OH246287   6.033   2.524   4.653 -0.1621 -0.5661  0.5751
 8291TIP3    H146288   6.094   2.598   4.659 -0.5931  0.0731 -1.9793
 8291TIP3    H246289   5.967   2.542   4.720  0.1356  0.9813  0.4782
 8292TIP3   OH246290   0.869   3.263  13.631  0.5544  0.3298  0.5989
 8292TIP3    H146291   0.819   3.301  13.557 -0.0632  0.3687  1.0263
 8292TIP3    H246292   0.929   3.333  13.657  0.3271  0.5495  0.5428
 8293TIP3   OH246293   2.895   4.402  14.021 -0.2274 -0.4227  0.0462
 8293TIP3    H146294   2.809   4.361  14.027 -0.1961 -0.3268  1.5760
 8293TIP3    H246295   2.886   4.484  14.069  0.6229 -0.2563 -0.0583
 8294TIP3   OH246296   0.276   4.289  12.922  0.3103 -0.3486 -0.0858
 8294TIP3    H146297   0.266   4.216  12.984  2.4467  0.7417  1.6680
 8294TIP3    H246298   0.325   4.355  12.971 -1.0571  2.0857 -1.7950
 8295TIP3   OH246299   3.799   2.257   4.701  0.1898 -0.2974  0.0476
 8295TIP3    H146300   3.738   2.309   4.754 -1.1656 -0.7662 -0.9808
 8295TIP3    H246301   3.872   2.239   4.760 -1.3003 -0.9060  1.8237
 8296TIP3   OH246302   4.408   2.622   5.630  0.2240 -0.1885 -0.0037
 8296TIP3    H146303   4.410   2.527   5.621 -0.4471 -0.2592  0.5329
 8296TIP3    H246304   4.337   2.639   5.692  0.7682  0.6216  0.4155
 8297TIP3   OH246305   2.013   3.462   3.338 -0.0188  0.3835  0.0606
 8297TIP3    H146306   2.029   3.423   3.252 -1.8767  0.0031 -0.1553
 8297TIP3    H246307   1.975   3.391   3.390  0.2925  0.8427  0.9330
 8298TIP3   OH246308   5.730   3.272   0.405 -0.0473  0.7214 -0.0827
 8298TIP3    H146309   5.693   3.349   0.448 -0.2993  1.0018 -0.7773
 8298TIP3    H246310   5.823   3.274   0.428 -0.5555 -0.5046  2.4479
 8299TIP3   OH246311   1.016   6.222   0.353  0.1843 -0.1352  0.1470
 8299TIP3    H146312   1.034   6.247   0.444  0.0647  2.5542 -0.4680
 8299TIP3    H246313   0.921   6.227   0.345  0.1207 -1.2376  0.0635
 8300TIP3   OH246314   2.745   3.198   0.860 -0.2519 -0.2770 -0.2661
 8300TIP3    H146315   2.729   3.110   0.893 -1.8533  0.3521  0.7433
 8300TIP3    H246316   2.840   3.200   0.843  0.1377 -1.6175  1.4313
 8301TIP3   OH246317   5.270   1.322   5.231  0.0220  0.5223 -0.2044
 8301TIP3    H146318   5.244   1.407   5.267 -1.1139 -0.0887  0.4611
 8301TIP3    H246319   5.302   1.342   5.143 -0.4709  1.6072 -0.1558
 8302TIP3   OH246320   2.961   3.096   2.213 -0.2975  0.1804 -0.1257
 8302TIP3    H146321   2.907   3.041   2.157  0.3040  0.4102 -0.9578
 8302TIP3    H246322   2.924   3.184   2.203  0.9871  0.5965 -1.7629
 8303TIP3   OH246323   4.654   1.904   6.497 -0.7074 -0.1641 -0.4622
 8303TIP3    H146324   4.636   1.811   6.512 -0.8226 -0.2349 -1.0228
 8303TIP3    H246325   4.736   1.905   6.448 -1.5103 -0.0646 -1.8680
 8304TIP3   OH246326   2.009   3.573   5.568  0.4410 -0.3763  0.5495
 8304TIP3    H146327   2.097   3.540   5.554  0.1292 -0.9969  0.0192
 8304TIP3    H246328   1.952   3.504   5.536 -0.2370  0.5599 -0.3323
 8305TIP3   OH246329   3.227   1.480   5.149  0.9139  0.0660  0.4585
 8305TIP3    H146330   3.228   1.515   5.237 -0.1419  1.9452 -0.2202
 8305TIP3    H246331   3.282   1.540   5.098  1.1392 -0.7183 -0.2554
 8306TIP3   OH246332   4.924   3.637  15.623 -0.2403  0.4737  0.2228
 8306TIP3    H146333   5.014   3.611  15.641 -0.6128 -0.3925  0.8880
 8306TIP3    H246334   4.917   3.636  15.527  0.6724  1.3391  0.1332
 8307TIP3   OH246335   6.142   4.756  12.632 -0.1625  0.4154  0.1629
 8307TIP3    H146336   6.236   4.757  12.651 -0.1419 -0.9984  0.2990
 8307TIP3    H246337   6.104   4.820  12.692  0.8177  1.7809 -0.6323
 8308TIP3   OH246338   3.929   3.270   1.228  0.2260  0.1150 -0.5718
 8308TIP3    H146339   3.843   3.305   1.251  0.3223  0.1379 -0.2494
 8308TIP3    H246340   3.990   3.339   1.252  0.4323 -0.3483  0.2477
 8309TIP3   OH246341   3.340   2.188  10.739  0.1404 -0.0990  0.1272
 8309TIP3    H146342   3.394   2.197  10.661  1.7720  0.3505  1.2610
 8309TIP3    H246343   3.250   2.193  10.707  0.7609 -0.5613 -1.7781
 8310TIP3   OH246344   5.581   1.322  14.556  0.3731  0.0213 -0.4573
 8310TIP3    H146345   5.550   1.390  14.496  2.3914  2.1650  0.7749
 8310TIP3    H246346   5.591   1.245  14.500  1.5003  1.7154 -2.7742
 8311TIP3   OH246347   2.057   6.512   0.917 -0.3060  0.7506 -0.6829
 8311TIP3    H146348   2.063   6.600   0.881  0.2141  0.6037 -0.9582
 8311TIP3    H246349   2.147   6.488   0.938 -0.4033  0.1430 -0.9476
 8312TIP3   OH246350   2.800   4.937  15.940 -0.4080 -0.1683 -0.6370
 8312TIP3    H146351   2.857   4.938  15.864 -0.1990  0.7770 -0.4776
 8312TIP3    H246352   2.802   5.027  15.973 -1.5399 -0.2492 -0.3026
 8313TIP3   OH246353   5.948   4.034  16.384 -0.4199  0.4483  0.2900
 8313TIP3    H146354   5.942   3.945  16.420 -0.6169 -0.2965 -1.5072
 8313TIP3    H246355   6.032   4.037  16.340  0.3248  1.7293  1.7051
 8314TIP3   OH246356   5.413   5.357   1.866  0.0418  0.7424  0.1388
 8314TIP3    H146357   5.378   5.446   1.858  0.7272  0.8476 -2.4823
 8314TIP3    H246358   5.508   5.368   1.870  0.3903  0.1543 -3.1718
 8315TIP3   OH246359   2.649   2.084  16.596  0.4188 -0.0017  0.0689
 8315TIP3    H146360   2.658   2.179  16.610 -3.0137  0.3208  0.8763
 8315TIP3    H246361   2.688   2.045  16.674 -0.6887  0.9196  1.1234
 8316TIP3   OH246362   3.473   2.976  14.024  0.2675 -0.1334  0.3142
 8316TIP3    H146363   3.455   3.033  13.950 -3.4458 -2.0723 -0.5403
 8316TIP3    H246364   3.457   3.031  14.101  2.2722  1.3781 -0.2846
 8317TIP3   OH246365   3.285   3.048  15.729  0.1257  0.5894 -0.3374
 8317TIP3    H146366   3.295   2.953  15.738 -0.6460  0.5343 -0.0341
 8317TIP3    H246367   3.296   3.081  15.818  1.7876  0.9349 -0.6330
 8318TIP3   OH246368   5.170   5.733   3.600  0.1367 -0.3750 -0.4691
 8318TIP3    H146369   5.203   5.704   3.685  2.2637 -0.7493 -1.3809
 8318TIP3    H246370   5.117   5.660   3.569 -0.2991 -0.4072  0.3040
 8319TIP3   OH246371   2.928   1.536  13.097 -0.0555  0.2887  0.1157
 8319TIP3    H146372   2.880   1.458  13.068 -0.7931  0.5280  0.6545
 8319TIP3    H246373   2.943   1.586  13.017 -3.4804  1.7417  0.1675
 8320TIP3   OH246374   6.595   2.523   0.457 -0.0705 -0.1937  0.2526
 8320TIP3    H146375   6.587   2.590   0.389 -0.9777 -0.5064  0.0454
 8320TIP3    H246376   6.668   2.468   0.429 -0.6968 -0.5620 -0.6778
 8321TIP3   OH246377   5.347   0.219   0.505 -0.6378 -0.0673  0.1623
 8321TIP3    H146378   5.255   0.201   0.521  0.0149 -0.9029  4.0283
 8321TIP3    H246379   5.388   0.132   0.498  0.1025  0.2377  0.5530
 8322TIP3   OH246380   5.886   4.238   4.388 -0.0002 -0.8564  0.1290
 8322TIP3    H146381   5.845   4.295   4.453  0.8271  1.0616 -0.9603
 8322TIP3    H246382   5.828   4.162   4.383 -3.5664  1.7131 -1.4026
 8323TIP3   OH246383   1.114   5.792   2.405 -0.0927  0.2668 -0.2063
 8323TIP3    H146384   1.065   5.797   2.486  3.5000 -1.6529  2.3830
 8323TIP3    H246385   1.090   5.707   2.367  0.6263 -0.3727  0.7113
 8324TIP3   OH246386   4.840   1.745  12.904 -0.2476 -0.1462 -0.0650
 8324TIP3    H146387   4.857   1.734  12.997  2.3431  1.0844 -0.3039
 8324TIP3    H246388   4.927   1.751  12.864 -1.2552  1.9920 -2.1955
 8325TIP3   OH246389   3.204   6.492  16.756 -0.2147  0.1798 -0.1270
 8325TIP3    H146390   3.112   6.509  16.772 -0.6080 -1.3869 -0.5578
 8325TIP3    H246391   3.234   6.444  16.833 -0.3070 -1.0937 -0.8432
 8326TIP3   OH246392   6.269   3.414  16.647  0.2594 -0.2680  0.0478
 8326TIP3    H146393   6.225   3.492  16.681 -0.8193 -1.1406  0.7373
 8326TIP3    H246394   6.268   3.426  16.552 -1.1028 -0.0549  0.0700
 8327TIP3   OH246395   0.606   1.874   0.163  0.6109  0.1395 -0.1074
 8327TIP3    H146396   0.656   1.880   0.244 -0.5124 -0.9799  0.7171
 8327TIP3    H246397   0.600   1.964   0.131 -1.0583  1.0319  2.3977
 8328TIP3   OH246398   0.962   2.509   3.037 -0.0622  0.0225  0.0213
 8328TIP3    H146399   1.006   2.432   3.073 -2.4930 -1.6592 -0.3713
 8328TIP3    H246400   0.960   2.493   2.942  2.6297  2.4239 -0.5791
 8329TIP3   OH246401   1.056   1.698  16.612  0.7818 -0.2138  0.1818
 8329TIP3    H146402   1.071   1.792  16.599  1.9798 -0.5367 -0.9997
 8329TIP3    H246403   0.967   1.692  16.645  0.6972  1.3432  0.2996
 8330TIP3   OH246404   3.841   3.684   1.357 -0.0198 -0.1605  0.3703
 8330TIP3    H146405   3.763   3.647   1.399 -0.5637  1.1198  0.5101
 8330TIP3    H246406   3.808   3.728   1.279  0.8840 -1.7170 -0.9659
 8331TIP3   OH246407   5.956   1.649   2.538  0.3905 -0.0555 -0.2373
 8331TIP3    H146408   5.870   1.666   2.500  0.1878 -0.6156 -0.0339
 8331TIP3    H246409   5.974   1.726   2.592 -0.1527 -0.1022  0.0190
 8332TIP3   OH246410   1.894   3.023   3.698  0.0064  0.2457  0.1297
 8332TIP3    H146411   1.842   2.943   3.688 -0.4146  0.0999  2.8329
 8332TIP3    H246412   1.847   3.074   3.764  0.7022  2.4062 -0.9529
 8333TIP3   OH246413   2.046   5.477   5.194  0.6869  0.1883  0.6323
 8333TIP3    H146414   2.009   5.524   5.269  0.4262  0.7146  0.1794
 8333TIP3    H246415   1.996   5.508   5.119  1.3281  0.0949  0.1575
 8334TIP3   OH246416   6.533   3.951   5.490 -0.0488  0.0802 -0.3481
 8334TIP3    H146417   6.454   3.916   5.532 -1.7264  0.8943 -2.5927
 8334TIP3    H246418   6.504   3.976   5.402  2.5704  1.1176 -1.0135
 8335TIP3   OH246419   5.191   3.145   3.396 -0.4848  0.3952  0.4045
 8335TIP3    H146420   5.125   3.093   3.443  0.9309 -1.9172 -0.0203
 8335TIP3    H246421   5.234   3.196   3.465 -2.2334  1.4831  0.7696
 8336TIP3   OH246422   3.904   4.884   3.629  0.3988 -0.0421 -0.1903
 8336TIP3    H146423   3.851   4.913   3.703  0.5598  1.0966 -0.4910
 8336TIP3    H246424   3.987   4.857   3.668 -0.3221 -1.7108  0.2667
 8337TIP3   OH246425   0.079   4.409  14.985 -0.0587 -0.2650  0.4727
 8337TIP3    H146426   0.064   4.494  14.944 -1.4453 -0.1201  1.2355
 8337TIP3    H246427   0.064   4.425  15.079 -0.6822 -1.4097  0.5818
 8338TIP3   OH246428   4.087   3.755  13.125 -0.5885  0.1914  0.8936
 8338TIP3    H146429   4.116   3.789  13.210  0.6681  1.3121  0.0687
 8338TIP3    H246430   3.993   3.774  13.122 -0.3915  1.3351  1.5118
 8339TIP3   OH246431   3.921   6.478  15.024 -0.3880 -0.3218 -0.2335
 8339TIP3    H146432   3.856   6.423  14.981 -0.6275  0.1277 -0.4497
 8339TIP3    H246433   3.876   6.561  15.040  0.5666  0.5173 -1.7145
 8340TIP3   OH246434   2.659   0.044  13.319  0.1483 -0.1289 -0.4309
 8340TIP3    H146435   2.682   0.060  13.228 -1.3094 -1.7224 -1.1400
 8340TIP3    H246436   2.742   0.029  13.363  0.7947 -0.6825 -1.7990
 8341TIP3   OH246437   6.067   5.957  12.818 -0.0842  0.3248 -0.4085
 8341TIP3    H146438   6.078   5.909  12.900 -0.6103 -0.1823 -0.6323
 8341TIP3    H246439   6.024   5.895  12.759  0.0410  0.7775 -0.9829
 8342TIP3   OH246440   6.482   1.518   3.900 -0.1293  0.1116  0.1029
 8342TIP3    H146441   6.400   1.545   3.859 -1.2476 -1.3353  1.2635
 8342TIP3    H246442   6.457   1.449   3.961  1.4289  1.9677  3.0903
 8343TIP3   OH246443   5.959   1.541   5.609  0.8236  0.2510  1.0035
 8343TIP3    H146444   5.931   1.452   5.631  5.7178 -1.2372  2.3931
 8343TIP3    H246445   5.985   1.537   5.517  0.2530  0.5503  0.8204
 8344TIP3   OH246446   1.672   0.104  13.292  0.8631  0.1733 -0.0023
 8344TIP3    H146447   1.642   0.014  13.283 -0.8056  0.6029  0.9015
 8344TIP3    H246448   1.594   0.154  13.317  1.5587  2.0274 -1.2818
 8345TIP3   OH246449   6.446   1.782   0.783 -0.2663  0.1497  0.5314
 8345TIP3    H146450   6.418   1.842   0.852 -1.4784  1.7371 -1.2368
 8345TIP3    H246451   6.429   1.829   0.701 -0.2509 -2.1862 -0.9215
 8346TIP3   OH246452   5.029   5.301   5.976 -0.1450 -0.2885 -0.4466
 8346TIP3    H146453   4.944   5.293   6.020  0.8293 -0.5038  1.4451
 8346TIP3    H246454   5.066   5.382   6.010  0.1385  0.1771 -1.7997
 8347TIP3   OH246455   2.571   5.102   3.886 -0.5042  0.4122 -0.6682
 8347TIP3    H146456   2.508   5.138   3.949 -2.3477 -1.4986 -1.3211
 8347TIP3    H246457   2.520   5.087   3.807  0.8018 -1.1324 -1.2642
 8348TIP3   OH246458   4.430   1.421   3.835 -0.8682  0.0743 -0.3532
 8348TIP3    H146459   4.391   1.482   3.774  0.6200  1.1917 -0.2337
 8348TIP3    H246460   4.524   1.440   3.832 -0.6033 -0.7915  1.2242
 8349TIP3   OH246461   1.201   1.344  15.359  0.1428 -0.3114 -0.1131
 8349TIP3    H146462   1.158   1.418  15.316  1.2811  0.9976  0.9178
 8349TIP3    H246463   1.292   1.348  15.329  0.4485 -0.6985  0.7157
 8350TIP3   OH246464   2.074   1.194  10.732  0.1235 -0.2929 -0.1439
 8350TIP3    H146465   2.164   1.223  10.746  0.7295 -1.8949 -0.6023
 8350TIP3    H246466   2.037   1.260  10.672 -0.2841  2.5438  2.9371
 8351TIP3   OH246467   4.255   6.473   4.208 -0.3833 -0.0021  0.3716
 8351TIP3    H146468   4.343   6.460   4.244 -0.7802  2.6397  2.6905
 8351TIP3    H246469   4.257   6.561   4.171 -1.4567 -0.8040 -1.8012
 8352TIP3   OH246470   2.891   2.777  11.539  0.0126  0.2937 -0.4826
 8352TIP3    H146471   2.936   2.822  11.467  0.3848 -0.6802 -0.8754
 8352TIP3    H246472   2.812   2.829  11.554  0.2228  0.8385 -1.1992
 8353TIP3   OH246473   5.427   3.829   0.174 -0.1354 -0.1628 -0.0934
 8353TIP3    H146474   5.496   3.887   0.208  0.9107 -1.6653  0.4446
 8353TIP3    H246475   5.407   3.864   0.087 -1.0960  2.2805  1.0202
 8354TIP3   OH246476   3.345   1.500  15.732  0.0711  0.2567  0.1178
 8354TIP3    H146477   3.324   1.593  15.734 -0.9785  0.0722 -1.2402
 8354TIP3    H246478   3.262   1.456  15.748  0.4287 -0.4469  0.0734
 8355TIP3   OH246479   6.464   4.496  13.948 -0.0898 -0.0556  0.1592
 8355TIP3    H146480   6.527   4.561  13.978  3.0897 -1.1682 -3.3209
 8355TIP3    H246481   6.487   4.416  13.994 -0.7659  0.1079  0.8077
 8356TIP3   OH246482   5.728   5.253  15.561 -0.0358  0.2705  0.1293
 8356TIP3    H146483   5.731   5.233  15.655 -0.3001 -1.5189 -0.2132
 8356TIP3    H246484   5.819   5.250  15.533 -0.1353 -1.7985 -0.1341
 8357TIP3   OH246485   0.315   3.274   0.969 -0.3626 -0.1081 -0.1061
 8357TIP3    H146486   0.399   3.281   1.015 -0.4462 -0.1320  0.0518
 8357TIP3    H246487   0.335   3.223   0.891  0.0147  0.8800 -0.6733
 8358TIP3   OH246488   3.040   1.127   0.550  0.0026 -0.0496 -0.3488
 8358TIP3    H146489   3.100   1.138   0.624  0.2615 -0.1238 -0.5447
 8358TIP3    H246490   3.005   1.038   0.561 -0.3202  0.1109 -0.0558
 8359TIP3   OH246491   4.665   3.461   1.757 -0.4513 -0.0464  0.2610
 8359TIP3    H146492   4.648   3.527   1.690  1.3570  0.6490  0.4207
 8359TIP3    H246493   4.747   3.421   1.730  0.8227  0.8804  2.4847
 8360TIP3   OH246494   0.330   0.336   2.002  0.6158  0.1335 -0.0451
 8360TIP3    H146495   0.339   0.241   2.010  0.8872  0.0396 -1.2802
 8360TIP3    H246496   0.415   0.365   1.969  0.3751  0.7368 -0.1361
 8361TIP3   OH246497   5.944   0.082   3.279  0.2374 -0.3096  0.2782
 8361TIP3    H146498   5.965   0.004   3.331 -2.3865  0.0739  2.0874
 8361TIP3    H246499   5.942   0.154   3.343 -0.4982  0.6857 -0.8231
 8362TIP3   OH246500   0.043   3.697  13.800  0.2429  0.1154 -0.1504
 8362TIP3    H146501  -0.000   3.783  13.802  0.9490  0.5132 -0.9912
 8362TIP3    H246502  -0.026   3.636  13.777 -0.4104  0.3470  1.0646
 8363TIP3   OH246503   1.996   0.516   5.498  0.4374  0.0722  0.1839
 8363TIP3    H146504   1.970   0.469   5.577  0.5238 -0.6768 -0.2332
 8363TIP3    H246505   2.004   0.607   5.527  1.8000 -0.3854  1.3509
 8364TIP3   OH246506   0.007   5.420  12.143  0.0837 -0.1053  0.5854
 8364TIP3    H146507   0.048   5.440  12.059  0.0830  2.1514  1.0389
 8364TIP3    H246508  -0.053   5.348  12.124  1.4569 -0.9128 -0.9099
 8365TIP3   OH246509   5.257   1.555   1.866  0.7137  0.2033  0.2469
 8365TIP3    H146510   5.327   1.593   1.921  0.0440 -0.5742  1.6939
 8365TIP3    H246511   5.239   1.623   1.801  1.7974  1.0293  0.7684
 8366TIP3   OH246512   2.854   0.657  13.250  0.4382 -0.2356 -0.0114
 8366TIP3    H146513   2.850   0.578  13.303 -0.5284  0.4373  0.9697
 8366TIP3    H246514   2.766   0.666  13.213  0.6365  0.1986 -0.3951
 8367TIP3   OH246515   4.219   6.450   5.133  0.9848  0.2591 -0.2007
 8367TIP3    H146516   4.217   6.468   5.227  0.1245  1.1936 -0.3781
 8367TIP3    H246517   4.300   6.401   5.119  0.9138 -0.2356  1.0820
 8368TIP3   OH246518   1.468   0.521   3.899 -0.2160 -0.1717  0.3007
 8368TIP3    H146519   1.414   0.589   3.940  0.7441  1.3051 -0.7803
 8368TIP3    H246520   1.514   0.480   3.972 -0.2368  0.8562  0.9161
 8369TIP3   OH246521   2.554   3.688   5.509 -0.2264 -0.1862  0.3892
 8369TIP3    H146522   2.618   3.740   5.460 -1.5486  1.0813 -0.0533
 8369TIP3    H246523   2.556   3.602   5.467  1.1438 -0.1799  0.3725
 8370TIP3   OH246524   0.624   2.424  12.050 -0.5909 -0.1590  0.9882
 8370TIP3    H146525   0.598   2.387  11.966 -0.7363  0.7246  0.6378
 8370TIP3    H246526   0.649   2.514  12.030 -1.0165  0.1850  1.9562
 8371TIP3   OH246527   5.096   1.462   4.925 -0.2798  0.9801  0.0678
 8371TIP3    H146528   5.151   1.528   4.968 -1.7508  1.5537  1.1736
 8371TIP3    H246529   5.049   1.419   4.997 -1.2781  0.5311 -0.8258
 8372TIP3   OH246530   1.422   3.628  13.561  0.1698  0.3458 -0.4370
 8372TIP3    H146531   1.409   3.561  13.494 -2.4277 -0.5539  0.8301
 8372TIP3    H246532   1.494   3.595  13.614 -0.1172 -0.7275 -0.6962
 8373TIP3   OH246533   5.421   5.820  12.150  0.1278  0.0793  0.3208
 8373TIP3    H146534   5.338   5.800  12.193 -0.1759  0.7217  0.0463
 8373TIP3    H246535   5.431   5.751  12.085  0.8585 -1.2231  1.7440
 8374TIP3   OH246536   6.606   1.664  12.353  0.0630  0.6110  0.0022
 8374TIP3    H146537   6.633   1.722  12.424  0.4404  0.2845  0.1277
 8374TIP3    H246538   6.601   1.577  12.393 -1.2615  0.6688  0.0019
 8375TIP3   OH246539   0.445   5.749  14.499  0.3202  0.2678 -0.2532
 8375TIP3    H146540   0.363   5.775  14.541 -0.1398 -1.1065 -0.2547
 8375TIP3    H246541   0.511   5.808  14.536 -0.2726 -0.1163  1.5054
 8376TIP3   OH246542   3.115   3.198  13.885 -0.9948  0.3862  0.0347
 8376TIP3    H146543   3.022   3.175  13.890 -0.7055 -0.6547  1.1741
 8376TIP3    H246544   3.156   3.120  13.846 -0.3815  0.1202  1.1815
 8377TIP3   OH246545   1.826   2.554   4.942  0.5027 -0.5441 -0.1573
 8377TIP3    H146546   1.814   2.467   4.905  3.0374 -0.8431 -0.4171
 8377TIP3    H246547   1.912   2.552   4.983  0.8769  1.9884 -0.6404
 8378TIP3   OH246548   6.062   3.103  11.135  0.4037  0.5105  0.6817
 8378TIP3    H146549   5.968   3.120  11.144  0.5854  1.2119  1.3476
 8378TIP3    H246550   6.071   3.067  11.047 -0.5062  0.2998  0.6581
 8379TIP3   OH246551   5.098   5.518   2.926 -0.2820 -0.4989  0.4431
 8379TIP3    H146552   5.154   5.571   2.869 -1.1970 -0.4795 -0.4713
 8379TIP3    H246553   5.018   5.571   2.936 -0.8760 -1.3228  0.1887
 8380TIP3   OH246554   4.752   1.512  13.656  0.5449 -0.2764 -0.2285
 8380TIP3    H146555   4.730   1.425  13.691 -2.4403  0.0874 -0.9542
 8380TIP3    H246556   4.753   1.569  13.733 -0.0260 -0.5276 -0.0300
 8381TIP3   OH246557   1.276   5.045   5.117 -0.4051 -0.2482  0.1332
 8381TIP3    H146558   1.279   5.124   5.063  0.5870 -0.6334 -0.4000
 8381TIP3    H246559   1.367   5.019   5.127 -0.7259 -1.3772  0.2400
 8382TIP3   OH246560   4.297   1.850   3.440 -0.2203  0.2188 -0.4502
 8382TIP3    H146561   4.222   1.875   3.385  0.2705 -0.6385 -1.5541
 8382TIP3    H246562   4.279   1.760   3.465  0.3623  0.0612 -0.5827
 8383TIP3   OH246563   1.190   1.382   2.181  0.1939  0.2953 -0.2105
 8383TIP3    H146564   1.146   1.301   2.158  1.8544 -0.2958 -1.5658
 8383TIP3    H246565   1.121   1.439   2.216 -1.1511 -1.3759 -0.0514
 8384TIP3   OH246566   0.433   5.213   0.097  0.1061 -0.3642  0.4973
 8384TIP3    H146567   0.527   5.196   0.092  0.0051 -0.5764 -1.6387
 8384TIP3    H246568   0.425   5.307   0.085  0.0515 -0.2761  1.1737
 8385TIP3   OH246569   6.404   6.651   5.795  0.3165 -0.4984 -0.5682
 8385TIP3    H146570   6.457   6.724   5.827 -0.0246 -0.5158  0.0459
 8385TIP3    H246571   6.327   6.650   5.852 -0.1722 -0.7019 -1.2208
 8386TIP3   OH246572   6.471   0.588  14.761  0.0998  0.7931 -0.1851
 8386TIP3    H146573   6.425   0.660  14.805  0.2653  1.9654 -1.7943
 8386TIP3    H246574   6.519   0.543  14.830 -0.9605  1.5085  1.0495
 8387TIP3   OH246575   6.174   4.148  11.034 -1.0525  0.1263  0.4129
 8387TIP3    H146576   6.225   4.120  11.110  0.2928  0.5797 -0.2811
 8387TIP3    H246577   6.184   4.243  11.032 -1.4178  0.1567 -0.1056
 8388TIP3   OH246578   2.211   1.870  12.425 -0.0941 -0.0493  0.7762
 8388TIP3    H146579   2.243   1.786  12.393 -0.3665 -0.0534  0.5118
 8388TIP3    H246580   2.204   1.859  12.519  2.0505  0.4015  1.0437
 8389TIP3   OH246581   2.496   2.112  11.204  0.2774  0.4506  0.6126
 8389TIP3    H146582   2.428   2.062  11.249  0.3967 -0.2973 -0.0142
 8389TIP3    H246583   2.578   2.072  11.232  0.3191 -0.7758 -1.0686
 8390TIP3   OH246584   2.382   2.013  16.719  0.1588  0.3296  0.4116
 8390TIP3    H146585   2.437   2.005  16.641  1.8182 -0.9634  1.6195
 8390TIP3    H246586   2.444   2.006  16.792 -1.5886 -1.1071  1.8587
 8391TIP3   OH246587   0.611   4.515  13.152 -0.5797 -0.5072 -0.0675
 8391TIP3    H146588   0.667   4.582  13.191 -1.5276  1.9413 -2.5589
 8391TIP3    H246589   0.673   4.452  13.114  0.4667  0.6115 -0.3064
 8392TIP3   OH246590   1.550   4.825  12.789  0.2247 -0.1672 -0.2199
 8392TIP3    H146591   1.578   4.916  12.798  1.9391 -0.7006  0.1174
 8392TIP3    H246592   1.619   4.783  12.737  0.5337 -1.7410  1.3678
 8393TIP3   OH246593   3.338   3.690  12.656  0.2350 -0.6255 -0.2354
 8393TIP3    H146594   3.336   3.785  12.657 -1.3051 -0.6136 -0.9100
 8393TIP3    H246595   3.295   3.664  12.738  0.3182 -0.7363 -0.2269
 8394TIP3   OH246596   5.027   1.568  14.612 -0.4608  0.0021 -0.4784
 8394TIP3    H146597   5.114   1.531  14.629 -0.2019  1.0510  0.6905
 8394TIP3    H246598   4.972   1.493  14.592  1.2328 -0.5150 -3.8900
 8395TIP3   OH246599   5.751   3.552  12.389  0.0830 -0.4943  0.5221
 8395TIP3    H146600   5.726   3.585  12.475 -2.6256  1.1406 -0.7698
 8395TIP3    H246601   5.777   3.630  12.340  0.2844 -1.2119 -0.5460
 8396TIP3   OH246602   5.216   4.236   4.209 -0.1230  0.2664  0.0976
 8396TIP3    H146603   5.173   4.315   4.176 -0.3519  0.2522  0.3563
 8396TIP3    H246604   5.145   4.172   4.215 -0.0871  0.2733  0.6320
 8397TIP3   OH246605   5.699   6.033  15.460  0.3811  0.5593 -0.5580
 8397TIP3    H146606   5.755   6.051  15.536  0.8544  0.1292 -0.7991
 8397TIP3    H246607   5.752   5.977  15.404 -0.9746 -1.4602  0.0774
 8398TIP3   OH246608   5.278   5.202  11.666 -0.0215  0.2477 -1.0344
 8398TIP3    H146609   5.270   5.183  11.572 -2.9990  0.4512 -0.9208
 8398TIP3    H246610   5.220   5.277  11.680  0.6769  0.4710  0.9168
 8399TIP3   OH246611   1.687   4.798  14.857  0.6887  0.0839 -0.5123
 8399TIP3    H146612   1.624   4.797  14.785  0.4459  0.5178 -0.3084
 8399TIP3    H246613   1.635   4.773  14.934  0.8488  0.0663 -0.4104
 8400TIP3   OH246614   2.012   3.692   5.804 -0.1546  0.3597  0.0819
 8400TIP3    H146615   2.003   3.643   5.722 -1.0033  0.2814  0.2120
 8400TIP3    H246616   2.077   3.759   5.785 -0.4660  0.4434 -0.7071
 8401TIP3   OH246617   6.552   6.072  16.522  0.2690  0.0628 -0.3159
 8401TIP3    H146618   6.601   5.997  16.556 -0.0105  0.4909  1.1233
 8401TIP3    H246619   6.583   6.146  16.574 -1.0067  0.5570 -0.2275
 8402TIP3   OH246620   0.005   1.400   0.727  0.2985 -0.7512  0.2157
 8402TIP3    H146621   0.069   1.429   0.661  1.2151 -0.8684  1.0270
 8402TIP3    H246622  -0.019   1.480   0.773 -0.8738 -0.5604 -0.6939
 8403TIP3   OH246623   1.660   0.341  10.659  0.2890  0.0697 -0.1107
 8403TIP3    H146624   1.574   0.308  10.686  0.7571 -0.1849  1.1151
 8403TIP3    H246625   1.683   0.405  10.725  1.1951 -0.1226 -0.2335
 8404TIP3   OH246626   1.884   6.706   3.485  0.0028  0.2996  0.2893
 8404TIP3    H146627   1.870   6.642   3.415  1.0462 -0.8199  1.0562
 8404TIP3    H246628   1.979   6.704   3.501 -0.0225  1.6190  0.7489
 8405TIP3   OH246629   6.210   4.717   4.942  0.4188  0.2298  0.1567
 8405TIP3    H146630   6.147   4.788   4.932  0.5816  0.2423 -0.9855
 8405TIP3    H246631   6.182   4.670   5.020 -0.2542  0.9820  0.3828
 8406TIP3   OH246632   4.726   0.649   1.641 -0.1761 -0.1456 -0.5095
 8406TIP3    H146633   4.692   0.561   1.626  1.7887 -0.8191 -1.3621
 8406TIP3    H246634   4.711   0.664   1.735 -1.5497 -0.9173 -0.5841
 8407TIP3   OH246635   0.905   6.327   3.403  0.0527 -1.0287 -0.6900
 8407TIP3    H146636   0.890   6.420   3.388  1.4423 -0.8764 -1.2990
 8407TIP3    H246637   0.831   6.299   3.457 -1.2372  0.0504 -1.8319
 8408TIP3   OH246638   5.732   5.149  13.258 -0.3343 -0.2262  0.0519
 8408TIP3    H146639   5.653   5.103  13.229 -0.2866 -0.2027 -0.1170
 8408TIP3    H246640   5.741   5.126  13.350 -2.3135  2.1838  0.9884
 8409TIP3   OH246641   3.951   6.374   5.819  0.9369  0.4291  0.2926
 8409TIP3    H146642   3.926   6.387   5.911  0.0450 -0.9520  0.2692
 8409TIP3    H246643   3.986   6.285   5.817 -2.1555 -0.8664 -1.3040
 8410TIP3   OH246644   1.631   0.803  12.853  0.0050  0.0021 -0.0175
 8410TIP3    H146645   1.659   0.884  12.810 -0.0706 -0.0984 -0.2619
 8410TIP3    H246646   1.546   0.783  12.814 -0.2514  0.1232  0.4765
 8411TIP3   OH246647   0.702   2.196  13.001  0.0766 -0.4296 -0.5522
 8411TIP3    H146648   0.775   2.156  13.047 -0.7308  0.2928  1.4887
 8411TIP3    H246649   0.652   2.122  12.967  0.4891 -1.0267  0.1097
 8412TIP3   OH246650   6.328   2.733  17.047 -0.1153  0.3248 -0.2329
 8412TIP3    H146651   6.313   2.651  17.001 -0.5240  0.5729 -0.5465
 8412TIP3    H246652   6.330   2.708  17.140 -1.8340  0.1688 -0.2005
 8413TIP3   OH246653   3.833   2.879  14.447  0.5352 -0.6576 -0.1714
 8413TIP3    H146654   3.875   2.902  14.365  0.6691 -3.9428 -1.1661
 8413TIP3    H246655   3.785   2.958  14.473  1.7233  0.9576 -2.5599
 8414TIP3   OH246656   1.878   5.080   6.136 -0.4240  0.9748 -0.2552
 8414TIP3    H146657   1.833   5.015   6.190  0.9376 -0.1354 -0.3949
 8414TIP3    H246658   1.905   5.148   6.197 -1.6668  1.3266 -0.0690
 8415TIP3   OH246659   3.040   4.961   3.159  0.7429  0.1693 -0.0605
 8415TIP3    H146660   2.990   5.022   3.214  2.1036  1.4754 -0.2275
 8415TIP3    H246661   2.973   4.909   3.114 -0.4218  0.0228  1.7398
 8416TIP3   OH246662   1.174   4.096  16.734 -0.0299 -0.5305 -0.7833
 8416TIP3    H146663   1.209   4.008  16.729 -1.3028 -1.0413 -1.0168
 8416TIP3    H246664   1.136   4.103  16.822 -0.7475 -0.5423 -1.0851
 8417TIP3   OH246665   1.566   2.155   5.766  0.2921 -0.3838 -0.0107
 8417TIP3    H146666   1.578   2.188   5.855 -0.9540  0.5095 -0.1501
 8417TIP3    H246667   1.479   2.185   5.740  0.0617 -1.8132 -1.0316
 8418TIP3   OH246668   6.399   4.356  11.749  0.4107 -0.9104  0.4537
 8418TIP3    H146669   6.483   4.392  11.719 -0.0119  0.1955  0.5580
 8418TIP3    H246670   6.400   4.371  11.843  0.5630 -1.9117  0.6203
 8419TIP3   OH246671   0.134   6.467  15.103  0.1840  0.4386 -0.6399
 8419TIP3    H146672   0.073   6.490  15.173 -0.6067 -0.8456 -0.8610
 8419TIP3    H246673   0.219   6.497  15.134 -0.6138  2.8901 -0.6179
 8420TIP3   OH246674   6.245   2.144   1.508  0.2786 -0.3670 -0.0952
 8420TIP3    H146675   6.324   2.199   1.511 -1.0084  1.5286  1.4279
 8420TIP3    H246676   6.235   2.111   1.597 -1.3525  0.5433  0.1011
 8421TIP3   OH246677   5.297   6.757  15.810 -1.0672 -0.2155 -0.3496
 8421TIP3    H146678   5.364   6.819  15.839 -0.5141  0.3449 -2.6078
 8421TIP3    H246679   5.275   6.706  15.888  2.9545 -1.3491  0.2772
 8422TIP3   OH246680   3.647   4.713  11.018 -0.0206  0.1290  0.1573
 8422TIP3    H146681   3.594   4.773  10.965 -0.0880  0.9678  1.1410
 8422TIP3    H246682   3.738   4.733  10.994 -0.0031  1.1954  1.0347
 8423TIP3   OH246683   0.328   2.379  12.153  0.5583  0.3878  0.1788
 8423TIP3    H146684   0.394   2.330  12.103 -1.1096 -0.0766 -1.6875
 8423TIP3    H246685   0.366   2.466  12.163  2.9319 -0.7631  2.2415
 8424TIP3   OH246686   2.238   4.820   0.931 -0.6236  0.0798 -0.1203
 8424TIP3    H146687   2.291   4.760   0.880 -1.7082 -1.1853  0.1755
 8424TIP3    H246688   2.296   4.893   0.951  0.1452  0.0820 -2.1751
 8425TIP3   OH246689   5.996   1.405  15.107 -0.4519 -0.7013 -0.2276
 8425TIP3    H146690   5.940   1.329  15.118 -3.6604  1.1970 -1.9358
 8425TIP3    H246691   6.055   1.382  15.035  0.6691 -2.5447  1.2234
 8426TIP3   OH246692   0.531   1.259  16.477  0.6701  0.0752  0.2364
 8426TIP3    H146693   0.573   1.200  16.414 -1.1291 -1.4511  0.3903
 8426TIP3    H246694   0.550   1.220  16.562 -2.2802 -1.5918  0.2388
 8427TIP3   OH246695   1.224   5.989  15.419 -0.3186 -0.5247  0.2627
 8427TIP3    H146696   1.268   5.970  15.502  0.4475 -0.0130 -0.0088
 8427TIP3    H246697   1.200   5.903  15.385 -0.3081 -0.7637  0.8373
 8428TIP3   OH246698   6.203   0.302  13.663 -0.3691  0.0605 -0.4971
 8428TIP3    H146699   6.218   0.392  13.692 -1.0893 -0.5098  1.9675
 8428TIP3    H246700   6.111   0.285  13.687  0.2393 -1.8295  0.7015
 8429TIP3   OH246701   5.045   5.796  14.208  0.0388  0.5745  0.1529
 8429TIP3    H146702   5.122   5.739  14.200 -0.8063 -0.8381  1.6092
 8429TIP3    H246703   5.024   5.822  14.118  0.5929 -1.2285 -0.5221
 8430TIP3   OH246704   6.307   0.655  15.311 -0.0053  0.2235  0.8551
 8430TIP3    H146705   6.358   0.609  15.244 -1.1685  0.3119 -0.1145
 8430TIP3    H246706   6.358   0.734  15.329 -0.3162  0.8607 -0.9177
 8431TIP3   OH246707   5.078   4.823   5.172  0.4257  0.0178  0.2748
 8431TIP3    H146708   5.034   4.738   5.171  0.9834 -0.2949  1.2312
 8431TIP3    H246709   5.037   4.871   5.244 -0.7672  1.0633 -1.0463
 8432TIP3   OH246710   6.245   0.802  16.523 -0.2077  0.1870 -0.8182
 8432TIP3    H146711   6.274   0.715  16.493  1.5386  0.5513 -0.3425
 8432TIP3    H246712   6.298   0.863  16.472 -0.6081  0.9383 -0.3431
 8433TIP3   OH246713   6.240   2.192   3.794  0.3130 -0.5160 -0.3502
 8433TIP3    H146714   6.250   2.271   3.848 -0.0411 -1.1268  0.6305
 8433TIP3    H246715   6.328   2.176   3.759  0.7148 -0.4940  0.6137
 8434TIP3   OH246716   5.290   0.913  10.890  0.4250 -0.1684  0.0967
 8434TIP3    H146717   5.359   0.950  10.835 -0.0835  0.7767  0.0777
 8434TIP3    H246718   5.226   0.983  10.899 -1.7464 -1.7862 -1.8682
 8435TIP3   OH246719   3.695   3.737  14.987  0.6791 -0.1345 -0.3519
 8435TIP3    H146720   3.773   3.785  14.958 -0.6988  2.0916 -0.5499
 8435TIP3    H246721   3.622   3.782  14.946 -1.1856  1.4526  4.1055
 8436TIP3   OH246722   4.086   2.772   0.446  0.3518  0.0635  0.0449
 8436TIP3    H146723   4.056   2.683   0.427 -0.7865  0.2854  0.7139
 8436TIP3    H246724   4.121   2.768   0.535  1.6472 -0.0101 -0.4382
 8437TIP3   OH246725   2.986   2.759   4.593 -0.2022  0.0988 -0.5028
 8437TIP3    H146726   2.998   2.683   4.536  1.6867 -0.4642  0.5463
 8437TIP3    H246727   2.974   2.833   4.534  0.6715 -0.6230 -1.6136
 8438TIP3   OH246728   6.572   0.243  11.349  0.3434 -0.1296  0.4068
 8438TIP3    H146729   6.548   0.294  11.427 -0.2091  3.1775 -1.7734
 8438TIP3    H246730   6.663   0.264  11.333  0.0668  0.3191 -0.6229
 8439TIP3   OH246731   0.011   0.176  13.475  0.8333  0.1069 -0.7259
 8439TIP3    H146732   0.021   0.182  13.380 -0.1864 -1.1958 -0.9376
 8439TIP3    H246733  -0.074   0.217  13.493  0.4027 -0.8285 -0.5525
 8440TIP3   OH246734   2.306   1.315   2.381  0.4755 -0.0491 -0.6170
 8440TIP3    H146735   2.257   1.354   2.454 -0.3251  0.0767 -1.2083
 8440TIP3    H246736   2.320   1.224   2.408  1.5844  0.3835  0.3817
 8441TIP3   OH246737   6.713   3.877  12.374 -0.2035 -0.0517 -0.2761
 8441TIP3    H146738   6.723   3.784  12.393  1.5186  0.3989  1.2616
 8441TIP3    H246739   6.777   3.895  12.306  1.4917  0.5159  1.3934
 8442TIP3   OH246740   0.262   0.632   2.641  0.0002  0.0312 -0.0565
 8442TIP3    H146741   0.281   0.631   2.735  0.0554  0.1657 -0.0653
 8442TIP3    H246742   0.181   0.682   2.633 -0.1515 -0.2196 -0.0542
 8443TIP3   OH246743   5.134   5.820  16.172  0.2454 -0.7864 -0.0297
 8443TIP3    H146744   5.107   5.892  16.114  2.1496  0.8975  1.0637
 8443TIP3    H246745   5.058   5.762  16.174 -2.0029  1.9595  0.2398
 8444TIP3   OH246746   5.098   0.727  12.048  0.0675 -0.3432 -0.2441
 8444TIP3    H146747   5.135   0.811  12.074 -1.9830 -0.2104  2.8413
 8444TIP3    H246748   5.124   0.667  12.118 -2.7796 -0.9318  0.4341
 8445TIP3   OH246749   1.747   5.991  11.467  0.1203 -0.0343  0.5030
 8445TIP3    H146750   1.669   6.013  11.417  0.5272 -0.3610 -0.3036
 8445TIP3    H246751   1.794   6.073  11.477 -0.0168  0.0513  0.4429
 8446TIP3   OH246752   5.361   3.957  10.875  0.2530 -0.2069  0.0868
 8446TIP3    H146753   5.364   3.909  10.791  0.7117  0.3390 -0.2126
 8446TIP3    H246754   5.422   4.029  10.864 -1.4271  1.2774  0.0414
 8447TIP3   OH246755   0.491   5.314   5.378  0.4379 -0.8921 -0.1031
 8447TIP3    H146756   0.538   5.287   5.299  0.1629  1.6696 -1.2579
 8447TIP3    H246757   0.399   5.292   5.360  0.1581  0.8932 -1.1975
 8448TIP3   OH246758   4.124   5.022   5.122  0.1638 -0.3151 -0.6051
 8448TIP3    H146759   4.211   4.987   5.102  1.0230  1.8459 -0.8440
 8448TIP3    H246760   4.139   5.115   5.138 -2.0260 -0.0315  0.0064
 8449TIP3   OH246761   4.076   4.062  12.810  0.9089  0.1382  0.1379
 8449TIP3    H146762   4.160   4.106  12.800  2.4210 -2.1851  1.4754
 8449TIP3    H246763   4.059   4.023  12.725  1.6019  0.0195  0.0424
 8450TIP3   OH246764   0.019   2.682  15.873 -0.4173 -0.3966  0.1717
 8450TIP3    H146765   0.083   2.641  15.931 -0.3774  1.6685  1.7141
 8450TIP3    H246766  -0.028   2.609  15.833  1.3725 -1.9235  0.7458
 8451TIP3   OH246767   2.297   2.705   3.678  0.3237 -0.1346  0.2486
 8451TIP3    H146768   2.262   2.626   3.720  1.5599 -0.3991  0.8232
 8451TIP3    H246769   2.249   2.776   3.720 -1.4313 -0.5733 -0.8888
 8452TIP3   OH246770   0.046   3.156  12.272  0.0965  0.7277  0.5296
 8452TIP3    H146771   0.089   3.143  12.356  0.3006 -0.9631  0.2169
 8452TIP3    H246772   0.115   3.189  12.214  0.0264  1.6145  0.9487
 8453TIP3   OH246773   0.512   3.365   1.447 -0.0685  0.1810 -0.0496
 8453TIP3    H146774   0.518   3.272   1.467  0.8046 -0.4633 -2.8923
 8453TIP3    H246775   0.457   3.401   1.517 -0.2462 -2.3944  1.2468
 8454TIP3   OH246776   5.690   4.777  12.374  0.0313  0.1177  0.1075
 8454TIP3    H146777   5.738   4.843  12.424 -0.9565  0.0632  1.1848
 8454TIP3    H246778   5.644   4.826  12.306  0.1215  0.4037  0.2536
 8455TIP3   OH246779   5.906   5.632   3.720  0.5047 -0.5727  0.0941
 8455TIP3    H146780   5.841   5.602   3.657  0.6198  0.2445 -0.4279
 8455TIP3    H246781   5.954   5.702   3.675  1.0291 -0.4243  0.8487
 8456TIP3   OH246782   0.290   5.426  12.241 -0.0576 -0.3652  0.0661
 8456TIP3    H146783   0.282   5.332  12.226  0.6908 -0.8480  2.2429
 8456TIP3    H246784   0.201   5.456  12.257 -0.4187 -0.4799 -1.5776
 8457TIP3   OH246785   2.090   1.251  13.313  0.1843 -0.3507  0.4892
 8457TIP3    H146786   2.064   1.183  13.251 -1.1371  1.1619 -0.7188
 8457TIP3    H246787   2.126   1.204  13.388  0.0402 -2.3204 -0.6211
 8458TIP3   OH246788   3.718   0.374   1.215 -0.1507 -0.6194  0.2129
 8458TIP3    H146789   3.715   0.325   1.133 -0.0268  2.8062 -2.0688
 8458TIP3    H246790   3.649   0.440   1.206 -0.8461 -0.7377  3.4013
 8459TIP3   OH246791   4.846   5.447  12.662  0.2672 -0.5405 -0.2727
 8459TIP3    H146792   4.853   5.418  12.571  1.3948 -0.4808 -0.2282
 8459TIP3    H246793   4.937   5.448  12.693  0.3077  2.6253 -0.1637
 8460TIP3   OH246794   5.708   4.076  13.090  0.2405 -0.0581  0.3852
 8460TIP3    H146795   5.781   4.132  13.067 -0.4597  0.3979 -0.8013
 8460TIP3    H246796   5.649   4.132  13.140 -0.6355  0.3982 -1.1196
 8461TIP3   OH246797   2.799   4.378  13.471  0.2389  0.6215  0.1902
 8461TIP3    H146798   2.833   4.449  13.418 -1.4834  0.6688 -0.9120
 8461TIP3    H246799   2.708   4.403  13.491 -0.4265 -1.2521 -0.2634
 8462TIP3   OH246800   0.618   2.584   4.936 -0.4823 -0.0143  0.1167
 8462TIP3    H146801   0.668   2.598   4.855  0.5738 -0.7663  0.6134
 8462TIP3    H246802   0.601   2.673   4.968  3.2754  0.3978  1.5270
 8463TIP3   OH246803   3.872   0.996  11.091  0.1664  0.2646 -0.7244
 8463TIP3    H146804   3.900   1.020  11.003 -0.3625 -1.7324 -1.4987
 8463TIP3    H246805   3.947   0.950  11.128  1.6033  3.7282  1.1659
 8464TIP3   OH246806   1.894   0.466  11.425  0.7387 -0.0800  0.1774
 8464TIP3    H146807   1.940   0.413  11.489 -2.4071 -0.9044  1.9695
 8464TIP3    H246808   1.814   0.417  11.407  0.0487  1.6912 -2.0014
 8465TIP3   OH246809   4.773   0.304   0.927 -0.1848 -0.0098  0.1156
 8465TIP3    H146810   4.697   0.249   0.910 -0.3258  0.4004 -0.6308
 8465TIP3    H246811   4.744   0.393   0.907  0.5504  0.1259 -0.3960
 8466TIP3   OH246812   1.504   4.746  13.076  0.0941 -0.0061 -0.4574
 8466TIP3    H146813   1.500   4.709  12.988 -1.4361 -0.7979 -0.0944
 8466TIP3    H246814   1.415   4.775  13.094  0.7187  1.6022  0.2542
 8467TIP3   OH246815   1.111   3.360   0.893 -0.4636 -0.1782 -0.0628
 8467TIP3    H146816   1.176   3.421   0.859 -1.1800  0.3702 -0.4754
 8467TIP3    H246817   1.070   3.407   0.966  0.2073 -0.8681  0.7841
 8468TIP3   OH246818   2.123   5.930  10.760  0.1286  0.1885 -0.0087
 8468TIP3    H146819   2.089   5.900  10.675  1.7318  1.0527 -1.0065
 8468TIP3    H246820   2.045   5.944  10.813 -0.8742 -1.2387 -1.0355
 8469TIP3   OH246821   4.619   4.598   3.060  0.0087  0.1253 -0.2883
 8469TIP3    H146822   4.593   4.511   3.031  0.0384 -0.6831  1.9035
 8469TIP3    H246823   4.715   4.597   3.055  0.0024  0.0864 -0.4081
 8470TIP3   OH246824   5.486   1.951  16.191 -0.2400 -0.1350  0.7139
 8470TIP3    H146825   5.474   1.905  16.274 -1.6472 -1.0228  0.0534
 8470TIP3    H246826   5.399   1.982  16.168  0.4919  2.0262  0.6132
 8471TIP3   OH246827   3.177   0.989  12.840  0.3005 -0.6011 -0.2428
 8471TIP3    H146828   3.271   1.002  12.856 -0.1429  2.3135  0.6192
 8471TIP3    H246829   3.136   1.004  12.926 -1.2189  3.1564 -1.3980
 8472TIP3   OH246830   5.608   1.623   5.097 -0.3019  0.4990  0.2722
 8472TIP3    H146831   5.701   1.637   5.084  0.0508  0.8455  2.7593
 8472TIP3    H246832   5.566   1.702   5.060  0.3629  0.3791 -0.7700
 8473TIP3   OH246833   3.103   2.995  15.143 -0.4375 -0.0687 -0.1679
 8473TIP3    H146834   3.099   2.969  15.051  0.2395 -0.6461 -0.0514
 8473TIP3    H246835   3.126   3.087  15.142 -2.5205  0.4847 -0.5988
 8474TIP3   OH246836   4.995   2.450   2.041  0.0802 -0.2635  0.1208
 8474TIP3    H146837   4.913   2.401   2.055 -0.4056  0.5230  0.0865
 8474TIP3    H246838   4.985   2.488   1.954  0.4424 -0.0741  0.1611
 8475TIP3   OH246839   4.752   5.652   5.641  0.1335  0.0294  0.4631
 8475TIP3    H146840   4.667   5.621   5.675  0.8955 -2.5767  0.2276
 8475TIP3    H246841   4.782   5.715   5.707 -2.0915  1.3070  0.3768
 8476TIP3   OH246842   3.958   2.801  14.968  0.2026  0.4181  0.2078
 8476TIP3    H146843   3.938   2.875  14.911  0.7106  0.7225  0.4212
 8476TIP3    H246844   3.976   2.839  15.053  1.3049  0.1349  0.1170
 8477TIP3   OH246845   1.372   5.654   3.804 -0.3063  0.0485  0.2498
 8477TIP3    H146846   1.346   5.693   3.887 -0.3595  1.2421 -0.3012
 8477TIP3    H246847   1.441   5.592   3.827  2.2307  2.8750  0.9137
 8478TIP3   OH246848   0.201   1.836  17.154  0.4891  0.1273 -0.1790
 8478TIP3    H146849   0.231   1.883  17.076  0.6448  0.2529 -0.0461
 8478TIP3    H246850   0.253   1.873  17.226  0.1519  0.2085  0.0280
 8479TIP3   OH246851   0.206   5.397   4.060  0.7515  0.1659  0.4520
 8479TIP3    H146852   0.111   5.404   4.069  0.7288  0.6999 -0.2017
 8479TIP3    H246853   0.235   5.360   4.144  0.0232  0.4426  0.8312
 8480TIP3   OH246854   6.232   4.498   2.453 -0.3468  0.3933 -0.3947
 8480TIP3    H146855   6.253   4.493   2.359  0.7554 -0.0128 -0.1508
 8480TIP3    H246856   6.187   4.415   2.471 -1.4300  0.8828 -0.7425
 8481TIP3   OH246857   4.256   5.932   3.305  0.4919 -0.1566  0.1637
 8481TIP3    H146858   4.234   5.840   3.291 -1.3518  0.5102 -1.9330
 8481TIP3    H246859   4.301   5.933   3.390 -0.6308 -2.7826  0.9070
 8482TIP3   OH246860   0.376   4.510   2.938  0.2413 -0.0880 -0.3278
 8482TIP3    H146861   0.441   4.523   3.007  0.7990  0.6222 -0.9676
 8482TIP3    H246862   0.323   4.590   2.940  1.8113  1.1170 -2.3069
 8483TIP3   OH246863   0.581   5.101  15.539 -0.1961 -0.2997  0.5420
 8483TIP3    H146864   0.665   5.134  15.507 -0.7840  0.3826 -0.3390
 8483TIP3    H246865   0.519   5.173  15.523 -1.3735 -1.5570 -0.7774
 8484TIP3   OH246866   5.739   2.604  11.929  0.2152 -0.1092  0.1107
 8484TIP3    H146867   5.670   2.648  11.879  0.7361  3.2525  2.0710
 8484TIP3    H246868   5.797   2.567  11.861 -0.2718  2.2996 -1.7578
 8485TIP3   OH246869   0.767   1.993  15.010  0.0081 -0.0810  0.1101
 8485TIP3    H146870   0.823   1.925  14.973  1.5609  0.5917  1.1144
 8485TIP3    H246871   0.749   2.052  14.937  1.3072  0.1142 -0.0795
 8486TIP3   OH246872   2.547   4.808  16.054 -0.3311 -0.6762 -0.3182
 8486TIP3    H146873   2.498   4.806  15.972 -2.1079  3.1061  0.4092
 8486TIP3    H246874   2.601   4.887  16.048 -1.4057  0.4240  2.4703
 8487TIP3   OH246875   0.876   2.469  14.166 -0.5345  0.4503  0.1614
 8487TIP3    H146876   0.791   2.430  14.142  0.1051  0.1795 -1.8437
 8487TIP3    H246877   0.917   2.402  14.221 -1.2014  0.1523  0.3159
 8488TIP3   OH246878   1.834   0.528   3.526 -0.3786  0.0437 -0.1274
 8488TIP3    H146879   1.758   0.534   3.583  0.8054  0.0064  1.4991
 8488TIP3    H246880   1.805   0.567   3.443 -1.9037  0.7427  0.7080
 8489TIP3   OH246881   1.971   0.285  15.199 -0.3325 -0.0340  0.2395
 8489TIP3    H146882   2.020   0.271  15.281 -2.0437 -0.1692  1.2966
 8489TIP3    H246883   1.994   0.210  15.145  1.4894  0.4789  0.2112
 8490TIP3   OH246884   1.326   2.499   4.328  0.4496  0.3276 -0.2250
 8490TIP3    H146885   1.421   2.501   4.343  0.4997 -0.2732 -0.4382
 8490TIP3    H246886   1.314   2.437   4.257 -0.0198  1.2210 -0.9454
 8491TIP3   OH246887   4.442   6.061  14.629 -0.0216 -0.4642 -0.0674
 8491TIP3    H146888   4.359   6.014  14.632 -0.1227 -0.2341  1.0913
 8491TIP3    H246889   4.417   6.154  14.632  0.2012 -0.3104 -1.7483
 8492TIP3   OH246890   2.160   1.220  14.803 -0.2639 -0.3840 -0.2154
 8492TIP3    H146891   2.154   1.314  14.790  1.5913 -0.3740 -1.3488
 8492TIP3    H246892   2.161   1.183  14.714  2.9831 -1.1115  0.0232
 8493TIP3   OH246893   0.637   0.460  16.204  0.0583 -0.4706 -0.1034
 8493TIP3    H146894   0.687   0.513  16.265  0.0030 -1.1552  0.5593
 8493TIP3    H246895   0.676   0.373  16.211 -0.6074 -0.7899 -0.2883
 8494TIP3   OH246896   2.029   3.137  12.813 -0.4761 -0.2061 -0.4959
 8494TIP3    H146897   2.115   3.104  12.839 -0.2836 -1.3631 -2.3776
 8494TIP3    H246898   1.967   3.094  12.873  0.2737  1.8275  1.9085
 8495TIP3   OH246899   3.264   1.746   1.513 -0.2620 -0.4072  0.3527
 8495TIP3    H146900   3.314   1.758   1.594  0.4718  1.5643 -0.3278
 8495TIP3    H246901   3.182   1.793   1.529 -0.1599 -0.1086  0.0022
 8496TIP3   OH246902   3.989   5.753  13.358  0.5105 -0.6477 -0.5994
 8496TIP3    H146903   3.910   5.807  13.355 -1.3044 -3.0976 -0.9513
 8496TIP3    H246904   4.005   5.740  13.451  2.0527  1.8470 -0.4531
 8497TIP3   OH246905   2.222   3.183   5.102  0.1529  0.1588  0.5527
 8497TIP3    H146906   2.287   3.251   5.083 -0.1383  0.4767  0.6619
 8497TIP3    H246907   2.164   3.224   5.167 -0.2472 -0.0609  0.3370
 8498TIP3   OH246908   2.439   0.981   5.904 -0.1136 -0.4826  0.0855
 8498TIP3    H146909   2.375   0.920   5.866  0.9225 -0.5936 -1.5894
 8498TIP3    H246910   2.409   1.068   5.875 -0.6073 -0.3310  1.0044
 8499TIP3   OH246911   5.541   5.272   2.346 -0.2050  0.0283  0.6590
 8499TIP3    H146912   5.582   5.347   2.303  1.0051 -0.8028  0.3172
 8499TIP3    H246913   5.603   5.201   2.335 -1.4216 -1.0949  0.7999
 8500TIP3   OH246914   3.849   1.192   4.981  0.1222 -0.1725  0.6256
 8500TIP3    H146915   3.798   1.248   4.923  0.6190  1.1060  1.3880
 8500TIP3    H246916   3.871   1.116   4.927 -2.2389 -0.6151  0.1599
 8501TIP3   OH246917   2.186   2.129   4.585  0.2579 -0.7631 -0.2385
 8501TIP3    H146918   2.280   2.143   4.575  0.0025  0.3109 -1.2782
 8501TIP3    H246919   2.153   2.212   4.620 -0.7456  0.0463 -2.9165
 8502TIP3   OH246920   1.856   5.373  16.204  0.0869  0.6364  0.1143
 8502TIP3    H146921   1.902   5.432  16.144  3.3096 -0.2056  1.5516
 8502TIP3    H246922   1.832   5.427  16.279  1.0971  0.6048  0.4774
 8503TIP3   OH246923   1.600   5.507   6.105  0.0018  0.0349 -0.4628
 8503TIP3    H146924   1.578   5.453   6.180 -1.7130 -0.7761 -1.4963
 8503TIP3    H246925   1.680   5.468   6.069 -1.3542 -2.0925 -1.3702
 8504TIP3   OH246926   6.039   1.858  11.929  0.2000 -0.0235  0.1207
 8504TIP3    H146927   5.959   1.910  11.920  1.0888  1.3119 -0.3809
 8504TIP3    H246928   6.083   1.867  11.844  0.3226 -1.7405 -0.0372
 8505TIP3   OH246929   1.352   1.789   4.919 -1.0359  0.2461  0.0548
 8505TIP3    H146930   1.431   1.770   4.869  0.5045 -2.2288  2.9926
 8505TIP3    H246931   1.282   1.795   4.854  0.5647 -3.7456 -2.4304
 8506TIP3   OH246932   3.833   5.721   2.247  0.1390  0.1269  0.4036
 8506TIP3    H146933   3.836   5.817   2.249 -1.2671  0.2403 -1.2354
 8506TIP3    H246934   3.904   5.697   2.187 -0.5618  0.2659 -0.5123
 8507TIP3   OH246935   3.325   0.294   3.481 -0.0546  0.1088 -0.1964
 8507TIP3    H146936   3.336   0.370   3.538 -1.3940  0.1853  0.0066
 8507TIP3    H246937   3.413   0.272   3.452  0.5421  0.6823  1.1084
 8508TIP3   OH246938   6.251   2.440   2.182 -0.2781 -0.0022 -0.4548
 8508TIP3    H146939   6.277   2.450   2.090 -2.8371 -0.6236 -1.3329
 8508TIP3    H246940   6.298   2.510   2.228  1.8055 -0.2644 -2.0387
 8509TIP3   OH246941   0.106   1.542  12.146 -0.3353 -0.4800 -0.3432
 8509TIP3    H146942   0.158   1.602  12.094 -1.1357  0.9372  0.4422
 8509TIP3    H246943   0.153   1.458  12.140  0.7710  0.1914 -1.4885
 8510TIP3   OH246944   1.522   1.934   4.090 -0.1066  0.4752 -0.1163
 8510TIP3    H146945   1.436   1.899   4.116 -0.4461  1.0286 -0.4661
 8510TIP3    H246946   1.584   1.866   4.117 -0.5034  0.6766  1.4627
 8511TIP3   OH246947   4.589   1.473  10.982 -0.4906  0.4683 -0.0402
 8511TIP3    H146948   4.581   1.466  10.887  1.4074 -1.5256 -0.1285
 8511TIP3    H246949   4.573   1.385  11.014  0.0980  0.8550  1.3906
 8512TIP3   OH246950   6.237   6.246   6.044 -0.0038 -0.6814 -0.3909
 8512TIP3    H146951   6.261   6.254   6.137 -0.4011  2.1671 -0.4481
 8512TIP3    H246952   6.316   6.272   5.997  0.1955 -2.1230 -0.9094
 8513TIP3   OH246953   3.061   3.210  16.197 -0.4976 -0.4398 -0.0948
 8513TIP3    H146954   3.059   3.305  16.201 -2.4677 -0.4907  1.0894
 8513TIP3    H246955   3.084   3.182  16.286 -0.7469 -1.0903 -0.2273
 8514TIP3   OH246956   3.342   3.207   1.260 -0.6516 -0.1918 -0.0958
 8514TIP3    H146957   3.259   3.161   1.272 -0.2990 -0.5918  1.0195
 8514TIP3    H246958   3.321   3.282   1.205 -1.8332 -0.0508  0.5177
 8515TIP3   OH246959   2.809   5.392   3.860  0.8392 -0.2191  0.1877
 8515TIP3    H146960   2.837   5.302   3.841  1.1477 -0.5910  2.1939
 8515TIP3    H246961   2.889   5.436   3.889  0.6577  0.6693 -0.6415
 8516TIP3   OH246962   1.926   6.353  15.134 -0.2369  0.2877  0.0085
 8516TIP3    H146963   2.002   6.296  15.143 -0.5268 -0.0181  0.5985
 8516TIP3    H246964   1.953   6.435  15.175  0.2018  0.6036 -0.8945
 8517TIP3   OH246965   5.365   2.646  14.847  0.4542 -0.4272  0.0754
 8517TIP3    H146966   5.435   2.696  14.890  0.4499 -1.1447  0.9363
 8517TIP3    H246967   5.310   2.615  14.918  0.4038 -1.5820 -0.4470
 8518TIP3   OH246968   0.967   0.016  13.944  0.2609 -0.0142  1.0451
 8518TIP3    H146969   1.042   0.075  13.938 -0.5503  0.9610  0.0150
 8518TIP3    H246970   0.891   0.074  13.941 -0.6135 -1.1402 -1.7160
 8519TIP3   OH246971   0.157   1.230  13.359  0.1985  0.3404 -0.5693
 8519TIP3    H146972   0.157   1.194  13.448  0.4070 -0.1893 -0.7802
 8519TIP3    H246973   0.248   1.254  13.343  0.2599 -0.0816 -0.8470
 8520TIP3   OH246974   3.982   1.291   0.174 -0.0453  0.5215 -0.0856
 8520TIP3    H146975   3.960   1.245   0.255  0.9213 -2.0043 -1.1580
 8520TIP3    H246976   3.969   1.384   0.195 -0.5939 -0.0879  2.6826
 8521TIP3   OH246977   0.036   4.669   0.316  0.4326  0.5402 -0.4986
 8521TIP3    H146978  -0.046   4.624   0.297  0.5909  0.6911 -1.5837
 8521TIP3    H246979   0.094   4.600   0.347 -0.9529  0.8368  3.3720
 8522TIP3   OH246980   4.089   4.124   4.766  0.0880  0.0589  0.0374
 8522TIP3    H146981   4.040   4.108   4.685 -0.3257  0.0878  0.2797
 8522TIP3    H246982   4.180   4.104   4.743 -0.1208 -0.6087 -0.2436
 8523TIP3   OH246983   1.499   4.175  16.791 -0.0566  0.1528  0.5112
 8523TIP3    H146984   1.440   4.102  16.812  0.0773 -0.6059 -1.5267
 8523TIP3    H246985   1.450   4.253  16.816 -2.4553 -0.3880 -1.9832
 8524TIP3   OH246986   6.433   2.413  15.540 -0.0470  0.3628 -0.0639
 8524TIP3    H146987   6.439   2.468  15.462  1.5602  2.6511  1.5362
 8524TIP3    H246988   6.355   2.445  15.586 -0.9056 -0.8792 -0.6061
 8525TIP3   OH246989   6.333   3.034  14.696 -0.7052  0.4844  0.5761
 8525TIP3    H146990   6.255   3.089  14.692 -0.6914  0.4688 -0.1698
 8525TIP3    H246991   6.319   2.969  14.626 -0.5101 -0.1712  1.1340
 8526TIP3   OH246992   1.571   6.374  11.264 -0.2586 -0.5026  0.1930
 8526TIP3    H146993   1.616   6.289  11.264 -0.5873 -0.6941 -0.7198
 8526TIP3    H246994   1.636   6.436  11.294  0.5707 -0.8139 -0.8876
 8527TIP3   OH246995   5.811   4.299   4.045  0.1984  0.0797  0.2530
 8527TIP3    H146996   5.897   4.324   4.012  0.3898 -1.0465 -0.1535
 8527TIP3    H246997   5.771   4.381   4.073  1.6277  0.5624  0.9990
 8528TIP3   OH246998   0.958   4.137  15.711 -0.1530  0.6862 -0.1051
 8528TIP3    H146999   1.020   4.129  15.783  0.2397 -0.5076 -0.5533
 8528TIP3    H247000   1.010   4.120  15.632 -0.3963  2.7578 -0.7746
 8529TIP3   OH247001   5.985   1.818   0.913  0.1275 -0.2254  0.0984
 8529TIP3    H147002   6.010   1.909   0.923 -0.2908 -0.1594  0.5862
 8529TIP3    H247003   6.025   1.791   0.830 -0.6751  0.7118 -0.6223
 8530TIP3   OH247004   3.447   1.786   3.920  0.2479  0.6318  0.2207
 8530TIP3    H147005   3.399   1.734   3.985 -1.4296  0.1428 -1.3072
 8530TIP3    H247006   3.493   1.852   3.971 -1.1276  0.3585  1.9081
 8531TIP3   OH247007   0.213   4.491  16.857 -0.1492 -0.1160  0.5073
 8531TIP3    H147008   0.229   4.398  16.869 -0.0610 -0.7188 -3.1162
 8531TIP3    H247009   0.300   4.530  16.852 -0.1687 -0.0263  0.8485
 8532TIP3   OH247010   0.701   0.987   0.566 -1.0372 -0.3931  0.3318
 8532TIP3    H147011   0.705   1.014   0.657  0.5425  0.6275 -0.0168
 8532TIP3    H247012   0.778   0.932   0.553  0.9017  2.4163 -1.2371
 8533TIP3   OH247013   6.290   2.770  14.013  0.0381 -0.1090  0.5454
 8533TIP3    H147014   6.370   2.819  14.026 -0.8601  1.8078 -0.7382
 8533TIP3    H247015   6.239   2.785  14.093 -0.4239  1.5005 -0.0235
 8534TIP3   OH247016   6.065   4.376   5.354  0.0187  0.7981 -0.0079
 8534TIP3    H147017   6.027   4.463   5.353 -0.0199  0.7874  0.3911
 8534TIP3    H247018   6.132   4.377   5.285  0.3271  1.2789  0.2958
 8535TIP3   OH247019   3.139   2.376   1.342  0.0384  0.1890 -0.2051
 8535TIP3    H147020   3.059   2.323   1.336  0.8185 -0.9028 -2.5352
 8535TIP3    H247021   3.209   2.312   1.357  0.5408  1.1153  1.7131
 8536TIP3   OH247022   6.608   3.711   3.036 -0.0401  0.0928  0.1102
 8536TIP3    H147023   6.537   3.734   3.096 -1.4001  1.8182 -2.0189
 8536TIP3    H247024   6.681   3.768   3.061 -1.1985  2.1421 -0.9086
 8537TIP3   OH247025   6.335   1.692  16.421  0.5627  1.1906  0.3715
 8537TIP3    H147026   6.408   1.629  16.425 -1.9599 -1.9955  0.6889
 8537TIP3    H247027   6.297   1.678  16.335 -0.4966  1.7329  0.7377
 8538TIP3   OH247028   1.952   5.611  12.490  0.0358 -0.1992  0.2431
 8538TIP3    H147029   1.885   5.673  12.458 -1.0632 -0.9203  1.0645
 8538TIP3    H247030   2.027   5.666  12.513 -0.2347  0.6257 -0.7786
 8539TIP3   OH247031   4.144   6.159   0.613  0.1389  0.3696 -0.0787
 8539TIP3    H147032   4.147   6.076   0.566 -2.4314 -0.4252  0.9466
 8539TIP3    H247033   4.062   6.155   0.663  0.2152  3.2733  0.4868
 8540TIP3   OH247034   2.872   5.467  13.871  0.7532 -0.4973  0.0221
 8540TIP3    H147035   2.958   5.487  13.833  0.0236 -1.0268 -2.0032
 8540TIP3    H247036   2.854   5.541  13.930  0.9577  1.6009 -2.3798
 8541TIP3   OH247037   3.005   2.509  15.762 -0.0728  0.8160 -0.0156
 8541TIP3    H147038   2.913   2.537  15.759 -0.5186 -0.3460  1.4600
 8541TIP3    H247039   3.015   2.452  15.686 -1.0189 -0.2491  0.6352
 8542TIP3   OH247040   4.421   4.746   1.751 -0.0229  0.4551 -0.4045
 8542TIP3    H147041   4.409   4.693   1.830  0.0307 -0.8430 -1.2469
 8542TIP3    H247042   4.516   4.753   1.742 -0.0107 -0.2568 -0.9002
 8543TIP3   OH247043   3.090   0.857  11.488  0.5537 -0.5206  0.2507
 8543TIP3    H147044   3.033   0.824  11.558  2.3901 -1.2139  1.4918
 8543TIP3    H247045   3.140   0.928  11.529 -0.4047  1.0702 -1.2361
 8544TIP3   OH247046   4.442   2.240   2.980  0.3154 -0.1975 -0.4386
 8544TIP3    H147047   4.390   2.295   2.922 -1.2029 -2.0527 -0.9744
 8544TIP3    H247048   4.438   2.153   2.939  0.2119 -1.3085  1.7983
 8545TIP3   OH247049   1.179   1.596  15.553  0.3558  0.4204 -0.2940
 8545TIP3    H147050   1.238   1.576  15.480 -0.6679 -1.7197 -0.6246
 8545TIP3    H247051   1.225   1.565  15.631  0.4019  0.3684 -0.3425
 8546TIP3   OH247052   2.226   2.206   3.893  0.0008 -0.1681 -0.2408
 8546TIP3    H147053   2.306   2.175   3.851  0.4558 -0.4410  0.7973
 8546TIP3    H247054   2.220   2.155   3.974 -0.5085  0.7800  0.3405
 8547TIP3   OH247055   0.359   1.927  12.082 -0.3029  0.0110  0.1823
 8547TIP3    H147056   0.394   1.984  12.150 -1.1114  0.9017 -0.1390
 8547TIP3    H247057   0.361   1.839  12.122  0.2467  0.3579  0.9469
 8548TIP3   OH247058   4.948   6.215   2.460 -0.2027  0.2069 -0.3338
 8548TIP3    H147059   5.041   6.236   2.457  0.0565 -0.8505 -0.1180
 8548TIP3    H247060   4.907   6.291   2.502  0.6984  0.2438  0.5050
 8549TIP3   OH247061   3.691   1.050  14.473 -0.7128 -0.1322 -0.2203
 8549TIP3    H147062   3.694   0.955  14.488 -1.3210 -0.0641  0.3453
 8549TIP3    H247063   3.781   1.079  14.489 -0.1295 -0.8310 -1.9644
 8550TIP3   OH247064   3.947   3.626  16.256  0.0625  0.6744 -0.8286
 8550TIP3    H147065   3.891   3.560  16.214  1.1224  0.1731 -1.4773
 8550TIP3    H247066   3.981   3.678  16.183  0.4109  1.0145 -0.4250
 8551TIP3   OH247067   3.334   4.911   0.214  0.0674  0.1362  0.5952
 8551TIP3    H147068   3.287   4.992   0.193  0.0638 -0.1291 -0.4462
 8551TIP3    H247069   3.425   4.930   0.189  0.3246  0.2725  1.5919
 8552TIP3   OH247070   5.923   1.188   4.263 -0.3984 -0.1274  0.2639
 8552TIP3    H147071   5.863   1.257   4.233  0.3241  0.7709  0.8153
 8552TIP3    H247072   5.956   1.220   4.347  0.4133 -0.8699  0.2395
 8553TIP3   OH247073   6.062   5.283  14.467  0.6666 -0.0285 -0.2440
 8553TIP3    H147074   6.000   5.214  14.490  1.4584 -0.2654  1.3097
 8553TIP3    H247075   6.139   5.266  14.522  1.5692  1.0633 -1.1160
 8554TIP3   OH247076   4.884   1.893   6.125  0.2947  0.4879  0.0141
 8554TIP3    H147077   4.937   1.902   6.205 -2.2289  0.5309  1.8045
 8554TIP3    H247078   4.835   1.812   6.138 -3.1961  2.4708  0.5449
 8555TIP3   OH247079   3.100   0.060   1.235 -0.4133 -0.6587  0.0052
 8555TIP3    H147080   3.080   0.087   1.325  0.8550 -0.1607  0.1632
 8555TIP3    H247081   3.170  -0.004   1.245  0.8372  0.5506 -0.6891
 8556TIP3   OH247082   5.994   0.415   1.795 -0.1825  0.0772 -0.3631
 8556TIP3    H147083   5.919   0.370   1.834 -0.4905  1.1739  0.3617
 8556TIP3    H247084   5.968   0.434   1.705 -0.0719 -1.1066 -0.6601
 8557TIP3   OH247085   6.460   4.800  14.495 -0.7157 -0.3299 -0.3535
 8557TIP3    H147086   6.444   4.848  14.576  2.8821  1.7843 -0.6453
 8557TIP3    H247087   6.506   4.721  14.523 -1.4648 -0.7208 -0.2174
 8558TIP3   OH247088   1.321   4.765   1.143 -0.8391 -0.0583  0.2933
 8558TIP3    H147089   1.286   4.707   1.075 -1.0611 -1.0847  1.2576
 8558TIP3    H247090   1.245   4.814   1.173 -0.8961 -0.1756  0.3440
 8559TIP3   OH247091   0.151   0.408  15.867 -0.1886 -0.6056 -0.2822
 8559TIP3    H147092   0.234   0.368  15.841 -0.0119  0.0222 -0.7170
 8559TIP3    H247093   0.151   0.493  15.824 -0.0734  0.3267  1.4925
 8560TIP3   OH247094   2.446   1.698  15.792 -0.4052  0.0136 -0.5022
 8560TIP3    H147095   2.533   1.706  15.754  0.2063  1.3062  1.0704
 8560TIP3    H247096   2.425   1.787  15.823 -0.9278 -0.9170  1.9927
 8561TIP3   OH247097   1.501   1.390   6.356  0.2906  0.0492  0.0689
 8561TIP3    H147098   1.547   1.378   6.439  2.0610 -1.9216 -1.0976
 8561TIP3    H247099   1.474   1.301   6.330  0.2526  0.5398 -1.7077
 8562TIP3   OH247100   0.456   4.650   2.112  0.1972 -0.1466  0.2589
 8562TIP3    H147101   0.406   4.603   2.046  0.7806  0.1871 -0.4473
 8562TIP3    H247102   0.533   4.683   2.064  0.3282  0.6100  0.9678
 8563TIP3   OH247103   5.722   1.867  17.037 -0.3940  0.0230  0.1332
 8563TIP3    H147104   5.780   1.812  17.090 -0.5710  0.2014  0.5176
 8563TIP3    H247105   5.638   1.821  17.037 -0.1834 -0.3742 -0.6523
 8564TIP3   OH247106   4.976   2.770  14.412  0.0549 -0.5476  0.4322
 8564TIP3    H147107   5.025   2.801  14.488 -0.6774 -1.3089  1.2399
 8564TIP3    H247108   4.886   2.760  14.444 -0.1062 -1.6444 -0.3100
 8565TIP3   OH247109   4.738   4.444   2.037  0.0147  0.2234  0.2936
 8565TIP3    H147110   4.784   4.524   2.062  0.9660 -0.8418  2.1322
 8565TIP3    H247111   4.792   4.406   1.968  0.8313  0.0181  1.0260
 8566TIP3   OH247112   4.288   6.091  17.106 -0.1074 -0.1812 -0.9467
 8566TIP3    H147113   4.315   6.097  17.198  1.8083 -1.2353 -1.3959
 8566TIP3    H247114   4.299   6.179  17.072 -0.7862  0.2106 -0.1921
 8567TIP3   OH247115   4.501   6.564   0.271  0.0294  0.1804  0.4356
 8567TIP3    H147116   4.408   6.543   0.274  0.2009 -0.6024  0.5788
 8567TIP3    H247117   4.537   6.524   0.351  0.9909 -2.1596 -1.0757
 8568TIP3   OH247118   3.599   2.168   0.952  0.0878  0.7018 -0.4580
 8568TIP3    H147119   3.536   2.110   0.908  0.5005  0.6532 -1.0031
 8568TIP3    H247120   3.582   2.254   0.912  0.4517  0.6611 -0.7051
 8569TIP3   OH247121   0.074   0.169  10.538  0.1796  0.1747  0.2848
 8569TIP3    H147122   0.035   0.256  10.526  0.9397  0.7082  1.4597
 8569TIP3    H247123   0.091   0.139  10.449 -0.6287  0.9791 -0.1635
 8570TIP3   OH247124   3.593   6.468   1.286  0.3756  0.0760 -0.1610
 8570TIP3    H147125   3.613   6.385   1.330 -0.7542 -0.1549 -0.0490
 8570TIP3    H247126   3.670   6.522   1.301  0.2876 -0.2295  1.5677
 8571TIP3   OH247127   5.211   5.028   2.950  0.8741  0.3660  0.0405
 8571TIP3    H147128   5.293   5.066   2.919  1.2003 -1.1968 -1.1488
 8571TIP3    H247129   5.146   5.097   2.937  1.3316  0.3981 -2.5376
 8572TIP3   OH247130   3.688   5.868   5.507 -0.4129 -0.1629  0.0250
 8572TIP3    H147131   3.765   5.831   5.550  0.3848  1.6381  0.2270
 8572TIP3    H247132   3.709   5.863   5.413  0.2606  0.9268  0.1060
 8573TIP3   OH247133   4.124   0.506   2.103 -0.2976  0.3649  0.9511
 8573TIP3    H147134   4.103   0.413   2.111 -0.8674  0.4488  0.4825
 8573TIP3    H247135   4.143   0.534   2.192  2.3312 -0.7552  0.8387
 8574TIP3   OH247136   0.925   4.470  12.837 -0.1149 -0.6030  0.5167
 8574TIP3    H147137   0.854   4.503  12.783 -0.6562  0.0026  1.5746
 8574TIP3    H247138   0.883   4.444  12.919  0.5416 -2.3955  0.3398
 8575TIP3   OH247139   4.645   5.087   1.370 -0.0977 -0.2097 -0.8414
 8575TIP3    H147140   4.598   5.170   1.364 -0.2593 -0.2964 -0.7865
 8575TIP3    H247141   4.597   5.037   1.436  1.0184  0.3131  0.3959
 8576TIP3   OH247142   0.015   6.227  16.522  0.0707  0.0239  0.5083
 8576TIP3    H147143   0.080   6.156  16.526 -0.4188 -0.4468  0.2524
 8576TIP3    H247144   0.067   6.307  16.518  0.6396 -0.2835  1.3511
 8577TIP3   OH247145   2.494   1.868   1.171  0.2838  0.0352 -0.6885
 8577TIP3    H147146   2.415   1.865   1.117 -0.2740 -0.3961  0.1237
 8577TIP3    H247147   2.562   1.831   1.116 -0.4837 -1.3164 -0.7772
 8578TIP3   OH247148   6.278   3.063   2.229  0.0477 -0.7801 -0.0063
 8578TIP3    H147149   6.185   3.039   2.233 -0.0582 -0.9363 -2.3057
 8578TIP3    H247150   6.281   3.134   2.165  1.3814  0.0406  0.9394
 8579TIP3   OH247151   5.577   6.316  14.971  0.8382 -0.4033  0.0502
 8579TIP3    H147152   5.553   6.247  15.032 -0.0053 -1.9147 -1.8740
 8579TIP3    H247153   5.515   6.387  14.988 -0.2542 -1.3376  0.0655
 8580TIP3   OH247154   4.676   0.488   5.831 -0.3661 -0.0660  0.2419
 8580TIP3    H147155   4.588   0.451   5.841 -0.1457 -0.3884  1.0224
 8580TIP3    H247156   4.722   0.462   5.910 -0.1538  1.7575  0.7505
 8581TIP3   OH247157   0.757   6.188  10.853 -0.1507  0.1802  0.3580
 8581TIP3    H147158   0.664   6.169  10.841 -0.0390 -0.8208  0.9968
 8581TIP3    H247159   0.786   6.126  10.920  1.3256 -0.5252 -0.8691
 8582TIP3   OH247160   1.641   5.625   1.162 -0.2811 -0.5311 -0.5258
 8582TIP3    H147161   1.716   5.599   1.109  0.0394  0.9083 -0.8045
 8582TIP3    H247162   1.614   5.709   1.126 -0.2681  0.3163  1.3674
 8583TIP3   OH247163   2.989   5.563  15.624 -0.0395  0.3291  0.9347
 8583TIP3    H147164   2.994   5.605  15.710 -1.7628  2.7385 -0.0354
 8583TIP3    H247165   3.006   5.633  15.562 -0.3707 -1.0162 -0.7642
 8584TIP3   OH247166   0.415   5.643  15.351 -0.5932 -0.4566  0.2095
 8584TIP3    H147167   0.362   5.585  15.406 -1.0317 -0.7781 -0.5466
 8584TIP3    H247168   0.442   5.588  15.278  0.2946 -0.1280  0.2819
 8585TIP3   OH247169   4.612   2.672   4.772  0.3743  0.1946 -0.0290
 8585TIP3    H147170   4.635   2.745   4.715 -1.5716  0.8027 -0.0995
 8585TIP3    H247171   4.644   2.595   4.725  0.8337  0.8515 -0.8316
 8586TIP3   OH247172   5.626   3.867  16.152  0.1320 -0.0347  0.1364
 8586TIP3    H147173   5.720   3.850  16.156  0.0880 -0.5298 -0.6038
 8586TIP3    H247174   5.586   3.781  16.167 -0.1797  0.0188 -0.3549
 8587TIP3   OH247175   5.841   3.846  13.551  0.1640  0.3111 -0.0962
 8587TIP3    H147176   5.917   3.795  13.524  0.8676 -0.1541  2.5223
 8587TIP3    H247177   5.797   3.792  13.616 -1.9089  0.9905 -0.8602
 8588TIP3   OH247178   5.583   1.457   4.789 -0.2198 -0.1223  0.2876
 8588TIP3    H147179   5.670   1.451   4.829 -0.1350 -0.3281  0.0713
 8588TIP3    H247180   5.591   1.410   4.706 -0.8110 -1.0309  0.7313
 8589TIP3   OH247181   6.764   1.372   3.903  0.0671  0.0437  0.5617
 8589TIP3    H147182   6.753   1.279   3.921 -1.1016  0.0783  0.1249
 8589TIP3    H247183   6.675   1.404   3.889  0.5170  1.0808 -0.0223
 8590TIP3   OH247184   1.941   4.890  14.820  0.2101 -0.2126  0.1615
 8590TIP3    H147185   1.927   4.934  14.736 -0.0317  0.7350  0.6765
 8590TIP3    H247186   1.867   4.831  14.829  1.2032 -1.7210 -1.1309
 8591TIP3   OH247187   5.626   2.634  13.445 -0.3063  0.2484  0.0207
 8591TIP3    H147188   5.670   2.590  13.518 -0.4472 -1.6825 -0.9942
 8591TIP3    H247189   5.695   2.646  13.379 -0.6841 -0.2293 -0.4698
 8592TIP3   OH247190   3.393   5.239  15.480 -0.6001 -0.5720  0.1004
 8592TIP3    H147191   3.449   5.165  15.457 -0.1822  0.1093 -1.1636
 8592TIP3    H247192   3.425   5.311  15.425 -2.2769  0.0146 -0.1431
 8593TIP3   OH247193   1.835   6.150   2.169 -0.1018  0.9975  0.4231
 8593TIP3    H147194   1.761   6.153   2.231  0.9779 -0.4121  1.8881
 8593TIP3    H247195   1.895   6.086   2.208  1.4379  1.3634 -1.2414
 8594TIP3   OH247196   0.358   5.653   5.811 -0.4540 -0.0019  0.2732
 8594TIP3    H147197   0.382   5.593   5.740 -0.0763  1.8172 -1.2025
 8594TIP3    H247198   0.382   5.606   5.891 -0.3349 -1.8701 -0.8053
 8595TIP3   OH247199   6.084   3.103  13.128 -0.4761  0.0019  0.0780
 8595TIP3    H147200   6.027   3.107  13.205 -1.2017 -1.2812 -0.3633
 8595TIP3    H247201   6.122   3.016  13.131  0.0511  0.1984 -0.6372
 8596TIP3   OH247202   2.132   5.178   5.461  0.0726  0.0504  0.5959
 8596TIP3    H147203   2.130   5.155   5.368  0.3247  0.0721  0.5826
 8596TIP3    H247204   2.195   5.117   5.499 -0.6992 -0.5439  0.9243
 8597TIP3   OH247205   0.542   5.604  12.012  0.1583  0.4443  0.8278
 8597TIP3    H147206   0.573   5.652  12.088  0.6457  1.0520  0.2563
 8597TIP3    H247207   0.614   5.544  11.991  1.1194  2.0041 -0.6287
 8598TIP3   OH247208   3.625   2.546   1.505  0.7923  0.4063 -0.1063
 8598TIP3    H147209   3.703   2.529   1.452  3.0004  0.9591  2.7382
 8598TIP3    H247210   3.565   2.474   1.483  2.8408 -1.0928 -1.0805
 8599TIP3   OH247211   0.413   3.775  15.198 -0.1648  0.6376  0.0512
 8599TIP3    H147212   0.370   3.853  15.162 -2.3875 -0.7481 -0.5082
 8599TIP3    H247213   0.374   3.764  15.285 -0.3766 -0.1791 -0.1348
 8600TIP3   OH247214   5.303   3.744  11.990 -0.2709 -0.1971  0.1077
 8600TIP3    H147215   5.249   3.671  11.962 -2.2151  1.6515 -1.3345
 8600TIP3    H247216   5.359   3.708  12.060 -2.8696 -2.4224  1.2271
 8601TIP3   OH247217   3.196   5.663  14.262  0.4591  0.1429  0.5769
 8601TIP3    H147218   3.117   5.651  14.209  0.2921  2.5049  0.1907
 8601TIP3    H247219   3.224   5.574  14.284 -1.5640 -0.7871 -0.3617
 8602TIP3   OH247220   0.309   2.052   3.298  0.9810  0.1404 -0.4430
 8602TIP3    H147221   0.213   2.060   3.298  1.0053  0.5619 -1.2254
 8602TIP3    H247222   0.337   2.103   3.374  0.7256  2.4599 -1.7880
 8603TIP3   OH247223   3.828   5.490   6.035  0.0687  0.0706  0.0625
 8603TIP3    H147224   3.904   5.547   6.025 -0.7650  1.2399  0.1556
 8603TIP3    H247225   3.838   5.450   6.121  0.8935 -0.2854 -0.1904
 8604TIP3   OH247226   0.991   0.456   2.494 -0.3300  0.3604  0.6465
 8604TIP3    H147227   0.928   0.414   2.553 -0.8885 -0.7737 -0.6993
 8604TIP3    H247228   0.937   0.516   2.441 -0.0537  0.4298  0.4400
 8605TIP3   OH247229   5.295   4.152   1.453  0.3610 -0.3346  0.1926
 8605TIP3    H147230   5.200   4.153   1.437  0.4881 -1.2522 -0.6842
 8605TIP3    H247231   5.306   4.203   1.534 -0.7687  0.6744 -0.2580
 8606TIP3   OH247232   6.210   3.213  16.856 -0.1476  0.0311 -0.0202
 8606TIP3    H147233   6.253   3.267  16.789  1.8894  0.4417  1.5377
 8606TIP3    H247234   6.262   3.133  16.860 -0.0387  0.1520  1.2854
 8607TIP3   OH247235   2.545   5.218   0.392 -0.0369  0.3519 -0.4149
 8607TIP3    H147236   2.528   5.214   0.486 -0.6454 -1.4368 -0.5601
 8607TIP3    H247237   2.639   5.236   0.385  0.0623  0.2260  0.5270
 8608TIP3   OH247238   1.577   4.687  11.491  0.5800  0.3871  0.3196
 8608TIP3    H147239   1.618   4.715  11.409  2.1324 -0.6990  0.6845
 8608TIP3    H247240   1.641   4.629  11.532 -2.0098 -2.9579  0.0596
 8609TIP3   OH247241   4.851   0.445  16.440  0.6947 -0.4515  0.0621
 8609TIP3    H147242   4.862   0.539  16.451  1.2227 -0.4252 -0.6470
 8609TIP3    H247243   4.899   0.407  16.514 -0.8062 -0.1392  1.2289
 8610TIP3   OH247244   2.675   3.586   5.181 -0.9316  0.0324 -0.6503
 8610TIP3    H147245   2.719   3.504   5.158 -2.6384 -0.7824 -1.1051
 8610TIP3    H247246   2.696   3.645   5.108 -1.2027 -0.5857 -1.2420
 8611TIP3   OH247247   1.083   3.236  15.503  0.0845  0.4634  0.1232
 8611TIP3    H147248   1.083   3.291  15.582 -1.6997  1.6257 -0.6184
 8611TIP3    H247249   1.126   3.155  15.530  1.6648  1.7166  1.6177
 8612TIP3   OH247250   0.779   0.577   1.416  0.1511 -0.5242  0.2488
 8612TIP3    H147251   0.842   0.626   1.469 -0.4228  0.8638 -0.3125
 8612TIP3    H247252   0.702   0.569   1.471  0.5600 -1.6345  0.6838
 8613TIP3   OH247253   2.716   0.599   1.114 -0.2098  0.2273 -0.6607
 8613TIP3    H147254   2.807   0.626   1.128  0.2975 -1.7504  0.1755
 8613TIP3    H247255   2.675   0.609   1.200 -0.4925  0.0514 -0.7747
 8614TIP3   OH247256   6.340   2.757  15.985  0.2549 -0.0066  0.1006
 8614TIP3    H147257   6.267   2.798  15.939  0.3495  0.3587  0.2727
 8614TIP3    H247258   6.398   2.829  16.009  1.6986 -0.4537 -1.7909
 8615TIP3   OH247259   5.931   3.584  15.419 -0.7574 -0.1235 -0.1168
 8615TIP3    H147260   5.842   3.598  15.451 -0.4924 -0.6268  0.8694
 8615TIP3    H247261   5.935   3.490  15.401 -0.4124 -0.1042 -0.1383
 8616TIP3   OH247262   0.626   1.815   0.970 -0.4234 -0.2704 -0.0626
 8616TIP3    H147263   0.704   1.789   0.921 -1.5345  0.1321 -2.1383
 8616TIP3    H247264   0.654   1.891   1.021  0.5318 -0.0543 -0.8778
 8617TIP3   OH247265   0.997   0.658  14.348 -0.8380 -0.7615  0.3310
 8617TIP3    H147266   1.003   0.617  14.261 -1.8133  1.4409 -0.8566
 8617TIP3    H247267   1.086   0.654  14.382  0.2910  0.9859 -2.1155
 8618TIP3   OH247268   5.390   6.741   5.335  0.3602 -0.0374  0.4080
 8618TIP3    H147269   5.404   6.679   5.407 -2.1795 -4.2426 -2.2499
 8618TIP3    H247270   5.442   6.705   5.262 -0.0960  1.8214 -0.9083
 8619TIP3   OH247271   1.452   5.813  16.786 -0.0230  0.2315  0.1766
 8619TIP3    H147272   1.424   5.739  16.732 -0.0306 -1.4363  2.3154
 8619TIP3    H247273   1.524   5.779  16.838  0.6213  2.0492  0.5546
 8620TIP3   OH247274   3.607   0.691  15.121  0.4255  0.2099  0.0375
 8620TIP3    H147275   3.577   0.775  15.155  0.3406 -0.4347  1.6272
 8620TIP3    H247276   3.570   0.626  15.180 -2.1084 -1.2481 -2.8752
 8621TIP3   OH247277   4.903   5.012  12.498  0.2153  0.0009 -0.3946
 8621TIP3    H147278   4.815   4.975  12.484  0.1541 -1.1751  2.3719
 8621TIP3    H247279   4.963   4.947  12.461 -0.0217  0.4777 -1.6705
 8622TIP3   OH247280   2.458   0.760   3.158  0.7930 -0.2341 -0.3381
 8622TIP3    H147281   2.535   0.797   3.114  1.1664 -1.2679 -0.5868
 8622TIP3    H247282   2.425   0.693   3.098 -0.5243  0.4240 -0.3866
 8623TIP3   OH247283   2.296   1.032  11.719  0.1837 -0.2732  0.3692
 8623TIP3    H147284   2.296   1.119  11.758 -0.9663 -0.3838  0.6756
 8623TIP3    H247285   2.360   0.983  11.769  1.1133  0.4801 -0.0449
 8624TIP3   OH247286   5.873   4.680  16.497  0.3391 -0.5626  0.0310
 8624TIP3    H147287   5.879   4.585  16.509  2.3591 -0.6138 -0.9539
 8624TIP3    H247288   5.938   4.715  16.558  0.8539  0.0613 -0.8620
 8625TIP3   OH247289   4.345   3.077  14.785  0.4345  0.4157  0.3905
 8625TIP3    H147290   4.315   2.993  14.750 -0.5727  0.6648  0.6072
 8625TIP3    H247291   4.426   3.095  14.738 -0.3452  0.2471 -1.0753
 8626TIP3   OH247292   2.710   4.493   3.679 -0.1248  0.2678  0.4550
 8626TIP3    H147293   2.777   4.437   3.720 -0.0399  0.0483  0.0206
 8626TIP3    H247294   2.719   4.577   3.724  1.5220  0.7386 -0.6588
 8627TIP3   OH247295   2.946   3.793  15.278  0.4068 -0.5488 -0.4645
 8627TIP3    H147296   3.013   3.792  15.347  1.5634  0.4421 -1.5271
 8627TIP3    H247297   2.947   3.704  15.243 -0.5069 -1.1895  1.0561
 8628TIP3   OH247298   5.585   4.520  11.214 -0.4082  0.1652  0.2037
 8628TIP3    H147299   5.491   4.516  11.195 -0.4454  0.3670  0.3459
 8628TIP3    H247300   5.605   4.435  11.252 -0.2375 -0.4320 -1.1731
 8629TIP3   OH247301   0.079   2.849  11.595 -0.3477  0.5791 -0.0963
 8629TIP3    H147302   0.161   2.878  11.637  0.3407 -1.3582  0.0041
 8629TIP3    H247303   0.085   2.754  11.595 -2.3276  0.4142 -0.7134
 8630TIP3   OH247304   1.233   0.381   4.289 -0.1281  0.0589 -0.3475
 8630TIP3    H147305   1.296   0.397   4.219  0.4747  2.6313  0.6793
 8630TIP3    H247306   1.152   0.421   4.258  0.4812  2.4179  0.8327
 8631TIP3   OH247307   4.499   2.405   2.091  0.1966  0.0729  0.7293
 8631TIP3    H147308   4.470   2.490   2.058 -1.1841  1.0316  4.0006
 8631TIP3    H247309   4.420   2.352   2.091  0.0148  0.2728  2.7601
 8632TIP3   OH247310   5.462   3.158  12.032 -0.5785 -0.0264 -0.0795
 8632TIP3    H147311   5.500   3.238  12.070 -0.7960  0.3813 -0.7047
 8632TIP3    H247312   5.367   3.171  12.041 -0.7615  1.0317 -2.5510
 8633TIP3   OH247313   2.622   2.406   6.132  0.7251  0.0463 -0.2935
 8633TIP3    H147314   2.602   2.499   6.125  2.1376  0.3683 -0.3157
 8633TIP3    H247315   2.539   2.362   6.114 -0.1221  1.3066  0.3691
 8634TIP3   OH247316   5.027   0.311  15.047 -0.2752  0.2332 -0.1420
 8634TIP3    H147317   5.006   0.239  14.987  0.5226 -0.9742  0.9682
 8634TIP3    H247318   5.091   0.365  15.000  0.8276 -1.0470 -0.1605
 8635TIP3   OH247319   5.359   0.175   5.174 -0.2021 -0.0116  0.3945
 8635TIP3    H147320   5.348   0.111   5.245 -3.7833 -1.6748 -1.4223
 8635TIP3    H247321   5.447   0.158   5.140  1.2813  0.2293  3.6894
 8636TIP3   OH247322   6.598   3.119  14.696 -0.3615 -0.6310 -0.4082
 8636TIP3    H147323   6.612   3.166  14.614 -0.1546  1.2643  0.6725
 8636TIP3    H247324   6.505   3.097  14.695  0.1493 -3.2717 -2.4297
 8637TIP3   OH247325   0.961   1.542  12.985 -0.3796 -0.2669 -0.2152
 8637TIP3    H147326   1.025   1.504  12.925 -0.1654 -1.0554  0.5059
 8637TIP3    H247327   0.957   1.634  12.960  2.0635  0.1272  0.6304
 8638TIP3   OH247328   5.669   1.654  15.693 -0.3194  0.7235  0.8122
 8638TIP3    H147329   5.760   1.629  15.681  0.1983  2.8563 -0.2082
 8638TIP3    H247330   5.642   1.610  15.774  1.7979  0.5121  1.4515
 8639TIP3   OH247331   5.864   4.990   5.208  0.5656 -0.1540 -0.1214
 8639TIP3    H147332   5.786   4.953   5.250  0.6559 -0.4312 -0.1933
 8639TIP3    H247333   5.830   5.056   5.147  0.2998 -1.0913 -1.0223
 8640TIP3   OH247334   5.413   0.123  14.227  0.2944  0.3185  0.0472
 8640TIP3    H147335   5.475   0.092  14.294  0.5535  2.8498  1.0659
 8640TIP3    H247336   5.344   0.166  14.277 -0.9731 -0.1909 -1.2200
 8641TIP3   OH247337   1.895   0.882   5.283  0.5248 -0.4316  0.0015
 8641TIP3    H147338   1.882   0.935   5.361  0.9596 -1.1890  0.5939
 8641TIP3    H247339   1.894   0.792   5.314 -0.1790 -0.7811 -0.9908
 8642TIP3   OH247340   5.742   5.079  14.254  0.9751  0.2377 -0.2500
 8642TIP3    H147341   5.739   5.051  14.346  1.2699 -1.0957 -0.6296
 8642TIP3    H247342   5.806   5.151  14.254 -0.0255  1.1720  0.7997
 8643TIP3   OH247343   6.081   3.813   2.916 -0.4406  0.0875 -0.1681
 8643TIP3    H147344   6.156   3.759   2.943  0.1808  0.9679 -0.0762
 8643TIP3    H247345   6.019   3.750   2.879  0.2648 -0.6885 -0.0855
 8644TIP3   OH247346   4.566   4.788  12.536  0.2303  0.2926  0.5269
 8644TIP3    H147347   4.496   4.790  12.601  0.8532  0.5557  1.2164
 8644TIP3    H247348   4.527   4.821  12.456 -0.7541 -0.7249  0.5650
 8645TIP3   OH247349   4.203   2.633   5.091  0.2445 -0.2769 -0.2689
 8645TIP3    H147350   4.162   2.646   5.176  2.1786 -0.9481  0.8301
 8645TIP3    H247351   4.247   2.716   5.072 -2.5915  0.9559 -2.1200
 8646TIP3   OH247352   5.270   2.159   0.646  0.3985 -0.0092 -0.0551
 8646TIP3    H147353   5.246   2.191   0.732  1.4928  3.4283 -0.8750
 8646TIP3    H247354   5.228   2.073   0.640 -4.6406  1.9405  1.6862
 8647TIP3   OH247355   3.310   4.955   3.151 -0.1501 -0.2183  0.0751
 8647TIP3    H147356   3.220   4.959   3.183  0.2144 -0.7391  1.2144
 8647TIP3    H247357   3.361   5.003   3.217  0.2556  1.2967 -1.2597
 8648TIP3   OH247358   3.571   3.668   5.509  0.6019 -0.0074  0.4053
 8648TIP3    H147359   3.500   3.716   5.467  1.2105 -0.7190 -1.5819
 8648TIP3    H247360   3.527   3.602   5.563 -0.2341  0.6447  0.5364
 8649TIP3   OH247361   4.141   4.757   5.734 -0.1810 -0.2019 -0.1644
 8649TIP3    H147362   4.128   4.798   5.820 -1.2792  0.4447 -0.6120
 8649TIP3    H247363   4.113   4.666   5.747  0.8138 -0.4341  0.4530
 8650TIP3   OH247364   5.128   0.203  13.510 -0.2066  0.1537  0.4164
 8650TIP3    H147365   5.107   0.128  13.455 -0.8770  0.7224 -0.1169
 8650TIP3    H247366   5.059   0.203  13.577  0.3612 -0.2823  1.0203
 8651TIP3   OH247367   3.432   4.699  15.027  0.1849 -0.3029 -0.8885
 8651TIP3    H147368   3.419   4.779  14.975  1.2582  1.3801  1.2421
 8651TIP3    H247369   3.355   4.696  15.084  1.5658  1.0715  1.1891
 8652TIP3   OH247370   4.913   0.259  15.311 -0.1578 -0.5605 -0.6124
 8652TIP3    H147371   4.945   0.274  15.222  0.4717 -0.5005 -0.3765
 8652TIP3    H247372   4.849   0.189  15.301 -1.4796  0.6877 -1.3940
 8653TIP3   OH247373   5.583   3.359  13.345  0.1536 -0.5016  0.5791
 8653TIP3    H147374   5.657   3.419  13.333  0.3116 -0.3691  1.9684
 8653TIP3    H247375   5.609   3.280  13.298  0.5544  0.0286 -0.1198
 8654TIP3   OH247376   6.346   5.004  17.124 -0.0176  0.0353 -0.4444
 8654TIP3    H147377   6.304   5.040  17.202 -0.2467  0.2774 -0.6772
 8654TIP3    H247378   6.296   4.925  17.104 -0.8120  0.6973 -1.1264
 8655TIP3   OH247379   5.956   0.430  14.544 -0.0689  0.6184 -0.2543
 8655TIP3    H147380   5.987   0.462  14.628 -1.4775  0.5973  0.3012
 8655TIP3    H247381   5.873   0.385  14.564 -0.3212  0.4210 -1.6129
 8656TIP3   OH247382   4.378   6.148  13.649 -0.2587  0.3441 -0.3766
 8656TIP3    H147383   4.385   6.213  13.578  0.1895 -0.6924 -1.3172
 8656TIP3    H247384   4.347   6.069  13.605 -0.8220 -0.0817  0.7580
 8657TIP3   OH247385   6.087   3.061   3.585 -0.3868  0.1525 -0.4059
 8657TIP3    H147386   6.038   3.142   3.573  0.2342  0.9409  1.8097
 8657TIP3    H247387   6.020   2.993   3.593 -0.9810  0.6897 -0.7219
 8658TIP3   OH247388   4.526   3.494  13.076 -0.1378 -0.2459 -0.1658
 8658TIP3    H147389   4.473   3.553  13.130 -2.3144 -1.8880 -0.3980
 8658TIP3    H247390   4.475   3.482  12.996  1.0863 -1.1103 -0.8475
 8659TIP3   OH247391   1.784   1.142   2.055  0.2960 -0.0670 -0.3784
 8659TIP3    H147392   1.801   1.227   2.094 -0.8415  0.0679 -0.1468
 8659TIP3    H247393   1.708   1.155   1.998  1.5031 -0.4214 -2.1395
 8660TIP3   OH247394   2.729   2.252   1.413  0.0574 -0.0068  0.0516
 8660TIP3    H147395   2.654   2.192   1.409 -1.0890  1.4286 -1.8367
 8660TIP3    H247396   2.799   2.204   1.369 -1.0080  0.1616 -1.9609
 8661TIP3   OH247397   6.284   0.655  15.889 -0.0087 -0.4117 -0.0460
 8661TIP3    H147398   6.277   0.722  15.821 -1.1468 -2.0075 -1.5907
 8661TIP3    H247399   6.194   0.627  15.905  0.4142 -1.3494  0.8135
 8662TIP3   OH247400   6.051   1.334  11.928  0.3339  0.2381  0.8978
 8662TIP3    H147401   6.140   1.357  11.902  0.7139 -0.3510  1.6526
 8662TIP3    H247402   6.035   1.250  11.884  0.1660  0.3209  0.8008
 8663TIP3   OH247403   0.271   1.916   5.916  0.0035  0.1104  0.3961
 8663TIP3    H147404   0.351   1.964   5.939  1.1510 -2.1329  1.4036
 8663TIP3    H247405   0.202   1.957   5.969  0.0719  2.9556 -1.4509
 8664TIP3   OH247406   3.696   3.539  15.169 -0.6862 -0.2947  0.3091
 8664TIP3    H147407   3.651   3.466  15.127 -0.1589 -0.6340  0.3372
 8664TIP3    H247408   3.688   3.611  15.106  0.0182 -0.7732 -0.3484
 8665TIP3   OH247409   0.819   0.379   2.711 -0.2961  0.0091 -0.2722
 8665TIP3    H147410   0.765   0.304   2.683 -1.3909  1.0345 -0.9822
 8665TIP3    H247411   0.759   0.435   2.760  0.8160 -0.1307  1.3226
 8666TIP3   OH247412   1.331   2.746  16.040  0.0055 -0.4710  0.2195
 8666TIP3    H147413   1.336   2.662  15.995 -1.4175 -1.2788  1.4833
 8666TIP3    H247414   1.253   2.788  16.004 -0.0039 -0.2478  0.4969
 8667TIP3   OH247415   2.203   1.605   4.299  0.7660  0.3333  0.1654
 8667TIP3    H147416   2.277   1.645   4.253  2.5985 -0.9504  1.8418
 8667TIP3    H247417   2.202   1.648   4.384 -1.2349  1.1733 -0.2311
 8668TIP3   OH247418   0.449   3.489  16.279  0.6295  0.3740  0.0953
 8668TIP3    H147419   0.492   3.438  16.347 -0.4498  0.8466  1.1679
 8668TIP3    H247420   0.356   3.477  16.295  0.3421  2.1188 -0.0171
 8669TIP3   OH247421   3.147   4.072  11.759  0.3308 -0.2475  0.2337
 8669TIP3    H147422   3.107   4.005  11.704 -0.5993  1.2562 -0.9962
 8669TIP3    H247423   3.082   4.090  11.827  0.4277 -0.3185  0.3462
 8670TIP3   OH247424   4.596   4.283   3.269 -0.0157 -0.1846 -0.6647
 8670TIP3    H147425   4.502   4.281   3.288 -0.0104  0.4753 -0.5598
 8670TIP3    H247426   4.601   4.310   3.177  0.1265  2.2952 -0.0010
 8671TIP3   OH247427   0.131   6.447   3.373 -0.3690  0.3891  0.4131
 8671TIP3    H147428   0.186   6.503   3.427 -0.8523  1.0928  0.1842
 8671TIP3    H247429   0.075   6.401   3.436  0.7329 -0.6522  0.6818
 8672TIP3   OH247430   3.995   3.019  11.067  0.3929 -0.1632  0.2294
 8672TIP3    H147431   4.079   3.063  11.080  1.0914 -0.4214 -2.8399
 8672TIP3    H247432   4.017   2.939  11.020 -1.6521  0.2943 -1.6343
 8673TIP3   OH247433   0.958   3.466   6.088  0.5891  0.0540 -0.0249
 8673TIP3    H147434   1.008   3.449   6.168  0.2361  0.5716  0.3096
 8673TIP3    H247435   1.023   3.503   6.027  0.8024 -0.0939  0.1107
 8674TIP3   OH247436   5.413   4.746  11.788 -0.4007 -0.1542 -0.0485
 8674TIP3    H147437   5.398   4.795  11.706  2.3295 -0.8708 -1.0746
 8674TIP3    H247438   5.433   4.657  11.759 -0.9762 -0.8465  1.5523
 8675TIP3   OH247439   4.948   4.716   1.513  0.0857 -0.5061  0.3981
 8675TIP3    H147440   5.019   4.758   1.561  0.2626 -0.5496  0.1711
 8675TIP3    H247441   4.975   4.718   1.421 -0.4624 -0.0082  0.2427
 8676TIP3   OH247442   4.221   2.432   1.306  0.6537  0.2132  0.6323
 8676TIP3    H147443   4.183   2.350   1.335  1.2066  0.0170  0.8202
 8676TIP3    H247444   4.240   2.418   1.213 -0.4449  0.5884  0.3342
 8677TIP3   OH247445   5.627   4.314   5.515 -0.8758 -0.3009 -0.6681
 8677TIP3    H147446   5.611   4.305   5.421 -0.9088 -1.5271 -0.5716
 8677TIP3    H247447   5.722   4.305   5.524 -0.8039  0.4758 -0.6441
 8678TIP3   OH247448   4.905   0.272   6.434 -0.1987 -0.3637  0.0419
 8678TIP3    H147449   4.950   0.193   6.403 -1.2142 -0.8084 -0.3429
 8678TIP3    H247450   4.918   0.336   6.364  0.1777 -0.3602  0.1142
 8679TIP3   OH247451   6.270   3.752   3.707  0.1483  0.0078 -0.2781
 8679TIP3    H147452   6.315   3.682   3.660  0.0007  0.9488 -1.8893
 8679TIP3    H247453   6.184   3.757   3.665  0.0345  0.9270  0.0483
 8680TIP3   OH247454   2.279   4.231  11.535 -0.2498  0.4421 -0.6008
 8680TIP3    H147455   2.218   4.169  11.574 -0.2687  0.2815 -0.8881
 8680TIP3    H247456   2.282   4.208  11.442 -1.2550  1.6730 -0.9788
 8681TIP3   OH247457   5.049   6.216   3.036  0.3428 -0.4498 -0.3348
 8681TIP3    H147458   5.139   6.208   3.069  0.6859  2.1516 -0.4750
 8681TIP3    H247459   5.017   6.125   3.034  2.1073 -1.2438  2.0257
 8682TIP3   OH247460   2.858   2.761  14.799  0.3844  0.5420 -0.3786
 8682TIP3    H147461   2.900   2.690  14.751 -0.5454 -1.8106  2.0280
 8682TIP3    H247462   2.767   2.759  14.770 -0.1372 -0.7642  1.2034
 8683TIP3   OH247463   4.450   5.001   4.156  0.2870 -0.3635 -0.3638
 8683TIP3    H147464   4.384   5.039   4.098  0.8474 -0.1309 -0.8685
 8683TIP3    H247465   4.407   4.926   4.196 -0.6128  0.4040  0.1245
 8684TIP3   OH247466   3.469   5.392   4.135  0.5977  0.2036 -0.1766
 8684TIP3    H147467   3.394   5.450   4.149 -0.4830 -1.3860  0.9922
 8684TIP3    H247468   3.541   5.435   4.181  0.0273  1.0136 -0.0117
 8685TIP3   OH247469   1.220   5.110   6.764 -0.0718 -0.4633  0.2628
 8685TIP3    H147470   1.255   5.186   6.718  0.4056 -2.0635 -2.2279
 8685TIP3    H247471   1.135   5.093   6.722  0.1409 -1.6702  0.2625
 8686TIP3   OH247472   5.659   1.043  12.847 -0.5071  0.4164  0.1368
 8686TIP3    H147473   5.719   1.018  12.776 -0.1902 -1.8818  1.1086
 8686TIP3    H247474   5.687   1.131  12.873 -0.1103  0.9818 -2.0001
 8687TIP3   OH247475   2.585   0.442  17.032 -0.3591  0.0958 -0.1709
 8687TIP3    H147476   2.591   0.355  17.073 -0.7585  0.1756  0.0642
 8687TIP3    H247477   2.670   0.481  17.047 -0.9122  0.6555  1.8101
 8688TIP3   OH247478   1.070   2.285  11.670  0.2303 -0.0410  0.0661
 8688TIP3    H147479   1.101   2.220  11.733  0.0851  0.2530  0.4497
 8688TIP3    H247480   0.977   2.265  11.659 -0.0885  0.7955  1.0670
 8689TIP3   OH247481   1.031   2.988  17.110  0.5594  0.4645  0.3079
 8689TIP3    H147482   0.957   3.018  17.057  1.3482  0.3454 -0.8987
 8689TIP3    H247483   1.098   2.966  17.046  1.6739  0.6543  1.3878
 8690TIP3   OH247484   4.141   1.900  10.951 -0.2234  0.3720  0.0778
 8690TIP3    H147485   4.177   1.812  10.942 -0.5566  0.0341  1.7376
 8690TIP3    H247486   4.172   1.946  10.873 -1.2608 -1.5986 -1.6006
 8691TIP3   OH247487   2.606   5.045  16.251  0.5818  0.3666  0.1556
 8691TIP3    H147488   2.595   5.055  16.157  2.9393  1.7989 -0.0560
 8691TIP3    H247489   2.692   5.004  16.261  0.0256 -0.5329  1.6991
 8692TIP3   OH247490   3.814   5.985  12.480  0.9444 -0.0004 -0.0539
 8692TIP3    H147491   3.771   5.978  12.395 -0.2639  0.2978  0.5025
 8692TIP3    H247492   3.905   5.959  12.464  0.5478 -0.7155 -1.2694
 8693TIP3   OH247493   5.404   1.446  14.391  0.0461  0.2259  0.0569
 8693TIP3    H147494   5.389   1.466  14.299 -1.0506  1.3450  0.4455
 8693TIP3    H247495   5.381   1.527  14.437  1.6772  0.0739  1.2368
 8694TIP3   OH247496   4.016   1.936  11.727 -0.2177  0.0839 -0.2638
 8694TIP3    H147497   4.063   1.997  11.784 -1.5015  2.0332 -1.1905
 8694TIP3    H247498   3.966   1.992  11.668 -1.3208 -1.8908 -1.3029
 8695TIP3   OH247499   3.527   3.203  15.708  0.0240  0.1046 -0.1046
 8695TIP3    H147500   3.575   3.134  15.754  0.2264  0.1909 -0.1881
 8695TIP3    H247501   3.458   3.156  15.660  0.1038 -0.0299 -0.0887
 8696TIP3   OH247502   3.376   3.298   5.458  0.7917 -0.0345 -0.2858
 8696TIP3    H147503   3.346   3.356   5.388 -0.2759  1.4886  1.3318
 8696TIP3    H247504   3.314   3.225   5.457  0.3237  0.3610 -0.4493
 8697TIP3   OH247505   5.695   1.430  17.217 -0.0774  0.9955 -0.0786
 8697TIP3    H147506   5.653   1.345  17.225 -1.6541  1.8319  1.0940
 8697TIP3    H247507   5.700   1.464  17.306  3.3273  0.9215 -0.1136
 8698TIP3   OH247508   1.352   5.602  11.937 -0.0692  0.2820  0.1127
 8698TIP3    H147509   1.404   5.598  11.857  1.1883  1.9549  0.7875
 8698TIP3    H247510   1.370   5.519  11.981 -0.1561 -0.3212 -0.9582
 8699TIP3   OH247511   3.403   4.953  14.921  0.2949 -0.4886  0.3471
 8699TIP3    H147512   3.313   4.951  14.888 -0.1155 -0.8933  1.4704
 8699TIP3    H247513   3.398   5.004  15.002  1.1767 -0.0472  0.1362
 8700TIP3   OH247514   5.334   3.811   2.524 -0.0017  0.0182 -0.1790
 8700TIP3    H147515   5.281   3.832   2.448  1.5678 -0.5715 -1.4800
 8700TIP3    H247516   5.417   3.857   2.510  0.0917  0.4750  1.5329
 8701TIP3   OH247517   1.115   2.075  14.809  0.3199  0.1772  1.0506
 8701TIP3    H147518   1.118   2.154  14.862  0.5356 -0.6090  2.2460
 8701TIP3    H247519   1.074   2.009  14.865 -0.2762 -0.4467 -0.0852
 8702TIP3   OH247520   3.629   3.493  12.156 -0.2904 -0.2479  0.1998
 8702TIP3    H147521   3.583   3.557  12.101 -0.8165 -0.9905 -0.2519
 8702TIP3    H247522   3.664   3.544  12.229 -1.1586  0.4676  0.1336
 8703TIP3   OH247523   3.244   4.690  15.234 -0.6326 -0.0946 -0.3050
 8703TIP3    H147524   3.159   4.716  15.199 -1.0565  1.0126  1.4294
 8703TIP3    H247525   3.257   4.747  15.309  0.3182 -2.1916  1.2063
 8704TIP3   OH247526   2.811   0.935  11.969 -0.4544 -0.0031  0.3313
 8704TIP3    H147527   2.828   1.028  11.953  0.6521 -0.6244 -2.7823
 8704TIP3    H247528   2.716   0.927  11.965 -0.5742  0.9956  0.8453
 8705TIP3   OH247529   0.974   0.332   4.659  0.6270  0.5537  0.9964
 8705TIP3    H147530   1.017   0.415   4.640 -0.5044  0.7360 -1.0776
 8705TIP3    H247531   0.946   0.340   4.751 -1.9927  3.7368  0.1141
 8706TIP3   OH247532   3.999   3.445   3.232  0.5122  0.9122  0.1317
 8706TIP3    H147533   4.013   3.360   3.189 -1.6580  0.3481  0.3730
 8706TIP3    H247534   3.959   3.422   3.317  1.0921  2.1448  0.7589
 8707TIP3   OH247535   2.133   6.750   6.402 -0.2984  0.1056 -0.5424
 8707TIP3    H147536   2.195   6.793   6.461 -0.3719  0.3304 -0.6260
 8707TIP3    H247537   2.049   6.756   6.447 -0.5687  1.2932 -1.1668
 8708TIP3   OH247538   1.300   5.783  13.531 -0.6442  0.9743  0.5161
 8708TIP3    H147539   1.279   5.754  13.620  0.2072 -0.7619  0.2015
 8708TIP3    H247540   1.216   5.805  13.492 -1.8969 -3.7316 -0.0263
 8709TIP3   OH247541   6.549   5.632   1.206 -0.3263 -0.1484  0.5163
 8709TIP3    H147542   6.549   5.721   1.241 -2.6628 -0.1730  0.7421
 8709TIP3    H247543   6.589   5.579   1.275 -0.8195  0.4435  1.2763
 8710TIP3   OH247544   5.096   4.397   5.924 -0.0864  0.1651  0.0499
 8710TIP3    H147545   5.053   4.384   5.840 -0.5550  3.1601 -0.3077
 8710TIP3    H247546   5.171   4.338   5.923 -0.5738 -0.4787 -2.1024
 8711TIP3   OH247547   4.368   5.288   3.326 -0.3345  0.6155  0.0618
 8711TIP3    H147548   4.287   5.249   3.292  1.0607 -1.4764 -1.0836
 8711TIP3    H247549   4.404   5.221   3.384  0.4809  1.6342  0.7730
 8712TIP3   OH247550   4.363   3.699  13.170 -0.1096 -0.1066 -0.2994
 8712TIP3    H147551   4.322   3.784  13.155 -0.1519  0.0358  0.6044
 8712TIP3    H247552   4.293   3.643  13.202  0.3481  0.1129  1.1628
 8713TIP3   OH247553   1.495   5.293  17.010 -0.4862 -0.0590  0.3952
 8713TIP3    H147554   1.589   5.309  17.009 -0.2118 -1.3104  1.8189
 8713TIP3    H247555   1.470   5.293  16.918  0.9186  0.2084 -0.0165
 8714TIP3   OH247556   3.559   3.001   6.495  0.0567  0.4553  0.6678
 8714TIP3    H147557   3.584   2.936   6.561  0.3658  1.6662  1.7801
 8714TIP3    H247558   3.615   3.076   6.513 -1.6341  1.7630  0.6978
 8715TIP3   OH247559   4.755   0.258   5.680 -0.1258 -0.1690 -0.1270
 8715TIP3    H147560   4.733   0.346   5.712  0.9891  0.3869 -0.8192
 8715TIP3    H247561   4.719   0.199   5.745 -1.2879  0.7823  0.1326
 8716TIP3   OH247562   4.798   6.591   3.576 -0.9214 -0.3646 -0.8786
 8716TIP3    H147563   4.802   6.506   3.620  2.5999 -0.7161 -1.5518
 8716TIP3    H247564   4.740   6.643   3.631  0.6175 -1.7723  2.3819
 8717TIP3   OH247565   2.930   4.890  14.113 -0.1967 -0.8495  0.4822
 8717TIP3    H147566   2.936   4.912  14.206  0.1208  0.2976  0.2142
 8717TIP3    H247567   2.973   4.963  14.069  0.7996 -1.9828 -0.5101
 8718TIP3   OH247568   2.917   3.538  12.429  0.2913  0.1709 -0.0378
 8718TIP3    H147569   2.969   3.602  12.381  0.7706  0.8576  1.3519
 8718TIP3    H247570   2.973   3.461  12.435  0.2619  0.1094 -0.4713
 8719TIP3   OH247571   1.353   3.571   1.205 -0.2753  0.6684 -0.6309
 8719TIP3    H147572   1.297   3.625   1.262 -1.4549 -0.2283 -0.8914
 8719TIP3    H247573   1.406   3.634   1.157  0.7730  1.4754  1.4387
 8720TIP3   OH247574   4.380   0.486   1.982 -0.9018  0.5229 -0.0053
 8720TIP3    H147575   4.308   0.525   2.031 -0.9795  0.8996 -0.4133
 8720TIP3    H247576   4.351   0.397   1.963 -0.2724 -0.1317  1.8876
 8721TIP3   OH247577   4.042   2.825   5.595  0.2054 -0.4157 -0.2370
 8721TIP3    H147578   4.093   2.906   5.588 -0.6042  0.1527  0.1892
 8721TIP3    H247579   4.100   2.763   5.637  0.4639  0.2990  0.4811
 8722TIP3   OH247580   2.849   0.271   5.889 -0.2728 -0.1632 -0.3983
 8722TIP3    H147581   2.830   0.325   5.812 -0.9926 -0.8953 -0.7533
 8722TIP3    H247582   2.937   0.237   5.873  1.1972  2.6781  0.9089
 8723TIP3   OH247583   4.586   3.875   4.899  0.3897 -0.2787  0.3467
 8723TIP3    H147584   4.658   3.816   4.917  1.0835  0.2376 -0.6342
 8723TIP3    H247585   4.558   3.853   4.809 -1.6209 -1.4201  1.1741
 8724TIP3   OH247586   0.355   5.397   1.064  0.4646 -0.2625 -0.0195
 8724TIP3    H147587   0.416   5.470   1.076  0.0783  0.1665 -0.6439
 8724TIP3    H247588   0.319   5.383   1.152 -0.0341  0.8106 -0.0388
 8725TIP3   OH247589   1.595   6.411   4.464 -0.8048  0.3401  0.1883
 8725TIP3    H147590   1.653   6.432   4.391 -1.8970  0.0084 -0.8150
 8725TIP3    H247591   1.598   6.489   4.520  0.2823  0.4811 -0.0431
 8726TIP3   OH247592   5.463   2.224  15.945 -0.1610 -0.4210 -0.4061
 8726TIP3    H147593   5.455   2.211  15.850  1.7238 -0.8899 -0.5367
 8726TIP3    H247594   5.522   2.299  15.954 -0.1295 -0.5381  0.3939
 8727TIP3   OH247595   6.528   6.347   2.547 -0.4452 -0.0282  0.2994
 8727TIP3    H147596   6.616   6.367   2.516 -0.1375  0.7299  1.5807
 8727TIP3    H247597   6.483   6.431   2.548 -1.0588 -0.3445  0.0686
 8728TIP3   OH247598   5.355   1.645  11.090 -0.2265  0.2679 -0.0033
 8728TIP3    H147599   5.413   1.602  11.028 -0.0975  1.4969 -0.7570
 8728TIP3    H247600   5.329   1.726  11.047 -0.0687  1.1970  1.5705
 8729TIP3   OH247601   0.764   3.524   2.456 -0.0319 -0.2262  0.2710
 8729TIP3    H147602   0.776   3.472   2.376  1.1281  0.0701  0.2386
 8729TIP3    H247603   0.752   3.613   2.425  2.5214  0.2469  0.4519
 8730TIP3   OH247604   5.122   1.845  13.326 -0.0776 -0.0701 -0.1814
 8730TIP3    H147605   5.108   1.875  13.237 -0.0974 -0.6864 -0.3887
 8730TIP3    H247606   5.047   1.878  13.375  0.2341  0.7754 -0.2654
 8731TIP3   OH247607   2.542   5.003   0.212 -0.1708 -0.1215  0.1774
 8731TIP3    H147608   2.451   4.984   0.188 -0.2803  0.9588 -0.3063
 8731TIP3    H247609   2.538   5.085   0.261  0.5228 -0.1584  0.3046
 8732TIP3   OH247610   3.549   5.652  12.926  0.4730 -0.3902 -0.0784
 8732TIP3    H147611   3.472   5.702  12.950  0.9182  0.5130 -0.4567
 8732TIP3    H247612   3.622   5.698  12.967  0.9677 -0.2871 -1.0225
 8733TIP3   OH247613   3.622   6.746   0.175  0.2372 -0.2907  0.4666
 8733TIP3    H147614   3.607   6.676   0.238  0.4814 -1.1531 -0.3982
 8733TIP3    H247615   3.705   6.723   0.133 -0.8887 -0.8916 -1.6050
 8734TIP3   OH247616   1.153   5.205  12.649  0.2108 -0.7716 -0.2235
 8734TIP3    H147617   1.136   5.152  12.726  0.0438 -0.4043 -0.0026
 8734TIP3    H247618   1.104   5.286  12.664  0.3752 -0.5965 -0.6004
 8735TIP3   OH247619   1.362   1.156  14.881  0.3520 -0.2223  0.2408
 8735TIP3    H147620   1.431   1.213  14.845 -1.8686  2.6172  0.0470
 8735TIP3    H247621   1.357   1.083  14.819  1.8410  0.5323 -0.8442
 8736TIP3   OH247622   5.808   5.934   5.179  0.2827 -0.0691  0.2133
 8736TIP3    H147623   5.885   5.990   5.172 -0.3259  0.6928 -0.6062
 8736TIP3    H247624   5.757   5.953   5.100 -1.4325  0.4794  1.3992
 8737TIP3   OH247625   1.096   6.206   1.895  1.0316 -0.1998 -0.4554
 8737TIP3    H147626   1.177   6.238   1.855  1.2697 -2.3981 -1.8715
 8737TIP3    H247627   1.026   6.240   1.839  1.1102 -0.0601 -0.4693
 8738TIP3   OH247628   0.457   3.427  11.999  0.1094  0.1097 -0.0886
 8738TIP3    H147629   0.461   3.519  11.973 -0.5256  0.0396 -0.4702
 8738TIP3    H247630   0.377   3.395  11.958 -0.9902 -0.0037  2.0128
 8739TIP3   OH247631   1.222   1.465  12.838  0.1486 -0.0984  0.1359
 8739TIP3    H147632   1.298   1.509  12.877  1.2390 -1.1034 -0.7802
 8739TIP3    H247633   1.200   1.396  12.900  0.5200 -0.3303  0.0142
 8740TIP3   OH247634   6.781   1.725   4.238 -0.6129 -0.3701 -0.0727
 8740TIP3    H147635   6.717   1.781   4.194 -0.4793 -0.2480 -0.1119
 8740TIP3    H247636   6.866   1.767   4.221 -0.2905 -1.5527 -1.6753
 8741TIP3   OH247637   3.958   1.916  13.859 -0.3799 -0.1117 -0.3097
 8741TIP3    H147638   3.904   1.979  13.907  0.5582 -0.2890  1.0187
 8741TIP3    H247639   3.918   1.831  13.879  0.0271 -0.1883  0.1870
 8742TIP3   OH247640   2.508   2.323   4.383 -0.3577  0.0330  0.0414
 8742TIP3    H147641   2.488   2.417   4.385  2.4024  0.8012 -2.1557
 8742TIP3    H247642   2.494   2.298   4.292  0.4248 -1.3245  0.2681
 8743TIP3   OH247643   6.251   6.497  12.416  0.1046  0.7466 -0.7958
 8743TIP3    H147644   6.173   6.541  12.448 -0.8179 -0.6854 -0.9757
 8743TIP3    H247645   6.223   6.406  12.402  1.5456  0.4217 -1.7816
 8744TIP3   OH247646   6.157   3.192  15.012  0.3773  0.0717  0.3874
 8744TIP3    H147647   6.122   3.192  15.101  0.8007  0.3613  0.5573
 8744TIP3    H247648   6.111   3.121  14.968  0.0059  0.0671  0.7749
 8745TIP3   OH247649   1.611   0.122  16.982  0.9300 -0.6012 -0.1285
 8745TIP3    H147650   1.521   0.094  17.000  0.3595  1.7061  1.0525
 8745TIP3    H247651   1.626   0.098  16.891 -0.9741 -0.8144 -0.4221
 8746TIP3   OH247652   6.468   5.829   2.671  0.4057  0.0720  0.0499
 8746TIP3    H147653   6.513   5.896   2.620  0.6669 -2.2535 -3.0459
 8746TIP3    H247654   6.399   5.797   2.613  0.8153 -2.8787  0.9935
 8747TIP3   OH247655   1.277   3.213  11.881 -0.4034  0.1730  0.9908
 8747TIP3    H147656   1.230   3.197  11.799  1.0276 -0.0546  0.1715
 8747TIP3    H247657   1.351   3.152  11.879 -0.3121  0.2068  2.4307
 8748TIP3   OH247658   3.615   1.082   3.610 -0.3539 -0.1910 -0.2324
 8748TIP3    H147659   3.668   1.151   3.569  0.0148  0.6595  1.5731
 8748TIP3    H247660   3.679   1.015   3.634 -0.0496  0.6882  1.6447
 8749TIP3   OH247661   2.794   6.416   0.927  0.4470  0.8306 -0.3337
 8749TIP3    H147662   2.809   6.453   0.840 -1.3727  0.3000 -0.9213
 8749TIP3    H247663   2.730   6.474   0.967 -0.8449 -0.4498 -0.4557
 8750TIP3   OH247664   2.718   6.002  11.329  0.1950  0.2057  0.5686
 8750TIP3    H147665   2.709   6.090  11.290  1.8359  0.1616  0.0200
 8750TIP3    H247666   2.690   5.943  11.259  0.8124  0.2318  0.2904
 8751TIP3   OH247667   4.580   2.110   5.888 -0.4588  0.2303  0.1294
 8751TIP3    H147668   4.637   2.111   5.811 -1.4876 -0.3732 -0.6662
 8751TIP3    H247669   4.572   2.017   5.910 -1.4120  0.2698 -0.0009
 8752TIP3   OH247670   0.830   5.031  14.231  0.2170  0.5407  0.1107
 8752TIP3    H147671   0.862   5.116  14.260  0.2234  0.4704  0.3056
 8752TIP3    H247672   0.749   5.051  14.183 -0.0490  0.6113  0.5816
 8753TIP3   OH247673   6.639   2.676  14.613 -0.1820 -0.2719  0.0717
 8753TIP3    H147674   6.605   2.649  14.698 -0.7744  0.4907  0.0859
 8753TIP3    H247675   6.728   2.708  14.631 -0.7161  0.9577  0.5947
 8754TIP3   OH247676   4.393   2.181   3.514 -0.1510  0.6703  0.3874
 8754TIP3    H147677   4.428   2.176   3.424 -3.5241 -0.9410 -0.9962
 8754TIP3    H247678   4.422   2.100   3.555 -1.3981 -0.2009 -0.4195
 8755TIP3   OH247679   1.353   0.632   2.377 -0.0764 -0.4870  0.1951
 8755TIP3    H147680   1.284   0.693   2.405 -0.5159 -1.1766  0.6570
 8755TIP3    H247681   1.431   0.687   2.369 -0.6039  0.2520 -0.0163
 8756TIP3   OH247682   2.536   0.275   3.498  0.2220  0.0161 -0.1646
 8756TIP3    H147683   2.538   0.331   3.420 -3.6762  0.0405 -0.4076
 8756TIP3    H247684   2.520   0.335   3.571  0.7777 -0.3311  0.2512
 8757TIP3   OH247685   0.597   0.811  12.163 -0.1498  0.4222  0.2381
 8757TIP3    H147686   0.676   0.835  12.114  0.7641  0.8864  1.8750
 8757TIP3    H247687   0.604   0.859  12.245 -2.2243  0.5702  0.3793
 8758TIP3   OH247688   2.950   3.981   4.534  0.1782 -0.0022 -0.3709
 8758TIP3    H147689   3.001   3.958   4.612  1.8125  0.8011 -1.1619
 8758TIP3    H247690   2.949   4.077   4.534 -1.4859  0.0090 -0.3167
 8759TIP3   OH247691   4.123   3.628  12.206  0.2835  0.0686 -0.2751
 8759TIP3    H147692   4.130   3.641  12.112  0.4875 -1.2546 -0.4652
 8759TIP3    H247693   4.037   3.663  12.228  0.9497  2.0241 -0.6213
 8760TIP3   OH247694   1.621   1.913  14.289  0.4690  0.6428  0.3823
 8760TIP3    H147695   1.660   1.828  14.266 -1.5628  0.0558 -1.2753
 8760TIP3    H247696   1.645   1.970  14.216 -0.0472  0.8398  0.3629
 8761TIP3   OH247697   3.499   6.097  17.114  0.2818  0.1512 -0.1444
 8761TIP3    H147698   3.453   6.130  17.036  0.9427  0.4260 -0.4273
 8761TIP3    H247699   3.592   6.100  17.089  0.3935 -1.4329  0.0221
 8762TIP3   OH247700   4.853   5.425  10.850 -0.8585  0.8464  0.1875
 8762TIP3    H147701   4.905   5.457  10.923  1.3170  0.0725 -0.9166
 8762TIP3    H247702   4.810   5.503  10.814 -1.0364  1.4028  1.5678
 8763TIP3   OH247703   4.766   5.255  14.226 -0.0064 -0.2706 -0.0978
 8763TIP3    H147704   4.858   5.260  14.200 -0.3190 -0.3483 -1.2646
 8763TIP3    H247705   4.728   5.338  14.198 -0.0728  0.2037  1.3339
 8764TIP3   OH247706   3.865   0.987   3.613  0.0910  0.1812  0.0530
 8764TIP3    H147707   3.915   0.934   3.676 -0.2406  0.8295  0.8852
 8764TIP3    H247708   3.904   1.075   3.620 -0.6564  0.5099  0.1440
 8765TIP3   OH247709   5.856   3.515  16.100 -0.1983  0.1028 -0.5124
 8765TIP3    H147710   5.832   3.422  16.108 -1.9231  0.6660  2.6544
 8765TIP3    H247711   5.876   3.542  16.190  1.1376  2.6156 -1.4806
 8766TIP3   OH247712   1.527   1.939   3.519 -0.1436 -0.2087  0.3286
 8766TIP3    H147713   1.459   1.930   3.586 -0.0745  1.0952  0.6018
 8766TIP3    H247714   1.606   1.904   3.560 -0.5173 -1.2469  0.1974
 8767TIP3   OH247715   1.293   4.025   5.632 -0.0876  0.2381 -0.1476
 8767TIP3    H147716   1.230   3.953   5.630  0.1929 -0.0214  0.3224
 8767TIP3    H247717   1.247   4.095   5.679  0.3418 -0.3133  1.1417
 8768TIP3   OH247718   3.171   3.173  14.276  0.4060  0.0820  0.4254
 8768TIP3    H147719   3.250   3.133  14.240  0.4144  0.0733  0.4532
 8768TIP3    H247720   3.107   3.168  14.205  0.0926 -0.8891  0.7535
 8769TIP3   OH247721   3.746   0.904  16.878 -0.2474  0.1514  0.5468
 8769TIP3    H147722   3.745   0.906  16.973 -3.0540 -0.7707  0.6042
 8769TIP3    H247723   3.809   0.835  16.856 -0.2006 -0.2093  1.7547
 8770TIP3   OH247724   4.329   5.931  13.483  0.2569  0.4965 -0.2541
 8770TIP3    H147725   4.326   5.841  13.514 -0.5847  1.0169  1.3053
 8770TIP3    H247726   4.362   5.925  13.394  2.3780 -1.1316  0.5690
 8771TIP3   OH247727   0.936   1.143  13.253 -0.5549  0.4047 -0.2497
 8771TIP3    H147728   0.849   1.163  13.218 -0.3775 -2.2988 -2.5729
 8771TIP3    H247729   0.924   1.061  13.301  0.3082  1.2659  1.5226
 8772TIP3   OH247730   2.793   1.794  14.064 -0.3450 -0.0169  0.3186
 8772TIP3    H147731   2.845   1.748  13.998 -0.3304 -0.6066  0.7347
 8772TIP3    H247732   2.824   1.759  14.147 -0.0917  1.0026  0.6676
 8773TIP3   OH247733   3.877   2.828  13.134  0.0990 -0.1432  0.4955
 8773TIP3    H147734   3.923   2.804  13.214 -2.4771 -0.8157  1.9216
 8773TIP3    H247735   3.800   2.877  13.165 -0.5266  0.3092 -1.6310
 8774TIP3   OH247736   0.437   3.797   4.332 -0.0039 -0.0548 -0.5480
 8774TIP3    H147737   0.521   3.831   4.362 -0.9707  1.2648  0.7800
 8774TIP3    H247738   0.421   3.840   4.248  1.4865 -1.7755 -1.8004
 8775TIP3   OH247739   4.100   2.869   3.057 -0.1292 -0.2606  0.2013
 8775TIP3    H147740   4.069   2.790   3.101 -1.4603  0.5067  0.6958
 8775TIP3    H247741   4.157   2.911   3.121 -1.1537  0.2662  0.8027
 8776TIP3   OH247742   6.620   3.247  14.446  0.4705 -0.5885  0.1825
 8776TIP3    H147743   6.593   3.322  14.394 -0.8674 -2.8646 -2.7016
 8776TIP3    H247744   6.716   3.250  14.444  0.4912 -0.6072 -2.6542
 8777TIP3   OH247745   1.564   6.591   3.110  0.5185 -0.3832  0.5280
 8777TIP3    H147746   1.481   6.630   3.084  0.3774 -0.2339  1.1962
 8777TIP3    H247747   1.618   6.596   3.031  0.1050  0.0712  0.2677
 8778TIP3   OH247748   5.307   4.939   1.865  0.1668  0.1141 -0.1310
 8778TIP3    H147749   5.245   4.899   1.926  0.0115  1.0249  0.3401
 8778TIP3    H247750   5.331   4.869   1.805 -0.6101 -0.4929  0.2462
 8779TIP3   OH247751   4.441   1.921   3.856 -0.4665 -0.1300  0.1565
 8779TIP3    H147752   4.394   1.931   3.939 -0.3000 -0.8573  0.3426
 8779TIP3    H247753   4.388   1.859   3.806  0.3898 -1.1207  0.4517
 8780TIP3   OH247754   0.357   2.673  13.548 -0.6943  0.4458 -0.4442
 8780TIP3    H147755   0.421   2.686  13.479  1.8220  1.0368  1.8244
 8780TIP3    H247756   0.342   2.578  13.549 -1.0956  0.4715 -2.0003
 8781TIP3   OH247757   2.638   3.342  14.928  0.1454 -0.1756 -0.1486
 8781TIP3    H147758   2.584   3.314  14.854  0.6542  0.9428 -0.9704
 8781TIP3    H247759   2.587   3.316  15.005 -0.2043 -1.7333 -0.8552
 8782TIP3   OH247760   3.905   4.338  13.816  0.4803 -0.1119  0.0120
 8782TIP3    H147761   3.853   4.358  13.893  0.9691  0.9366  0.0908
 8782TIP3    H247762   3.996   4.350  13.844  0.6331  1.1803 -0.9429
 8783TIP3   OH247763   2.542   1.290  13.413  0.2042 -0.4105  0.0294
 8783TIP3    H147764   2.591   1.371  13.396 -2.8581  1.2126 -1.7839
 8783TIP3    H247765   2.552   1.276  13.508  0.0682  2.6318  0.5861
 8784TIP3   OH247766   4.091   0.080  13.224  0.2269  0.3667 -0.4827
 8784TIP3    H147767   4.106  -0.014  13.213  0.1697 -0.4081  3.9985
 8784TIP3    H247768   4.175   0.114  13.254 -0.1226  1.4947 -0.7471
 8785TIP3   OH247769   2.579   2.801  13.462  0.2828 -0.3931 -0.0106
 8785TIP3    H147770   2.549   2.815  13.372  0.5460 -0.4380 -0.1077
 8785TIP3    H247771   2.517   2.739  13.499 -0.1635  0.0718  0.0239
 8786TIP3   OH247772   3.378   0.819   1.336 -0.1539 -0.4545 -0.6084
 8786TIP3    H147773   3.295   0.809   1.381 -1.3018 -0.4253 -2.6162
 8786TIP3    H247774   3.436   0.858   1.402 -1.6157 -0.7120  0.9149
 8787TIP3   OH247775   5.555   0.828  13.705  0.5808 -0.1991 -0.0053
 8787TIP3    H147776   5.573   0.917  13.736  1.1289 -0.3360  0.0712
 8787TIP3    H247777   5.637   0.800  13.663  1.1890 -1.5260  1.9661
 8788TIP3   OH247778   3.441   2.331  12.687 -0.1064 -0.2355  0.2191
 8788TIP3    H147779   3.361   2.356  12.640 -0.8401  0.2152  1.6663
 8788TIP3    H247780   3.483   2.414  12.709  1.0039 -0.4734 -0.8663
 8789TIP3   OH247781   2.314   2.958   0.727 -0.0228  0.3293  0.0203
 8789TIP3    H147782   2.292   2.987   0.816 -0.3136 -1.8438  0.7104
 8789TIP3    H247783   2.241   2.989   0.673 -0.0607  1.2958  0.5865
 8790TIP3   OH247784   3.156   4.333  14.289  0.6318  0.1779 -0.8399
 8790TIP3    H147785   3.186   4.253  14.332  0.0905 -0.1797 -1.1115
 8790TIP3    H247786   3.061   4.332  14.298  0.4322 -0.2354 -2.5588
 8791TIP3   OH247787   3.948   4.434  14.417  0.5626 -0.6119 -0.0338
 8791TIP3    H147788   3.870   4.409  14.368 -0.3398  1.8941 -0.0431
 8791TIP3    H247789   3.970   4.357  14.469 -1.2638 -1.7472 -0.8492
 8792TIP3   OH247790   0.612   4.154  16.230 -0.1412  0.1867  0.2502
 8792TIP3    H147791   0.703   4.175  16.251 -0.8475  1.8336  1.9817
 8792TIP3    H247792   0.561   4.219  16.278 -2.2986 -1.4377  0.3084
 8793TIP3   OH247793   0.716   5.678  16.157  0.7109  0.3255  0.3513
 8793TIP3    H147794   0.752   5.602  16.202 -0.2920 -0.7347 -0.6115
 8793TIP3    H247795   0.701   5.742  16.228  0.8851 -0.6182  1.2661
 8794TIP3   OH247796   4.871   2.776   1.821 -0.2018 -0.3945  0.2376
 8794TIP3    H147797   4.893   2.683   1.820 -1.0635 -0.6624  2.0877
 8794TIP3    H247798   4.949   2.820   1.786  0.9454 -1.6980  1.0675
 8795TIP3   OH247799   1.077   6.219  10.693 -0.0180  0.4468 -0.4641
 8795TIP3    H147800   0.985   6.241  10.681 -0.1082  0.0524 -0.5145
 8795TIP3    H247801   1.090   6.142  10.638  0.5310  0.9514 -1.0665
 8796TIP3   OH247802   6.322   6.479  12.144 -0.4186  0.3067 -0.2238
 8796TIP3    H147803   6.299   6.453  12.233 -1.4089 -0.1326 -0.5933
 8796TIP3    H247804   6.264   6.553  12.125  1.6847  2.2151  0.4577
 8797TIP3   OH247805   3.734   3.766  16.417  0.1311 -0.3355 -0.5583
 8797TIP3    H147806   3.752   3.729  16.504 -1.7523  0.4199  0.1975
 8797TIP3    H247807   3.781   3.709  16.357  0.1703 -1.8394  0.8357
 8798TIP3   OH247808   0.878   3.563   2.713 -0.2858 -0.0109  0.2512
 8798TIP3    H147809   0.958   3.609   2.686  0.9647 -1.5539  1.1870
 8798TIP3    H247810   0.839   3.534   2.630  0.8130 -0.3313 -0.1829
 8799TIP3   OH247811   6.732   4.114  15.217  0.4223 -0.4805  0.7366
 8799TIP3    H147812   6.739   4.022  15.190 -0.8178 -1.1718  2.5457
 8799TIP3    H247813   6.639   4.135  15.206  0.7874  0.7783 -0.1943
 8800TIP3   OH247814   4.521   4.328  15.866 -0.4633 -0.6391  0.7436
 8800TIP3    H147815   4.464   4.294  15.797 -1.2022  1.0893  0.4715
 8800TIP3    H247816   4.462   4.372  15.927  0.4337 -0.1056  1.2475
 8801TIP3   OH247817   0.747   4.459  16.919 -0.6760 -0.4029 -0.1085
 8801TIP3    H147818   0.737   4.367  16.946  0.4209 -0.5719 -0.2471
 8801TIP3    H247819   0.822   4.458  16.859 -0.9920  0.5032 -0.5303
 8802TIP3   OH247820   2.780   4.765  14.910  0.2923 -0.0383 -0.1070
 8802TIP3    H147821   2.786   4.748  14.816  1.1509  1.2636 -0.3013
 8802TIP3    H247822   2.733   4.848  14.917  0.2856 -0.0933  0.6211
 8803TIP3   OH247823   3.365   0.854  12.330  0.1185 -0.2409 -0.1291
 8803TIP3    H147824   3.301   0.922  12.350  0.4721 -0.4467  1.9053
 8803TIP3    H247825   3.388   0.869  12.238 -1.4041  1.0157 -0.3453
 8804TIP3   OH247826   4.654   3.622   4.049  0.0549 -0.4289  0.0758
 8804TIP3    H147827   4.735   3.602   4.096 -0.9993 -0.5893  1.8847
 8804TIP3    H247828   4.677   3.696   3.992  1.7979 -1.3281 -0.4637
 8805TIP3   OH247829   1.539   5.781   2.163  0.2026  0.1746  0.1094
 8805TIP3    H147830   1.504   5.822   2.083  0.2710  0.3026  0.1447
 8805TIP3    H247831   1.490   5.823   2.234  0.2376  0.1588  0.1425
 8806TIP3   OH247832   2.305   2.688   5.555  0.1964 -0.3147  0.3513
 8806TIP3    H147833   2.294   2.755   5.623 -1.5659 -0.0704 -0.1344
 8806TIP3    H247834   2.364   2.624   5.595 -0.6400 -0.0880  2.0815
 8807TIP3   OH247835   5.972   0.685   6.124 -0.8381  0.5073 -0.1716
 8807TIP3    H147836   6.018   0.655   6.203  1.3060 -0.6317 -1.7560
 8807TIP3    H247837   5.983   0.780   6.124 -2.7755  0.8158  1.9718
 8808TIP3   OH247838   0.807   2.586   1.366  0.4574 -0.4195  0.1104
 8808TIP3    H147839   0.777   2.496   1.355  0.2115 -0.2305 -0.8985
 8808TIP3    H247840   0.826   2.616   1.277  0.1115  0.6748  0.3882
 8809TIP3   OH247841   2.333   3.676  16.964  0.1662  0.1057 -0.1741
 8809TIP3    H147842   2.284   3.598  16.991  1.0571  0.0010  1.2953
 8809TIP3    H247843   2.272   3.748  16.978  1.3285  0.4748  5.3875
 8810TIP3   OH247844   6.207   1.009  14.710 -0.0443 -0.1755 -0.3319
 8810TIP3    H147845   6.172   1.018  14.799  0.3004  0.9154 -0.2926
 8810TIP3    H247846   6.161   0.933  14.674  1.1622 -1.8275  1.3989
 8811TIP3   OH247847   2.385   4.616   1.551  0.2660 -0.6072 -0.1037
 8811TIP3    H147848   2.347   4.692   1.509  1.7383  0.8248  1.0099
 8811TIP3    H247849   2.385   4.548   1.484 -3.9152 -0.7059 -0.2233
 8812TIP3   OH247850   2.248   1.796  16.836  0.2007 -0.3427  0.4098
 8812TIP3    H147851   2.293   1.723  16.794 -2.6817 -1.8822 -0.2373
 8812TIP3    H247852   2.280   1.873  16.789 -0.4376 -1.7075 -2.5177
 8813TIP3   OH247853   2.471   5.138   6.133  0.2392 -0.1079 -0.1593
 8813TIP3    H147854   2.518   5.177   6.059 -1.9343 -0.3996 -1.7927
 8813TIP3    H247855   2.538   5.088   6.180  1.6408 -0.1824 -2.1154
 8814TIP3   OH247856   2.363   5.375  12.398 -0.3331 -0.4228  0.4883
 8814TIP3    H147857   2.397   5.315  12.332 -2.3465 -0.6472 -0.4259
 8814TIP3    H247858   2.441   5.416  12.436  0.9260  0.2910 -2.5585
 8815TIP3   OH247859   1.536   5.515   5.667  0.4738  0.6082 -0.3388
 8815TIP3    H147860   1.606   5.463   5.705 -0.1250  1.5238  2.1847
 8815TIP3    H247861   1.573   5.602   5.658  0.1774  0.7114 -0.5700
 8816TIP3   OH247862   0.426   5.351   3.913  0.1768 -0.2227  0.4214
 8816TIP3    H147863   0.333   5.359   3.932 -0.0638  0.6156 -0.9762
 8816TIP3    H247864   0.443   5.416   3.845  1.6693 -0.7606  0.2298
 8817TIP3   OH247865   0.865   3.823  15.661  0.4701 -0.4380  0.0128
 8817TIP3    H147866   0.830   3.904  15.623 -2.6362 -1.9073 -0.6183
 8817TIP3    H247867   0.877   3.765  15.586  0.7185 -1.2182  0.6407
 8818TIP3   OH247868   1.588   4.356   4.304 -0.2033 -0.1544 -0.0086
 8818TIP3    H147869   1.522   4.291   4.327 -1.5060  1.4681  1.0989
 8818TIP3    H247870   1.623   4.326   4.220 -3.4006 -0.3701 -1.4209
 8819TIP3   OH247871   5.036   5.502  11.040  0.2200  0.3053 -0.0231
 8819TIP3    H147872   5.005   5.580  11.086  0.0709  0.7371 -0.8245
 8819TIP3    H247873   5.090   5.455  11.103  0.8797  1.4153  0.2521
 8820TIP3   OH247874   3.054   3.643  11.792 -0.0117  0.3278 -0.0261
 8820TIP3    H147875   3.105   3.712  11.834 -2.3046  1.8390  0.4529
 8820TIP3    H247876   3.044   3.673  11.702  2.0359 -1.2533 -0.8597
 8821TIP3   OH247877   4.369   4.393   3.541 -0.3665  0.3863  0.0279
 8821TIP3    H147878   4.433   4.463   3.524  1.0168 -0.6146  0.9184
 8821TIP3    H247879   4.322   4.423   3.619 -0.3756  0.7112 -0.0976
 8822TIP3   OH247880   1.776   2.776  12.822  0.3238  0.1030 -0.3818
 8822TIP3    H147881   1.745   2.699  12.869  0.9839 -0.2662 -0.5311
 8822TIP3    H247882   1.862   2.751  12.789  0.7692  1.0819 -0.0079
 8823TIP3   OH247883   3.945   3.246  14.091  0.2262  0.0238 -0.8524
 8823TIP3    H147884   3.861   3.201  14.092  0.9385 -1.3785  1.0320
 8823TIP3    H247885   3.982   3.231  14.178  2.7358 -0.0296 -1.8383
 8824TIP3   OH247886   2.941   6.071  15.566 -0.3073  0.0257  0.0295
 8824TIP3    H147887   2.869   6.093  15.625 -0.0793 -0.4227  0.4842
 8824TIP3    H247888   3.015   6.051  15.624 -0.4175 -1.6001 -0.3456
 8825TIP3   OH247889   3.595   4.013   1.283 -0.4196 -0.1673 -0.6079
 8825TIP3    H147890   3.584   3.939   1.223 -0.4739  0.6058 -1.5706
 8825TIP3    H247891   3.510   4.057   1.284 -0.6918 -0.6747  0.7519
 8826TIP3   OH247892   6.205   1.334   4.564  0.3085  0.1033 -0.1660
 8826TIP3    H147893   6.226   1.393   4.491 -0.9542  0.6886 -0.0750
 8826TIP3    H247894   6.283   1.280   4.573  0.6703  0.3184 -1.6651
 8827TIP3   OH247895   4.010   6.027  14.898 -0.6901  0.6259 -0.3429
 8827TIP3    H147896   4.029   6.003  14.988  1.5615  1.1844 -0.6096
 8827TIP3    H247897   3.930   6.079  14.903 -0.6828  0.5241  1.3052
 8828TIP3   OH247898   6.141   4.592  16.395  0.1693  0.8903 -0.1260
 8828TIP3    H147899   6.065   4.566  16.343 -0.3022 -0.2992  1.1075
 8828TIP3    H247900   6.151   4.686  16.378  0.8271  0.3599 -3.3421
 8829TIP3   OH247901   3.781   0.488   2.417 -0.0209 -0.1550  0.0284
 8829TIP3    H147902   3.832   0.422   2.369  0.6716 -0.0510  0.6061
 8829TIP3    H247903   3.707   0.439   2.454 -0.4957 -0.2589 -1.0259
 8830TIP3   OH247904   5.565   3.458  13.991 -0.6121  0.3962 -0.7064
 8830TIP3    H147905   5.581   3.464  13.897  1.0248 -1.2865 -0.5901
 8830TIP3    H247906   5.533   3.370  14.005 -1.6453  0.8972  0.2420
 8831TIP3   OH247907   2.072   6.126   6.073  0.2374 -0.1640  0.0868
 8831TIP3    H147908   2.076   6.075   5.992  0.7328 -0.2307  0.1479
 8831TIP3    H247909   2.086   6.216   6.045  3.1330 -0.4367  0.3408
 8832TIP3   OH247910   0.865   5.189   5.129  0.0908 -0.2338 -0.0184
 8832TIP3    H147911   0.912   5.263   5.091 -0.9054  0.0734 -0.6732
 8832TIP3    H247912   0.901   5.113   5.084 -1.4167  0.1610 -2.0085
 8833TIP3   OH247913   5.948   6.660   0.317 -0.9059  0.2706 -0.7361
 8833TIP3    H147914   6.005   6.611   0.259 -1.8790  1.1601 -2.5214
 8833TIP3    H247915   5.910   6.593   0.375  1.0896 -0.4519 -0.1675
 8834TIP3   OH247916   6.690   2.457   2.755 -0.1919 -0.7547  0.9166
 8834TIP3    H147917   6.613   2.502   2.789 -0.5207 -0.8049  0.2607
 8834TIP3    H247918   6.725   2.516   2.688 -0.9264 -1.6737 -0.3158
 8835TIP3   OH247919   5.142   3.283   2.221  0.1792  0.9725 -0.1676
 8835TIP3    H147920   5.171   3.372   2.237 -1.7853  1.4159  1.3413
 8835TIP3    H247921   5.193   3.229   2.281  0.2509  1.3042  0.0715
 8836TIP3   OH247922   2.927   5.543  17.054 -0.4238 -0.8955  0.8572
 8836TIP3    H147923   2.933   5.450  17.032 -1.9631 -1.1166  1.2850
 8836TIP3    H247924   2.844   5.572  17.016  0.2212  0.4205  0.3656
 8837TIP3   OH247925   2.264   1.752   1.903  0.0509  0.5368  0.0841
 8837TIP3    H147926   2.212   1.680   1.939 -0.3485  1.1959  0.8688
 8837TIP3    H247927   2.296   1.719   1.819 -0.7051 -0.2946  0.1022
 8838TIP3   OH247928   5.342   1.898  16.557  0.1571 -0.5556 -0.3676
 8838TIP3    H147929   5.324   1.977  16.507  1.2093 -0.1611 -0.1313
 8838TIP3    H247930   5.255   1.870  16.589 -0.2177  0.5329 -0.3947
 8839TIP3   OH247931   3.910   2.078  10.758  0.0606 -0.3501  0.1073
 8839TIP3    H147932   3.874   1.992  10.781  2.0016 -1.0438  0.7353
 8839TIP3    H247933   3.931   2.119  10.842 -0.2042  0.4518 -0.2125
 8840TIP3   OH247934   3.902   5.972   4.584  0.3345 -0.2020  0.5452
 8840TIP3    H147935   3.978   6.027   4.603  1.1784 -1.9113  2.5746
 8840TIP3    H247936   3.831   6.034   4.568  1.1834  1.5180  2.9021
 8841TIP3   OH247937   3.351   5.124   3.603 -0.4859 -0.5259 -0.4058
 8841TIP3    H147938   3.296   5.154   3.675  0.3990 -0.5920  0.3161
 8841TIP3    H247939   3.420   5.190   3.597  0.4002 -1.4069 -0.0645
 8842TIP3   OH247940   3.612   4.710   0.460  0.4398  0.3480  0.6889
 8842TIP3    H147941   3.683   4.713   0.524 -0.1403 -1.4334  1.4664
 8842TIP3    H247942   3.537   4.676   0.508 -0.8356  1.6807 -0.2489
 8843TIP3   OH247943   6.236   5.306  15.560 -0.2663  0.1319 -0.3759
 8843TIP3    H147944   6.295   5.262  15.499  0.2254  0.1331  0.0932
 8843TIP3    H247945   6.287   5.317  15.640 -0.8958  0.1535  0.0312
 8844TIP3   OH247946   2.533   0.914  12.968 -1.1177 -0.0362  0.2239
 8844TIP3    H147947   2.549   0.964  12.888 -1.8400 -0.7846 -0.3953
 8844TIP3    H247948   2.607   0.854  12.974 -0.9173  0.2113  0.2826
 8845TIP3   OH247949   5.103   5.519  12.149 -0.7430  0.0933  0.3270
 8845TIP3    H147950   5.178   5.467  12.177 -0.0601  1.0196  0.2304
 8845TIP3    H247951   5.114   5.604  12.192 -0.8560  0.7947 -0.9929
 8846TIP3   OH247952   0.933   5.952   6.196  0.4234 -0.3177  0.1917
 8846TIP3    H147953   1.008   5.992   6.151  1.0601 -1.0893  0.5424
 8846TIP3    H247954   0.966   5.867   6.226 -0.4674 -0.4811  0.7321
 8847TIP3   OH247955   1.799   1.146   3.503 -0.6229 -0.7700  0.3157
 8847TIP3    H147956   1.735   1.091   3.458  0.2610  0.0809 -2.1726
 8847TIP3    H247957   1.836   1.201   3.434  2.1609 -0.6014  1.8035
 8848TIP3   OH247958   6.385   2.088   4.487  0.0798  0.0571  0.5672
 8848TIP3    H147959   6.400   2.018   4.425 -0.2313  0.7212 -0.2752
 8848TIP3    H247960   6.462   2.145   4.479  0.5513 -0.4024  1.5758
 8849TIP3   OH247961   3.943   4.964  15.260 -0.6470 -0.3904  0.4249
 8849TIP3    H147962   3.963   4.959  15.353  0.1418 -0.0136  0.2831
 8849TIP3    H247963   4.026   4.988  15.219 -1.0626 -0.2418 -0.3439
 8850TIP3   OH247964   2.206   0.784   4.339  0.2977  0.5309  0.9317
 8850TIP3    H147965   2.180   0.830   4.259  4.1632  0.6379 -0.4833
 8850TIP3    H247966   2.227   0.854   4.401 -1.0463  0.4731  1.4754
 8851TIP3   OH247967   1.832   3.192  16.983  0.2760 -0.4259  0.3691
 8851TIP3    H147968   1.894   3.126  16.950 -0.5000 -1.1608  0.3253
 8851TIP3    H247969   1.765   3.197  16.914 -0.5472 -0.8340  1.1212
 8852TIP3   OH247970   0.551   3.370  14.242 -0.0087  0.2812 -0.3996
 8852TIP3    H147971   0.611   3.299  14.222 -0.4233  0.2519 -1.6334
 8852TIP3    H247972   0.487   3.369  14.171 -1.0969  0.7260  0.5327
 8853TIP3   OH247973   2.660   2.232  12.263  0.1984 -0.2633 -0.2401
 8853TIP3    H147974   2.605   2.276  12.198 -0.6584 -1.1639 -0.1363
 8853TIP3    H247975   2.600   2.206  12.332  1.0975  0.6816  0.9554
 8854TIP3   OH247976   4.207   0.248   0.800  0.1223 -0.1466  0.1990
 8854TIP3    H147977   4.245   0.280   0.719  0.4351  1.1543  0.8234
 8854TIP3    H247978   4.186   0.156   0.783  2.1955 -0.5120 -0.6374
 8855TIP3   OH247979   5.212   6.176   2.487 -0.2451  0.2738  0.2457
 8855TIP3    H147980   5.208   6.086   2.455  0.1484 -0.7596  2.8385
 8855TIP3    H247981   5.305   6.199   2.483 -0.3181  0.4916 -0.2228
 8856TIP3   OH247982   0.068   6.287   3.138 -0.6926 -0.3244 -0.3281
 8856TIP3    H147983  -0.023   6.289   3.166 -0.5242  0.7554  0.2061
 8856TIP3    H247984   0.105   6.369   3.171  0.5618 -0.9027 -0.2288
 8857TIP3   OH247985   3.335   0.050   2.416 -0.0331 -0.0261 -0.1978
 8857TIP3    H147986   3.256   0.087   2.377 -0.4999  0.4285  1.1181
 8857TIP3    H247987   3.366  -0.014   2.352 -0.6321  0.8307 -1.3895
 8858TIP3   OH247988   4.257   5.789  10.140  0.3682  0.0234 -0.1254
 8858TIP3    H147989   4.175   5.758  10.179 -0.2571  1.6361 -0.0775
 8858TIP3    H247990   4.279   5.868  10.189  1.2400  0.3653 -1.0206
 8859TIP3   OH247991   3.514   3.473   2.237  0.3115  0.2648  0.4726
 8859TIP3    H147992   3.478   3.402   2.184 -0.7403  0.3450  1.0699
 8859TIP3    H247993   3.501   3.551   2.185 -0.6555  0.3331  0.8033
 8860TIP3   OH247994   1.277   1.727   5.178 -0.3173 -0.1606  0.2334
 8860TIP3    H147995   1.294   1.775   5.097 -0.9264  2.1882  1.4318
 8860TIP3    H247996   1.191   1.757   5.206  0.5686  0.3503  2.5907
 8861TIP3   OH247997   0.753   0.204   1.098 -0.6884  0.6002 -0.1753
 8861TIP3    H147998   0.801   0.279   1.065 -1.1854  0.9565 -0.0983
 8861TIP3    H247999   0.745   0.219   1.192  0.0348 -0.0229 -0.0037
 8862TIP3   OH248000   2.282   5.368   4.461 -0.0622 -0.4161 -0.0627
 8862TIP3    H148001   2.340   5.352   4.536  1.2652 -0.0534 -0.9609
 8862TIP3    H248002   2.291   5.290   4.407  1.2823  0.4961 -1.2339
 8863TIP3   OH248003   6.207   1.079   5.257  0.0651 -0.0794 -0.4034
 8863TIP3    H148004   6.200   1.168   5.292  0.1450 -0.0970 -0.3422
 8863TIP3    H248005   6.173   1.085   5.168  1.1552  0.2590 -0.8097
 8864TIP3   OH248006   0.510   3.617  14.336 -0.3747 -0.3028  0.3349
 8864TIP3    H148007   0.510   3.676  14.261  0.6235 -0.7053  0.0092
 8864TIP3    H248008   0.537   3.533  14.300 -0.5613 -0.6661  1.0302
 8865TIP3   OH248009   2.317   5.331   1.106 -0.0564 -0.1028  0.1052
 8865TIP3    H148010   2.348   5.352   1.194  1.4277 -2.5019  0.2506
 8865TIP3    H248011   2.258   5.256   1.118 -1.2925  0.6847 -0.7932
 8866TIP3   OH248012   6.705   1.128   5.813 -0.2252  0.0744 -0.2882
 8866TIP3    H148013   6.728   1.085   5.895  0.0656 -0.0093 -0.4154
 8866TIP3    H248014   6.789   1.150   5.772 -0.3650  0.6298 -0.2949
 8867TIP3   OH248015   0.439   3.618   2.916 -0.0426  0.1571 -0.4330
 8867TIP3    H148016   0.422   3.664   2.998  0.0633 -1.9817  0.8529
 8867TIP3    H248017   0.528   3.646   2.891  0.6156 -0.4255  1.1232
 8868TIP3   OH248018   4.250   6.393   5.889  0.2717 -0.0778 -0.1780
 8868TIP3    H148019   4.245   6.377   5.984  1.4277 -0.0415 -0.0995
 8868TIP3    H248020   4.158   6.396   5.861 -0.1241  0.7518  1.0784
 8869TIP3   OH248021   6.159   3.372  17.155 -0.1004 -0.1026  0.1082
 8869TIP3    H148022   6.079   3.412  17.188 -0.1909 -1.3961  1.5358
 8869TIP3    H248023   6.129   3.299  17.100  0.0764 -0.3692  0.3578
 8870TIP3   OH248024   2.265   3.778  14.602  0.1872 -0.4114 -0.5987
 8870TIP3    H148025   2.345   3.729  14.584 -0.1471 -0.7869 -1.0786
 8870TIP3    H248026   2.242   3.755  14.692  2.2333  1.9804  0.6916
 8871TIP3   OH248027   6.274   6.535   4.662  0.1218  0.0303  0.1836
 8871TIP3    H148028   6.200   6.581   4.623  1.4568  1.6167 -0.5835
 8871TIP3    H248029   6.235   6.459   4.706 -1.9266  0.7732 -0.2666
 8872TIP3   OH248030   5.196   0.956  12.571  0.3456 -0.0878 -0.3827
 8872TIP3    H148031   5.252   0.937  12.646 -0.7352 -0.9131  0.2540
 8872TIP3    H248032   5.132   1.018  12.605 -0.0355 -0.3199 -0.6692
 8873TIP3   OH248033   6.088   6.605   1.304  0.1968 -0.2491 -0.0511
 8873TIP3    H148034   6.132   6.675   1.353 -0.3611 -0.0376  0.1511
 8873TIP3    H248035   6.069   6.539   1.370  2.4300 -1.4839 -0.5420
 8874TIP3   OH248036   4.094   6.602   0.652  0.0054  0.6001  0.6099
 8874TIP3    H148037   4.005   6.631   0.671  0.2710  0.8961  1.4393
 8874TIP3    H248038   4.150   6.668   0.694  0.6203  0.6536 -0.2598
 8875TIP3   OH248039   6.146   6.077   3.368 -0.5723 -0.2161 -0.6069
 8875TIP3    H148040   6.195   5.997   3.388 -0.0058 -0.0486 -1.2676
 8875TIP3    H248041   6.134   6.119   3.453 -1.2756 -1.2146 -0.1956
 8876TIP3   OH248042   2.069   2.374  12.643 -0.7007  0.2281  0.2243
 8876TIP3    H148043   2.007   2.345  12.576 -0.0128  0.2834 -0.4569
 8876TIP3    H248044   2.052   2.468  12.653 -0.1317  0.4332 -0.6258
 8877TIP3   OH248045   5.959   6.517  16.872  0.2407 -0.6139 -0.0706
 8877TIP3    H148046   5.912   6.439  16.902  0.7318 -1.7008 -2.0032
 8877TIP3    H248047   5.963   6.508  16.777  3.7675 -0.2488 -0.0848
 8878TIP3   OH248048   6.553   0.953   2.415 -0.0872 -0.5834 -0.3312
 8878TIP3    H148049   6.646   0.932   2.401  0.0610 -0.3823  0.3059
 8878TIP3    H248050   6.507   0.871   2.396  0.3060 -0.9361  0.1991
 8879TIP3   OH248051   0.220   5.070  15.420  0.1108  0.4055  0.0878
 8879TIP3    H148052   0.154   5.137  15.440  1.2103  1.2259  1.0534
 8879TIP3    H248053   0.292   5.118  15.380  0.4482 -0.3780 -0.2627
 8880TIP3   OH248054   1.637   2.549   1.610 -0.4692  0.1834  0.5478
 8880TIP3    H148055   1.572   2.480   1.625 -1.7592  0.9605 -1.1084
 8880TIP3    H248056   1.697   2.512   1.545 -0.7682  0.3543  0.1668
 8881TIP3   OH248057   6.041   2.828  11.702  0.0244 -0.3182 -0.5628
 8881TIP3    H148058   5.977   2.870  11.759  1.7338  1.6144  0.0968
 8881TIP3    H248059   5.989   2.782  11.637 -2.0757  1.9402 -0.6466
 8882TIP3   OH248060   0.141   3.979  13.423 -0.1017 -0.7366 -0.7845
 8882TIP3    H148061   0.223   3.947  13.386  0.7124 -1.1430  1.2393
 8882TIP3    H248062   0.098   3.901  13.457  1.6480 -0.0737  3.7046
 8883TIP3   OH248063   2.294   5.985  14.027  0.0739  0.2647 -0.6150
 8883TIP3    H148064   2.290   6.062  13.970 -0.6377 -0.2571 -1.3004
 8883TIP3    H248065   2.288   5.910  13.967 -1.1176 -0.2907  0.1539
 8884TIP3   OH248066   1.100   3.230  14.800 -0.7159 -0.8847 -0.0333
 8884TIP3    H148067   1.109   3.147  14.754 -0.8193  0.5525 -2.8642
 8884TIP3    H248068   1.010   3.257  14.785 -0.4706  0.1081  0.1462
 8885TIP3   OH248069   5.306   2.623   3.205 -0.4244  0.2464 -0.4029
 8885TIP3    H148070   5.301   2.706   3.157  0.0985  1.2144  1.1244
 8885TIP3    H248071   5.399   2.600   3.204 -0.4630  0.0748 -0.1747
 8886TIP3   OH248072   5.446   3.465  12.090 -0.6447  0.1564 -0.0452
 8886TIP3    H148073   5.539   3.484  12.080 -1.0442  1.7599 -1.0372
 8886TIP3    H248074   5.428   3.479  12.183  0.1731 -0.5395  0.2244
 8887TIP3   OH248075   2.228   4.166   3.263  0.3065  0.1435 -0.1114
 8887TIP3    H148076   2.188   4.142   3.179 -2.4962 -0.5384  1.2853
 8887TIP3    H248077   2.230   4.262   3.262  0.6220  0.1324 -1.0951
 8888TIP3   OH248078   4.596   4.106  11.575 -0.3723 -0.0918 -0.2643
 8888TIP3    H148079   4.580   4.114  11.669  1.3569 -1.0887  0.1615
 8888TIP3    H248080   4.691   4.105  11.567 -0.4656  0.7861 -2.1279
 8889TIP3   OH248081   1.051   1.982  15.135 -0.2103 -0.2723  0.2494
 8889TIP3    H148082   0.960   1.994  15.107  1.1971  2.9699 -3.9851
 8889TIP3    H248083   1.079   1.902  15.091  0.2487  1.5513 -3.1046
 8890TIP3   OH248084   2.619   3.100   2.211  0.3568  0.3588 -0.0794
 8890TIP3    H148085   2.676   3.056   2.149  3.8409  0.5887  2.6795
 8890TIP3    H248086   2.569   3.029   2.252  0.3409 -0.1260 -0.9142
 8891TIP3   OH248087   0.199   6.724   2.385  0.5317 -0.6730  0.1176
 8891TIP3    H148088   0.164   6.811   2.404  0.0468 -0.9687  0.6055
 8891TIP3    H248089   0.220   6.687   2.471  0.9349 -0.9542 -0.0995
 8892TIP3   OH248090   2.287   0.708  12.908  0.0169  0.1977 -0.4188
 8892TIP3    H148091   2.206   0.660  12.925  1.6016 -2.0151  1.8056
 8892TIP3    H248092   2.289   0.776  12.975  1.0279 -1.3153  1.1775
 8893TIP3   OH248093   5.830   2.079  12.505 -0.0177 -0.3374 -0.1909
 8893TIP3    H148094   5.888   2.008  12.479 -0.0044 -1.1141  1.8075
 8893TIP3    H248095   5.849   2.150  12.443  2.2812 -0.9370 -0.2500
 8894TIP3   OH248096   5.317   0.137  16.301  1.2900 -0.0807  0.0612
 8894TIP3    H148097   5.411   0.125  16.304  1.3475  0.4306  0.3716
 8894TIP3    H248098   5.302   0.223  16.339  0.4754 -1.2883  2.6767
 8895TIP3   OH248099   6.734   6.414  11.964 -0.2314 -0.3024 -0.1642
 8895TIP3    H148100   6.736   6.439  11.871 -0.1921  0.8325  0.1309
 8895TIP3    H248101   6.823   6.427  11.995 -0.6052  0.9939  0.4404
 8896TIP3   OH248102   0.065   0.548  14.809  0.3615 -0.0095 -0.4084
 8896TIP3    H148103   0.082   0.466  14.763 -0.6329 -1.1415  1.1464
 8896TIP3    H248104   0.146   0.567  14.856 -0.0254 -1.2321  0.8276
 8897TIP3   OH248105   5.041   2.815   2.878 -0.1376  0.3802 -0.2769
 8897TIP3    H148106   5.062   2.909   2.870  1.0197  0.1240 -0.4184
 8897TIP3    H248107   5.000   2.808   2.964  0.8397  0.8590  0.2553
 8898TIP3   OH248108   5.356   1.428  13.977  0.5789 -0.4239  0.1590
 8898TIP3    H148109   5.289   1.463  14.036  0.5498 -0.9498  0.4478
 8898TIP3    H248110   5.310   1.411  13.895  0.4337 -0.4525  0.2466
 8899TIP3   OH248111   6.279   3.662  15.198 -0.5176  0.0616  0.8675
 8899TIP3    H148112   6.284   3.566  15.203  0.0963  0.1359  2.1545
 8899TIP3    H248113   6.186   3.682  15.208 -0.7975 -0.4261 -0.5021
 8900TIP3   OH248114   3.538   0.487   3.946 -0.9715 -0.3519  0.4664
 8900TIP3    H148115   3.500   0.400   3.937 -2.3337  0.1031  1.6096
 8900TIP3    H248116   3.469   0.547   3.918 -1.0928  0.4842  2.4060
 8901TIP3   OH248117   6.463   4.717   6.407 -0.1368  0.0997  0.4200
 8901TIP3    H148118   6.556   4.708   6.427 -0.2424 -0.0728  0.8467
 8901TIP3    H248119   6.441   4.638   6.357  0.6904  1.6437 -2.6606
 8902TIP3   OH248120   2.199   6.506   2.892 -0.3467 -0.4188  0.4143
 8902TIP3    H148121   2.210   6.453   2.813 -1.0755 -1.4780  1.0038
 8902TIP3    H248122   2.265   6.473   2.953  1.0872  1.2443 -0.1270
 8903TIP3   OH248123   0.692   4.057  10.719 -0.8607 -0.0602  0.0849
 8903TIP3    H148124   0.765   4.108  10.684  0.5671 -0.0640  2.8187
 8903TIP3    H248125   0.732   3.999  10.783 -3.3088  0.3536  2.1374
 8904TIP3   OH248126   5.938   1.232   4.550 -0.0266  0.2251 -0.0754
 8904TIP3    H148127   5.935   1.146   4.592  0.0389  0.9315  1.4489
 8904TIP3    H248128   6.024   1.267   4.573 -0.5466  1.2156  0.3991
 8905TIP3   OH248129   1.619   0.017  10.831 -0.1673  0.4898  0.3049
 8905TIP3    H148130   1.614   0.109  10.806 -1.6541  0.4912  0.5154
 8905TIP3    H248131   1.621  -0.031  10.748  0.7550  0.7085  0.1957
 8906TIP3   OH248132   5.705   2.370  15.918  0.0023 -0.1869  0.1240
 8906TIP3    H148133   5.783   2.319  15.942 -0.6210 -0.6828  1.1538
 8906TIP3    H248134   5.725   2.404  15.831  1.6625  0.2761  0.6322
 8907TIP3   OH248135   3.693   0.807  16.390  0.3897  0.4598  0.0694
 8907TIP3    H148136   3.642   0.856  16.455 -1.2373 -1.2951  0.2176
 8907TIP3    H248137   3.763   0.766  16.439 -1.7042 -2.0973  1.1467
 8908TIP3   OH248138   5.616   1.886   0.883 -0.1085 -0.5552  0.5443
 8908TIP3    H148139   5.626   1.971   0.928  0.7333 -0.1519 -0.3825
 8908TIP3    H248140   5.663   1.824   0.938  1.1408 -0.0182  0.1034
 8909TIP3   OH248141   1.207   4.170   3.904  0.0461 -0.5994 -0.0769
 8909TIP3    H148142   1.175   4.210   3.823  0.8686  0.8363  0.2692
 8909TIP3    H248143   1.129   4.135   3.946 -0.8922  1.5017  0.0508
 8910TIP3   OH248144   4.670   6.019  15.049 -0.0647 -0.0440  0.2087
 8910TIP3    H148145   4.579   5.996  15.032  0.0703  1.1060 -2.6931
 8910TIP3    H248146   4.718   5.937  15.040 -0.6616 -0.3785  0.0557
 8911TIP3   OH248147   6.693   2.184  11.963 -0.4461  0.9956  0.2017
 8911TIP3    H148148   6.721   2.093  11.978 -1.6243  0.6109  0.1696
 8911TIP3    H248149   6.597   2.179  11.962 -0.5617  2.4307  1.4591
 8912TIP3   OH248150   1.420   0.336  14.124  0.2683 -0.2157 -0.0823
 8912TIP3    H148151   1.462   0.289  14.196 -0.2102 -1.3344 -0.5114
 8912TIP3    H248152   1.422   0.274  14.051 -2.0612 -0.2743 -0.1435
 8913TIP3   OH248153   5.465   6.135   4.194  0.2945  0.6505  0.1158
 8913TIP3    H148154   5.405   6.208   4.179 -0.0874  0.4841  0.7735
 8913TIP3    H248155   5.552   6.173   4.187  0.1986  0.5713 -2.6099
 8914TIP3   OH248156   1.230   5.446   1.775  0.0690 -0.0804  0.4532
 8914TIP3    H148157   1.315   5.449   1.732 -0.6232  1.1359 -0.9258
 8914TIP3    H248158   1.232   5.515   1.840 -1.1267  2.7583 -2.2609
 8915TIP3   OH248159   3.805   0.919  11.515 -0.0410  0.5500  0.5922
 8915TIP3    H148160   3.753   0.979  11.462  1.1037  0.1213 -1.1047
 8915TIP3    H248161   3.747   0.894  11.588 -0.9134  2.7928  0.7301
 8916TIP3   OH248162   4.943   1.523   5.909  0.0023 -0.1009  0.3199
 8916TIP3    H148163   4.915   1.444   5.863 -0.0967  0.9671 -1.5520
 8916TIP3    H248164   5.035   1.507   5.930  0.1411 -0.5244 -0.5478
 8917TIP3   OH248165   6.021   2.039   2.906 -0.0016 -0.0027  0.3063
 8917TIP3    H148166   5.981   2.037   2.993  0.3630 -1.4987  0.4785
 8917TIP3    H248167   6.114   2.057   2.921 -0.0426  0.3340  0.1706
 8918TIP3   OH248168   3.682   0.880  12.784 -0.1893  0.4270  0.1422
 8918TIP3    H148169   3.673   0.862  12.690  0.5849 -1.9482  0.4555
 8918TIP3    H248170   3.710   0.971  12.788 -0.0571  0.5269 -1.9517
 8919TIP3   OH248171   1.384   5.284  16.764  0.0218 -0.1996 -0.3281
 8919TIP3    H148172   1.338   5.200  16.762 -0.5207  0.0982 -0.7215
 8919TIP3    H248173   1.315   5.349  16.780  0.6350  0.0504  1.5308
 8920TIP3   OH248174   3.554   3.917  16.595 -0.2284 -0.0575 -0.2855
 8920TIP3    H148175   3.503   3.944  16.519 -0.5275  1.0710  0.2926
 8920TIP3    H248176   3.638   3.888  16.559 -1.4676 -2.6051 -1.3213
 8921TIP3   OH248177   3.347   0.414   0.355  0.3631  0.2951  0.5217
 8921TIP3    H148178   3.367   0.502   0.322 -0.9734  0.7102  0.7767
 8921TIP3    H248179   3.359   0.357   0.279  2.9277  0.3932  0.7401
 8922TIP3   OH248180   4.469   0.657  12.195 -0.4378 -0.7710 -0.2842
 8922TIP3    H148181   4.388   0.635  12.149 -0.3334 -2.6684  0.3728
 8922TIP3    H248182   4.538   0.616  12.144 -0.0052 -0.2015 -0.1667
 8923TIP3   OH248183   1.753   3.204   5.589 -0.1418  0.3446 -0.9908
 8923TIP3    H148184   1.831   3.248   5.556 -0.6049  1.5336 -0.5583
 8923TIP3    H248185   1.774   3.111   5.583  1.0799  0.6257 -1.4236
 8924TIP3   OH248186   6.655   2.759   4.747 -0.5281 -0.3165 -0.0587
 8924TIP3    H148187   6.678   2.849   4.772  3.2595 -0.9658 -0.5459
 8924TIP3    H248188   6.612   2.768   4.662  1.2366  1.0189 -0.8752
 8925TIP3   OH248189   2.307   0.688  11.843  0.4290 -0.2688 -0.1241
 8925TIP3    H148190   2.220   0.728  11.848  0.8918  0.7030  0.6330
 8925TIP3    H248191   2.368   0.760  11.864  1.4071 -0.9570 -0.5031
 8926TIP3   OH248192   4.307   4.565   4.473  0.9006 -0.1381 -0.2523
 8926TIP3    H148193   4.231   4.520   4.511  0.3449  0.7365 -0.2851
 8926TIP3    H248194   4.308   4.650   4.517  0.8738  0.4949 -1.4469
 8927TIP3   OH248195   4.299   5.135   3.868  0.3316 -0.4388  0.1959
 8927TIP3    H148196   4.275   5.185   3.790 -0.0789  0.6073  0.9748
 8927TIP3    H248197   4.343   5.057   3.834  0.0720 -0.0458 -1.0798
 8928TIP3   OH248198   2.341   5.666   4.503 -0.3480  0.2513 -0.2343
 8928TIP3    H148199   2.410   5.706   4.450 -0.6705  0.9436 -0.1349
 8928TIP3    H248200   2.347   5.572   4.483  1.0121  0.2189  0.2331
 8929TIP3   OH248201   4.315   4.232   4.368 -0.0805  0.2197  0.2834
 8929TIP3    H148202   4.347   4.284   4.294  0.8000 -0.5200  0.1319
 8929TIP3    H248203   4.220   4.242   4.365  0.0043  0.8965 -0.4222
 8930TIP3   OH248204   5.484   3.097  12.297  0.9257  0.0101  0.5085
 8930TIP3    H148205   5.487   3.071  12.205  1.4047  0.5404  0.3684
 8930TIP3    H248206   5.576   3.107  12.322  0.8064 -0.4054  1.1249
 8931TIP3   OH248207   3.510   5.152   0.680 -0.0541 -0.3233 -0.4526
 8931TIP3    H148208   3.452   5.188   0.612  0.3780  2.1423  0.3708
 8931TIP3    H248209   3.557   5.228   0.714  1.4729 -1.8243  1.0012
 8932TIP3   OH248210   0.537   5.666  16.580 -0.0339 -0.2413  0.2735
 8932TIP3    H148211   0.459   5.720  16.588 -0.3562 -0.6885  0.1636
 8932TIP3    H248212   0.505   5.576  16.580  0.6218 -0.5017  1.9046
 8933TIP3   OH248213   4.019   3.282  11.617 -0.3360  0.6850 -0.9487
 8933TIP3    H148214   4.039   3.188  11.615  2.2223  1.1752 -1.0443
 8933TIP3    H248215   4.019   3.304  11.710 -2.5541  0.3623 -0.8002
 8934TIP3   OH248216   4.093   0.091   0.355 -0.6906  0.9060  0.8723
 8934TIP3    H148217   4.016   0.146   0.366  0.2562  2.9573 -1.6432
 8934TIP3    H248218   4.162   0.137   0.401 -0.0990  1.4114 -0.4519
 8935TIP3   OH248219   3.991   6.593   1.039  0.1740  0.0342 -0.2991
 8935TIP3    H148220   4.086   6.606   1.036  0.3084 -0.9472 -0.6655
 8935TIP3    H248221   3.981   6.498   1.045 -0.7679  0.1842  0.6603
 8936TIP3   OH248222   6.053   2.239  14.825  0.6230 -0.7195 -0.4368
 8936TIP3    H148223   6.065   2.213  14.734  0.3880 -0.8937 -0.4181
 8936TIP3    H248224   5.963   2.272  14.829  0.1629 -1.9696  0.0308
 8937TIP3   OH248225   0.277   0.899   3.372 -0.2088  0.0690 -0.2526
 8937TIP3    H148226   0.260   0.831   3.437 -1.9076  0.7915  0.1185
 8937TIP3    H248227   0.216   0.879   3.300 -1.4292  1.6824  0.2690
 8938TIP3   OH248228   6.707   4.925   1.269 -0.2232  0.0018 -0.1671
 8938TIP3    H148229   6.635   4.943   1.330  0.7863 -0.4162  1.1882
 8938TIP3    H248230   6.663   4.912   1.184 -1.6233  0.9812  0.3702
 8939TIP3   OH248231   3.682   6.448  14.009 -0.2803 -0.4258  0.0842
 8939TIP3    H148232   3.773   6.477  14.007 -0.3919 -0.0744  0.0580
 8939TIP3    H248233   3.685   6.361  14.049  0.2916 -1.2835 -1.7309
 8940TIP3   OH248234   3.398   3.831   3.957 -0.7751  0.2694  0.5738
 8940TIP3    H148235   3.414   3.888   4.033 -0.1564 -1.2371  1.6119
 8940TIP3    H248236   3.333   3.879   3.905 -0.7386  1.6333  1.7267
 8941TIP3   OH248237   4.902   1.299  15.426 -0.5640 -0.1628  0.5182
 8941TIP3    H148238   4.808   1.313  15.419 -0.5202 -0.1190  0.0018
 8941TIP3    H248239   4.938   1.387  15.443 -0.6814 -0.2886  1.4674
 8942TIP3   OH248240   5.375   5.573   5.764 -0.2480  0.5408 -0.1368
 8942TIP3    H148241   5.433   5.559   5.838 -0.6329 -0.5266 -0.0155
 8942TIP3    H248242   5.289   5.542   5.794 -0.4392  0.2316 -0.9622
 8943TIP3   OH248243   2.346   2.142  15.520  0.5349 -0.2682  0.3129
 8943TIP3    H148244   2.315   2.061  15.560  0.2796 -1.3026 -1.8396
 8943TIP3    H248245   2.267   2.183  15.485  0.6690  0.9277  1.3041
 8944TIP3   OH248246   4.113   6.148   1.211  1.0102 -0.0816 -0.0853
 8944TIP3    H148247   4.190   6.192   1.248  0.3469  0.9405  0.1203
 8944TIP3    H248248   4.149   6.086   1.148  2.0508 -0.2732  0.6572
 8945TIP3   OH248249   5.198   0.267  12.260  0.4339  0.3137  0.4144
 8945TIP3    H148250   5.151   0.222  12.190  1.2556 -0.0211  0.0630
 8945TIP3    H248251   5.193   0.208  12.335  1.7262 -0.5263 -0.1155
 8946TIP3   OH248252   2.611   0.994  16.247 -0.4035 -0.0592 -0.5119
 8946TIP3    H148253   2.651   1.075  16.281 -0.0953 -0.7753  0.9000
 8946TIP3    H248254   2.678   0.958  16.189  0.5784 -0.6546  0.9443
 8947TIP3   OH248255   2.735   4.091   3.292 -0.3780 -0.2323 -0.0674
 8947TIP3    H148256   2.700   4.032   3.225 -0.2411 -0.7497  0.3123
 8947TIP3    H248257   2.661   4.111   3.349  0.0822 -2.0077  1.2376
 8948TIP3   OH248258   6.481   4.879  16.243  0.0452 -0.2855  0.7741
 8948TIP3    H148259   6.540   4.875  16.168 -3.4155 -0.0782 -2.2237
 8948TIP3    H248260   6.438   4.965  16.236 -0.6734 -0.4048  2.8436
 8949TIP3   OH248261   0.781   6.191  15.994  0.1263 -0.0946 -0.0149
 8949TIP3    H148262   0.758   6.264  15.937 -0.3448 -0.8382 -0.8055
 8949TIP3    H248263   0.843   6.139  15.942  1.4209  0.3836  1.0100
 8950TIP3   OH248264   3.750   1.338   2.009 -0.1739  0.3868  0.4154
 8950TIP3    H148265   3.702   1.267   1.965 -0.6786  1.3115 -0.5551
 8950TIP3    H248266   3.778   1.396   1.939  1.4604  0.4485  1.0675
 8951TIP3   OH248267   0.140   2.652   5.054  0.2642 -0.2345 -0.1777
 8951TIP3    H148268   0.054   2.624   5.084 -0.0407 -1.4242 -1.9983
 8951TIP3    H248269   0.171   2.581   4.997  1.0246  1.5473 -2.1467
 8952TIP3   OH248270   5.043   0.709   0.973 -0.2998  0.1618 -0.4660
 8952TIP3    H148271   5.087   0.660   1.042 -0.3651  1.1078  0.2756
 8952TIP3    H248272   4.953   0.675   0.972 -0.8684  1.4696  1.3046
 8953TIP3   OH248273   2.719   2.545  15.827  0.2527  0.0150  0.4111
 8953TIP3    H148274   2.759   2.610  15.884 -0.7559  1.0886 -0.0580
 8953TIP3    H248275   2.635   2.526  15.867  0.0431 -0.1168 -0.0874
 8954TIP3   OH248276   2.426   4.732   2.686  0.0056  0.4702 -0.3272
 8954TIP3    H148277   2.428   4.650   2.736  2.3659  0.5040 -0.2783
 8954TIP3    H248278   2.360   4.785   2.732 -1.9090 -1.4930 -0.6266
 8955TIP3   OH248279   4.743   3.175   1.152  0.1144 -0.0597  0.1499
 8955TIP3    H148280   4.720   3.251   1.206  0.2975  1.2738 -1.5802
 8955TIP3    H248281   4.765   3.107   1.216  2.4722  2.0752  1.8035
 8956TIP3   OH248282   6.313   2.658   6.484  0.7303 -0.3920  0.6190
 8956TIP3    H148283   6.238   2.666   6.543  0.6775 -0.5667  0.5786
 8956TIP3    H248284   6.381   2.713   6.523  0.4064  0.1908  0.3753
 8957TIP3   OH248285   4.030   5.221   2.871  0.6130  0.0629 -0.1393
 8957TIP3    H148286   4.026   5.273   2.791 -1.5188  0.1422 -0.0435
 8957TIP3    H248287   3.981   5.272   2.935  0.2907 -1.0799  0.5508
 8958TIP3   OH248288   1.711   0.477   1.281  0.1849 -0.1529  0.3774
 8958TIP3    H148289   1.640   0.455   1.341  0.4363  0.5321  0.9340
 8958TIP3    H248290   1.790   0.447   1.326  0.2658 -0.9326 -0.2472
 8959TIP3   OH248291   1.753   4.615  12.840 -0.0379 -0.0533  0.0129
 8959TIP3    H148292   1.761   4.654  12.753 -0.4008 -3.2679 -1.6266
 8959TIP3    H248293   1.833   4.641  12.886  0.3855  1.3549 -1.4509
 8960TIP3   OH248294   6.246   3.383   2.374  0.6511  0.3168 -0.2918
 8960TIP3    H148295   6.311   3.338   2.319  0.3221 -0.3997 -0.1001
 8960TIP3    H248296   6.172   3.398   2.315  0.1219 -0.8458  0.0480
 8961TIP3   OH248297   2.724   1.075   1.743 -0.0357  0.2817  0.0758
 8961TIP3    H148298   2.787   1.017   1.701  0.6540  1.1891 -0.1696
 8961TIP3    H248299   2.638   1.042   1.716  0.3691 -0.0862 -0.7650
 8962TIP3   OH248300   5.928   3.884   3.723  0.1393  0.7413 -0.1796
 8962TIP3    H148301   5.886   3.917   3.802 -0.4921 -2.0912  0.7725
 8962TIP3    H248302   5.931   3.960   3.664 -3.3555  1.9154  0.9162
 8963TIP3   OH248303   2.194   1.149   6.005  0.5940 -0.4833  0.1234
 8963TIP3    H148304   2.252   1.074   6.020 -1.2422 -2.3969 -1.5919
 8963TIP3    H248305   2.151   1.129   5.921 -0.6166  2.0933  0.0498
 8964TIP3   OH248306   1.959   0.882   1.267 -0.0624  0.0081  0.1865
 8964TIP3    H148307   1.937   0.956   1.210 -0.8502  0.4483  1.0414
 8964TIP3    H248308   1.900   0.811   1.239 -0.6510  0.3142  0.6291
 8965TIP3   OH248309   4.679   0.365   1.913  1.2952 -0.0529 -0.1081
 8965TIP3    H148310   4.760   0.394   1.955  1.3390 -2.3408  1.5636
 8965TIP3    H248311   4.611   0.381   1.977  0.4356  1.4033 -1.3233
 8966TIP3   OH248312   5.188   5.145  13.264 -0.0232  0.0613 -0.2457
 8966TIP3    H148313   5.266   5.186  13.300 -1.5776  2.0856  0.9956
 8966TIP3    H248314   5.159   5.084  13.332  0.5309 -0.8440 -0.7902
 8967TIP3   OH248315   0.272   6.757   4.192  0.3238 -0.6666 -0.2341
 8967TIP3    H148316   0.300   6.673   4.228  0.0880 -0.9943 -0.8157
 8967TIP3    H248317   0.188   6.738   4.150  0.3996 -0.1923 -0.5983
 8968TIP3   OH248318   4.178   1.410   0.892  0.2619 -0.6415  0.1525
 8968TIP3    H148319   4.154   1.486   0.945 -1.5702 -1.2001  0.1933
 8968TIP3    H248320   4.098   1.387   0.845  0.7834 -2.5226  0.0984
 8969TIP3   OH248321   3.750   4.309  16.810 -0.1494 -0.0011  0.0411
 8969TIP3    H148322   3.707   4.351  16.884 -1.7662 -1.0950 -0.2239
 8969TIP3    H248323   3.711   4.351  16.733  0.7124  0.3552 -0.2112
 8970TIP3   OH248324   2.644   2.975   5.923 -0.0213 -0.3885  0.3932
 8970TIP3    H148325   2.702   3.030   5.975  1.8055 -1.5046 -0.3368
 8970TIP3    H248326   2.622   3.028   5.847 -0.3419  0.2214  0.9069
 8971TIP3   OH248327   0.136   0.377   2.212  0.5381  0.1148 -0.6226
 8971TIP3    H148328   0.190   0.350   2.138  0.7340 -0.6934 -0.1901
 8971TIP3    H248329   0.192   0.440   2.259  1.7534 -1.8357  0.6671
 8972TIP3   OH248330   6.474   5.869   5.155 -0.0011  0.5215  0.1557
 8972TIP3    H148331   6.507   5.812   5.225 -2.3141 -0.7970  0.2697
 8972TIP3    H248332   6.478   5.815   5.076 -3.9801 -0.6978  0.5760
 8973TIP3   OH248333   4.359   0.835  16.813  0.3131 -0.0858 -0.1284
 8973TIP3    H148334   4.353   0.773  16.886  0.7641  0.5682  0.4754
 8973TIP3    H248335   4.376   0.779  16.736  1.0145 -0.6949  0.4486
 8974TIP3   OH248336   2.761   3.391  16.411  0.0515  0.3902 -0.9261
 8974TIP3    H148337   2.709   3.413  16.334 -0.6012  0.9526 -0.3396
 8974TIP3    H248338   2.733   3.302  16.434 -1.5306  1.0875  0.0408
 8975TIP3   OH248339   5.045   2.734   2.628  0.8504  0.0965 -0.2680
 8975TIP3    H148340   5.052   2.772   2.715  1.3692  0.9110 -0.6548
 8975TIP3    H248341   4.981   2.789   2.583 -1.4403 -1.8528  0.3704
 8976TIP3   OH248342   0.528   6.250  14.633  0.1454  0.2800 -0.0527
 8976TIP3    H148343   0.466   6.241  14.706  0.5998 -0.6072  0.2394
 8976TIP3    H248344   0.575   6.331  14.652  1.0227 -0.5028  1.2586
 8977TIP3   OH248345   4.451   4.307   5.211 -0.1871  0.1886  0.3871
 8977TIP3    H148346   4.408   4.371   5.267  0.6559 -0.4877  1.8667
 8977TIP3    H248347   4.393   4.299   5.134 -1.2320  1.3352  1.0284
 8978TIP3   OH248348   0.046   6.218   3.534  0.3954 -0.5643 -0.3361
 8978TIP3    H148349   0.033   6.306   3.570  0.0424 -1.0296  0.6948
 8978TIP3    H248350  -0.009   6.216   3.455  2.1227  0.8748 -1.6579
 8979TIP3   OH248351   0.400   1.397   0.325  0.4785  0.2391  0.3386
 8979TIP3    H148352   0.488   1.384   0.361  0.9394  1.2370 -0.3808
 8979TIP3    H248353   0.370   1.309   0.302  1.0235 -0.1806  1.1787
 8980TIP3   OH248354   3.436   2.940   5.580  0.1659  0.4383  0.0113
 8980TIP3    H148355   3.494   3.017   5.578  1.3966 -0.4540  0.0430
 8980TIP3    H248356   3.443   2.908   5.670 -0.2869  0.2449 -0.0224
 8981TIP3   OH248357   1.168   1.031  14.489  0.1383  0.0830  0.2363
 8981TIP3    H148358   1.193   1.121  14.467  2.0054 -0.4616 -0.0583
 8981TIP3    H248359   1.077   1.023  14.459 -0.2370  2.0120  0.7559
 8982TIP3   OH248360   2.428   1.946   2.832  0.1666 -0.1084  0.0218
 8982TIP3    H148361   2.382   2.011   2.779 -2.8618 -1.5139  0.7199
 8982TIP3    H248362   2.465   1.884   2.769 -0.0696  0.3086 -0.5262
 8983TIP3   OH248363   4.687   2.237  16.631 -0.3403 -0.0265 -0.2633
 8983TIP3    H148364   4.693   2.209  16.723  0.4995  0.9804  0.0193
 8983TIP3    H248365   4.593   2.237  16.612 -0.7291  1.6535  1.2567
 8984TIP3   OH248366   0.426   1.624  13.997 -0.1403 -0.3062  0.2911
 8984TIP3    H148367   0.362   1.677  13.951  0.5034  0.9452  0.8031
 8984TIP3    H248368   0.478   1.686  14.047  2.7974 -0.9823 -1.6241
 8985TIP3   OH248369   2.124   5.097   6.543  0.0258  0.3951  0.0349
 8985TIP3    H148370   2.173   5.179   6.546 -2.5505  2.1325 -1.5173
 8985TIP3    H248371   2.035   5.121   6.568 -0.8428 -1.9482 -0.5080
 8986TIP3   OH248372   1.901   4.052   3.250  0.0344  0.1983  0.0454
 8986TIP3    H148373   1.833   4.046   3.182 -0.7493  0.8050  0.7421
 8986TIP3    H248374   1.976   4.092   3.206 -1.2675  2.8747  0.0381
 8987TIP3   OH248375   5.503   2.577  15.801  0.1391 -0.3319  0.3020
 8987TIP3    H148376   5.503   2.488  15.767  1.3393 -0.0107 -0.5929
 8987TIP3    H248377   5.575   2.579  15.864  0.3650  0.1070  0.0327
 8988TIP3   OH248378   4.084   1.297   3.944  0.0318 -0.0931  0.0408
 8988TIP3    H148379   4.103   1.281   3.851  1.6275 -1.0347  0.5006
 8988TIP3    H248380   4.164   1.335   3.979  0.1706 -1.5724  1.4545
 8989TIP3   OH248381   0.086   5.577  13.180  0.3273 -0.1148 -0.0754
 8989TIP3    H148382   0.162   5.521  13.164  0.1475 -0.9343  1.6224
 8989TIP3    H248383   0.103   5.616  13.266 -1.4849 -0.9167  0.7020
 8990TIP3   OH248384   1.014   6.709  13.620 -0.5759 -0.1247  0.2968
 8990TIP3    H148385   0.948   6.668  13.676  0.8394 -3.2928 -0.1224
 8990TIP3    H248386   0.977   6.704  13.532 -0.0317 -1.5834  0.1099
 8991TIP3   OH248387   0.245   3.020   1.560 -0.0802  0.1502  0.2866
 8991TIP3    H148388   0.311   2.998   1.494  0.9027  1.3591  0.8283
 8991TIP3    H248389   0.166   2.975   1.531  0.6326 -0.2577 -1.0983
 8992TIP3   OH248390   1.886   1.277  11.003  0.2554 -0.2481 -0.1638
 8992TIP3    H148391   1.824   1.282  10.930  0.9855  1.0329 -0.7424
 8992TIP3    H248392   1.915   1.186  11.004 -0.7090 -0.5746 -0.6751
 8993TIP3   OH248393   1.990   3.342  13.434  0.4857  0.2475  0.1209
 8993TIP3    H148394   2.049   3.327  13.360 -0.0527 -0.1007 -0.2435
 8993TIP3    H248395   1.924   3.403  13.400 -0.3104 -0.6477  0.0093
 8994TIP3   OH248396   3.212   3.629  12.892 -0.0154  0.0177  0.5249
 8994TIP3    H148397   3.173   3.544  12.911 -2.0113  1.1907  2.0844
 8994TIP3    H248398   3.140   3.683  12.860  1.8497  0.2551 -4.0518
 8995TIP3   OH248399   3.010   1.832   1.578 -0.4444 -0.2184 -0.2123
 8995TIP3    H148400   2.918   1.812   1.593 -0.5867  0.6187  0.0210
 8995TIP3    H248401   3.035   1.889   1.651  0.1487 -0.0972 -0.5053
 8996TIP3   OH248402   2.551   1.785   4.479  0.2490  0.0918 -0.1856
 8996TIP3    H148403   2.604   1.865   4.484  0.1321  0.3104 -1.9052
 8996TIP3    H248404   2.461   1.815   4.494  0.4160 -0.0931  1.4374
 8997TIP3   OH248405   0.675   2.292  16.354  0.5300  0.1636  0.5408
 8997TIP3    H148406   0.747   2.340  16.394  1.5708  0.1084 -1.1817
 8997TIP3    H248407   0.717   2.224  16.301 -0.8556 -1.2636  1.1855
 8998TIP3   OH248408   2.707   4.516  15.514 -0.5159  0.0169  0.4160
 8998TIP3    H148409   2.631   4.529  15.571 -1.0746 -2.0019  0.2161
 8998TIP3    H248410   2.779   4.559  15.560 -1.6462  1.5158  0.8627
 8999TIP3   OH248411   3.344   4.912   1.102  0.0117 -0.3832 -0.4093
 8999TIP3    H148412   3.339   4.982   1.167  0.7617 -1.0671  0.4125
 8999TIP3    H248413   3.300   4.838   1.145 -0.8649 -0.4002 -1.3063
 9000TIP3   OH248414   0.900   5.131   3.755  0.3919 -0.5562  0.1853
 9000TIP3    H148415   0.883   5.112   3.847  0.2498 -0.4936  0.1715
 9000TIP3    H248416   0.816   5.159   3.720  0.9073  1.7393  0.6080
 9001TIP3   OH248417   2.601   0.030  16.168 -0.7231  0.0263 -0.3405
 9001TIP3    H148418   2.671   0.067  16.222 -0.0557 -1.2891 -0.2669
 9001TIP3    H248419   2.596  -0.062  16.194 -1.2921 -0.3150 -1.5807
 9002TIP3   OH248420   3.178   6.433   5.363 -0.2497  0.4827 -0.2695
 9002TIP3    H148421   3.265   6.423   5.402  0.5332  0.3655 -1.9378
 9002TIP3    H248422   3.171   6.527   5.346 -0.0948  0.3886 -0.8757
 9003TIP3   OH248423   3.178   6.513  14.681 -0.2065 -0.2975  0.0544
 9003TIP3    H148424   3.252   6.458  14.655  0.5461  0.3823  0.7056
 9003TIP3    H248425   3.213   6.601  14.683 -0.7088 -0.1031  1.5620
 9004TIP3   OH248426   5.387   5.663   4.559  0.3937 -0.1767  0.5073
 9004TIP3    H148427   5.394   5.758   4.551 -0.9734 -0.1580 -0.8710
 9004TIP3    H248428   5.341   5.635   4.480  0.9758 -2.0256  0.7634
 9005TIP3   OH248429   2.624   4.379  15.917 -0.0981 -0.3739 -0.0214
 9005TIP3    H148430   2.539   4.407  15.882  0.1858 -1.2529 -1.5015
 9005TIP3    H248431   2.602   4.309  15.980 -0.4535 -1.2372 -1.0724
 9006TIP3   OH248432   4.966   2.637  14.864  0.0724 -0.4990 -0.4869
 9006TIP3    H148433   5.032   2.578  14.903  0.2148  0.4576  0.7857
 9006TIP3    H248434   4.945   2.698  14.935 -2.3660 -0.9054 -0.7960
 9007TIP3   OH248435   5.954   3.084  16.686  0.2953  0.5143  0.4207
 9007TIP3    H148436   6.022   3.066  16.622  0.2021  2.0337 -0.1506
 9007TIP3    H248437   6.002   3.114  16.764  0.5134 -2.7302  1.7029
 9008TIP3   OH248438   5.418   4.591   1.865  0.5570 -0.2677  0.1581
 9008TIP3    H148439   5.405   4.496   1.872  3.2510 -0.8601 -1.4146
 9008TIP3    H248440   5.378   4.615   1.782 -0.5324  0.0947  0.7722
 9009TIP3   OH248441   3.173   6.040  12.034 -0.0509 -0.6274 -0.1916
 9009TIP3    H148442   3.157   6.026  11.941 -0.2586 -1.3599 -0.0537
 9009TIP3    H248443   3.097   6.002  12.078 -0.2042  0.1825  0.2604
 9010TIP3   OH248444   4.438   1.367   1.494  0.7241  0.5076  0.5214
 9010TIP3    H148445   4.467   1.384   1.405  0.4282 -1.3937  0.0155
 9010TIP3    H248446   4.394   1.448   1.521 -1.9778  0.1211 -2.2148
 9011TIP3   OH248447   1.035   3.648  11.725 -0.1100 -0.3041 -0.4589
 9011TIP3    H148448   1.064   3.698  11.649  2.4767 -2.3532 -0.9668
 9011TIP3    H248449   1.025   3.558  11.693 -3.1997 -0.4995  0.7269
 9012TIP3   OH248450   1.075   3.865   3.769 -0.4815  0.3872  0.1156
 9012TIP3    H148451   1.030   3.938   3.726 -0.5554  0.6687  0.6610
 9012TIP3    H248452   1.071   3.886   3.862 -0.2794 -0.1902  0.2595
 9013TIP3   OH248453   3.334   3.534  15.285 -0.2139  0.0410  0.5308
 9013TIP3    H148454   3.250   3.574  15.310  0.6008  2.4214 -0.2075
 9013TIP3    H248455   3.394   3.561  15.354  0.6581  1.3111 -0.6652
 9014TIP3   OH248456   1.725   3.125   6.162 -0.1875  0.0200 -0.0941
 9014TIP3    H148457   1.675   3.068   6.221 -1.7692 -0.7481 -2.0697
 9014TIP3    H248458   1.664   3.195   6.140  1.5616  2.3464  1.8803
 9015TIP3   OH248459   3.684   0.633   4.510 -0.1117 -0.3923  0.5357
 9015TIP3    H148460   3.754   0.624   4.445 -0.7030  0.5059 -0.2594
 9015TIP3    H248461   3.604   0.620   4.459 -0.5491 -0.5498  1.2649
 9016TIP3   OH248462   5.129   2.111   1.807 -0.1495 -0.1590  0.0089
 9016TIP3    H148463   5.035   2.099   1.802 -0.2779  0.4557  0.7887
 9016TIP3    H248464   5.141   2.203   1.830  0.6749  0.0590 -1.1314
 9017TIP3   OH248465   1.347   1.770  11.002 -0.0941  0.5612 -0.1198
 9017TIP3    H148466   1.386   1.811  10.925 -1.6408  1.2216 -0.6005
 9017TIP3    H248467   1.369   1.829  11.075  1.2960 -0.0205 -0.0416
 9018TIP3   OH248468   5.446   4.883  11.226  0.4184  0.4294 -0.6116
 9018TIP3    H148469   5.510   4.921  11.286  0.3531 -0.4061  0.0100
 9018TIP3    H248470   5.493   4.873  11.144  0.0508  3.0992 -1.2382
 9019TIP3   OH248471   0.882   6.600   2.775  0.4761 -0.3344 -0.1765
 9019TIP3    H148472   0.939   6.590   2.699 -1.1730 -1.4245 -1.3179
 9019TIP3    H248473   0.862   6.511   2.803 -1.7954 -0.0581 -0.7205
 9020TIP3   OH248474   0.075   4.954   0.400 -0.2546  0.2852  0.0435
 9020TIP3    H148475  -0.003   5.000   0.430 -0.3244 -0.1050  0.4778
 9020TIP3    H248476   0.049   4.862   0.394  0.1129  0.1783  0.0074
 9021TIP3   OH248477   1.594   0.617   4.275  0.3565 -0.0910 -0.1395
 9021TIP3    H148478   1.664   0.644   4.216  2.1439 -0.7381  1.5766
 9021TIP3    H248479   1.621   0.649   4.361 -0.0399 -2.6955  1.0622
 9022TIP3   OH248480   2.023   5.671  12.084  0.1889  0.6901 -0.3455
 9022TIP3    H148481   2.076   5.604  12.127 -0.6206  1.3069  1.7450
 9022TIP3    H248482   2.016   5.642  11.993  3.9058  0.4960 -0.7231
 9023TIP3   OH248483   1.451   2.136   3.915 -0.4630 -0.3766 -0.2514
 9023TIP3    H148484   1.494   2.073   3.973  1.1105  0.8870 -0.0095
 9023TIP3    H248485   1.418   2.083   3.843  1.3087 -1.4395 -0.3330
 9024TIP3   OH248486   4.971   3.558   4.121  0.1624  0.2048 -0.0288
 9024TIP3    H148487   5.036   3.510   4.173  0.8209 -0.5202 -1.4629
 9024TIP3    H248488   4.956   3.639   4.170  1.8739  0.2262  0.5244
 9025TIP3   OH248489   6.252   3.186   3.864  0.4550 -0.1115 -0.0392
 9025TIP3    H148490   6.220   3.161   3.777  0.0831 -0.9408  0.3323
 9025TIP3    H248491   6.283   3.105   3.903  3.0471  0.6569 -0.3682
 9026TIP3   OH248492   1.059   5.118  16.324 -0.7063  0.0358  0.0170
 9026TIP3    H148493   1.026   5.173  16.253  1.2724  0.8320 -0.3571
 9026TIP3    H248494   1.063   5.030  16.287 -1.3296  0.1235 -0.2708
 9027TIP3   OH248495   2.473   0.343   5.499  0.3079  0.4433 -0.5514
 9027TIP3    H148496   2.421   0.354   5.579 -0.6944 -0.2833 -1.0695
 9027TIP3    H248497   2.468   0.249   5.480  1.3672  0.4500 -0.9289
 9028TIP3   OH248498   3.098   5.293  12.999  0.1815 -0.0661 -0.1355
 9028TIP3    H148499   3.050   5.332  12.926 -0.1660  1.1842  0.7305
 9028TIP3    H248500   3.173   5.350  13.013  0.1677 -0.2039  0.5626
 9029TIP3   OH248501   3.141   1.340   4.824 -0.6253  0.4187 -0.0944
 9029TIP3    H148502   3.225   1.368   4.788 -0.3942 -0.0014  0.1123
 9029TIP3    H248503   3.146   1.245   4.827 -0.9599  0.4090  0.2823
 9030TIP3   OH248504   0.494   2.997  10.820  0.1110 -0.2214  0.1975
 9030TIP3    H148505   0.434   2.958  10.882  1.4373 -1.9157  0.4708
 9030TIP3    H248506   0.581   2.968  10.848  1.0745  1.8830 -0.3664
 9031TIP3   OH248507   0.849   6.408   4.004 -0.0135 -0.3552  0.1223
 9031TIP3    H148508   0.832   6.394   4.097 -1.4024 -1.4622 -0.2667
 9031TIP3    H248509   0.832   6.502   3.991 -2.6551 -0.7141  0.4776
 9032TIP3   OH248510   0.487   0.832   5.294 -0.0215 -0.4670 -0.1469
 9032TIP3    H148511   0.557   0.768   5.305 -0.0879 -0.8451 -1.7411
 9032TIP3    H248512   0.500   0.868   5.207 -0.5275  1.0689  0.3825
 9033TIP3   OH248513   2.388   3.627  15.795 -0.3987  0.3231 -0.1357
 9033TIP3    H148514   2.479   3.611  15.773 -0.0321  1.7923  0.2132
 9033TIP3    H248515   2.367   3.710  15.752 -1.3966  0.2880  0.2574
 9034TIP3   OH248516   4.635   2.136   6.640 -0.4976 -0.1837 -0.4627
 9034TIP3    H148517   4.614   2.058   6.692 -0.1405 -0.9700 -1.4585
 9034TIP3    H248518   4.652   2.102   6.552  2.3288  0.6542 -0.3604
 9035TIP3   OH248519   2.807   6.285  13.927  0.3165  0.0552  0.1313
 9035TIP3    H148520   2.738   6.229  13.963 -0.6463  1.4751  0.5734
 9035TIP3    H248521   2.866   6.301  14.001  0.4473 -0.1405  0.0720
 9036TIP3   OH248522   5.094   0.933   2.562 -0.5194  0.0560  0.4312
 9036TIP3    H148523   5.173   0.917   2.511  1.2557  1.7050  2.4737
 9036TIP3    H248524   5.071   1.024   2.543 -1.9735 -0.3999 -0.1371
 9037TIP3   OH248525   3.509   4.322   3.258 -0.4689  0.3695  0.1711
 9037TIP3    H148526   3.528   4.398   3.312  1.1940  0.3682 -0.3692
 9037TIP3    H248527   3.566   4.331   3.182 -0.4748 -1.2463 -0.0638
 9038TIP3   OH248528   2.245   0.920   3.010  0.0486  0.9107  0.2138
 9038TIP3    H148529   2.330   0.876   3.009  0.6312  1.9811 -0.3472
 9038TIP3    H248530   2.210   0.903   3.097  0.6990  0.1941  0.3512
 9039TIP3   OH248531   4.327   4.398   4.138  0.0713  0.1927 -0.3099
 9039TIP3    H148532   4.243   4.442   4.152 -0.7622 -1.1338 -0.9782
 9039TIP3    H248533   4.310   4.336   4.067  1.4641 -0.5474 -0.0270
 9040TIP3   OH248534   6.090   4.916  11.895 -0.0341  0.2654  0.2265
 9040TIP3    H148535   6.005   4.960  11.898 -0.0795  0.3620 -1.5331
 9040TIP3    H248536   6.070   4.825  11.874  0.3106  0.4354 -0.9182
 9041TIP3   OH248537   6.517   2.647  13.661 -0.3538 -0.1126 -0.0610
 9041TIP3    H148538   6.477   2.719  13.710 -0.8803 -0.8776  0.6552
 9041TIP3    H248539   6.607   2.645  13.691 -0.0649  0.8425 -0.7901
 9042TIP3   OH248540   5.776   4.123  11.669 -0.6741  0.5757 -0.0311
 9042TIP3    H148541   5.797   4.205  11.625  0.9709 -0.8500 -2.0547
 9042TIP3    H248542   5.858   4.098  11.713 -1.4292  0.4257  1.3655
 9043TIP3   OH248543   2.350   6.318  12.874 -0.0323  0.2263 -0.0893
 9043TIP3    H148544   2.266   6.318  12.920 -0.4616 -0.0596 -0.8499
 9043TIP3    H248545   2.344   6.392  12.812  0.0021 -0.2059 -0.6176
 9044TIP3   OH248546   6.287   1.808  11.197  0.1800 -0.1571 -0.5088
 9044TIP3    H148547   6.309   1.895  11.229 -1.6137  0.7318 -1.5470
 9044TIP3    H248548   6.365   1.780  11.149  0.6740  1.0146 -0.4314
 9045TIP3   OH248549   6.709   6.683   0.556 -0.0310 -0.1328 -0.2615
 9045TIP3    H148550   6.686   6.614   0.494 -0.5609  0.7911 -1.1262
 9045TIP3    H248551   6.719   6.762   0.502 -1.8499  1.0146  0.9275
 9046TIP3   OH248552   4.403   1.010   4.439  0.0084  0.5561  0.4436
 9046TIP3    H148553   4.395   1.080   4.375  0.2666 -0.6392 -0.9416
 9046TIP3    H248554   4.314   0.994   4.468 -0.4500 -0.4651 -1.3994
 9047TIP3   OH248555   2.572   3.791  17.047  0.2666 -0.2071  0.5715
 9047TIP3    H148556   2.640   3.729  17.073 -0.1223 -0.5277  0.8387
 9047TIP3    H248557   2.506   3.737  17.002  1.1975  0.3994 -1.6624
 9048TIP3   OH248558   1.312   2.119  15.092 -0.0819  0.2267  0.5897
 9048TIP3    H148559   1.346   2.061  15.023  0.8142 -0.7974  1.8421
 9048TIP3    H248560   1.228   2.080  15.117  0.8235 -0.9723  1.8895
 9049TIP3   OH248561   5.129   1.802   6.552 -0.2316 -0.5612  0.0989
 9049TIP3    H148562   5.088   1.716   6.543  1.2036 -1.2746  0.0885
 9049TIP3    H248563   5.213   1.793   6.507  0.3257  0.5817  0.8660
 9050TIP3   OH248564   4.927   5.104  13.734  0.1724 -0.0402  0.4152
 9050TIP3    H148565   4.985   5.116  13.659 -0.1346  0.1771  0.2064
 9050TIP3    H248566   4.862   5.174  13.724 -0.3908 -0.5639  0.3882
 9051TIP3   OH248567   6.488   0.503   0.744  0.4327 -0.5188 -0.1048
 9051TIP3    H148568   6.412   0.555   0.772 -0.1537 -0.8100 -1.0988
 9051TIP3    H248569   6.557   0.568   0.728  0.4315 -0.2575  0.8767
 9052TIP3   OH248570   6.145   6.259  12.324  0.6851 -0.0996 -0.6962
 9052TIP3    H148571   6.052   6.278  12.335  0.7832 -0.6225  1.7832
 9052TIP3    H248572   6.148   6.168  12.295  0.4145  0.1536 -1.5206
 9053TIP3   OH248573   5.115   5.603  15.936 -0.3795  0.4490  0.2298
 9053TIP3    H148574   5.173   5.614  15.861 -0.9162 -0.4738 -0.3391
 9053TIP3    H248575   5.174   5.601  16.011  0.2613  0.3164 -0.2657
 9054TIP3   OH248576   4.430   0.394  16.907 -0.0768 -0.1188 -0.0925
 9054TIP3    H148577   4.390   0.342  16.976 -1.9004  0.4133 -0.6919
 9054TIP3    H248578   4.521   0.366  16.905 -0.5431 -1.8215  0.9387
 9055TIP3   OH248579   1.376   1.249  13.474 -0.2691  0.0835 -0.5847
 9055TIP3    H148580   1.287   1.283  13.478  0.0843  1.1625 -1.2990
 9055TIP3    H248581   1.419   1.303  13.407  1.4235  0.7627  0.9672
 9056TIP3   OH248582   1.485   2.458   3.136  0.2001 -0.3247  0.2578
 9056TIP3    H148583   1.448   2.545   3.151 -1.6066 -0.8251 -0.9126
 9056TIP3    H248584   1.534   2.467   3.054 -1.3745 -0.7453 -0.7731
 9057TIP3   OH248585   6.226   1.602   3.770  0.2213  0.9801  0.4944
 9057TIP3    H148586   6.149   1.549   3.794 -0.5219  2.0735  0.5821
 9057TIP3    H248587   6.200   1.647   3.690 -0.6618  4.1645  2.3960
 9058TIP3   OH248588   0.810   3.478   5.811 -0.5628 -0.1168 -0.1339
 9058TIP3    H148589   0.882   3.441   5.760 -2.5566 -2.5966 -1.3569
 9058TIP3    H248590   0.807   3.425   5.890  0.0085  1.1369  0.7587
 9059TIP3   OH248591   3.650   4.264  12.851  0.2379 -0.1011  0.0864
 9059TIP3    H148592   3.582   4.204  12.883 -0.3184  0.9769  0.9877
 9059TIP3    H248593   3.604   4.324  12.793  0.8498 -0.6986 -1.0556
 9060TIP3   OH248594   0.317   0.730   1.977  0.3818 -0.0005 -0.2018
 9060TIP3    H148595   0.250   0.682   1.928  0.6519 -0.2378 -0.3407
 9060TIP3    H248596   0.275   0.813   2.001  0.0938 -0.0810 -0.4271
 9061TIP3   OH248597   4.743   0.348  14.236 -0.4282  0.0060 -0.0933
 9061TIP3    H148598   4.799   0.320  14.164 -0.0074 -1.4707  0.7795
 9061TIP3    H248599   4.673   0.399  14.194  0.6821  0.5452 -1.3547
 9062TIP3   OH248600   2.293   3.738  12.463 -0.1621  0.0311 -0.2460
 9062TIP3    H148601   2.263   3.795  12.393  0.9515 -0.8296 -1.4677
 9062TIP3    H248602   2.254   3.653  12.444  1.2631 -0.5659 -0.6740
 9063TIP3   OH248603   0.352   4.225  15.998  0.2524  0.3934  0.0477
 9063TIP3    H148604   0.381   4.206  15.909 -0.1101  0.4323 -0.0826
 9063TIP3    H248605   0.366   4.144  16.046  0.0489  0.2390 -0.1506
 9064TIP3   OH248606   4.597   1.013   2.994  0.5089 -0.3599  0.7564
 9064TIP3    H148607   4.549   0.938   3.027  0.4338  0.3266  2.2762
 9064TIP3    H248608   4.531   1.082   2.986  0.4461 -0.5782 -1.2219
 9065TIP3   OH248609   3.450   6.432  17.050  0.6483 -0.3802 -0.3065
 9065TIP3    H148610   3.448   6.378  16.971 -0.9891 -0.6573 -0.1094
 9065TIP3    H248611   3.360   6.461  17.062  1.1867  1.0789  0.5118
 9066TIP3   OH248612   3.014   6.382  12.408 -0.0241  0.0657  0.1682
 9066TIP3    H148613   2.935   6.436  12.414  0.9563  1.5481 -0.0531
 9066TIP3    H248614   3.020   6.340  12.494 -1.8550 -1.2614 -0.2924
 9067TIP3   OH248615   4.625   1.407  16.922  0.9664 -0.3502  0.5023
 9067TIP3    H148616   4.633   1.415  17.017 -0.5280  0.0477  0.6231
 9067TIP3    H248617   4.713   1.383  16.892  2.1145  2.0422  1.6930
 9068TIP3   OH248618   6.389   6.149   0.134 -0.2537  0.0193 -0.0150
 9068TIP3    H148619   6.367   6.056   0.126 -1.5459  0.4275 -1.8384
 9068TIP3    H248620   6.390   6.182   0.044 -1.7700  2.1635  0.6469
 9069TIP3   OH248621   6.299   4.188   0.505 -0.5683  0.2217 -0.1562
 9069TIP3    H148622   6.279   4.281   0.503  0.3641  0.4217 -1.4309
 9069TIP3    H248623   6.391   4.182   0.480 -0.5615 -1.0370  0.0749
 9070TIP3   OH248624   6.591   2.881   2.343 -0.4417 -0.0678  0.0345
 9070TIP3    H148625   6.542   2.938   2.403  1.7087  1.9121  0.0530
 9070TIP3    H248626   6.679   2.878   2.380 -0.5918 -4.1356  0.4339
 9071TIP3   OH248627   6.400   3.678   1.582  0.0367 -0.6171  0.1813
 9071TIP3    H148628   6.490   3.664   1.552  0.5159  0.6115  0.9951
 9071TIP3    H248629   6.348   3.620   1.526  1.3869 -1.8690  0.1433
 9072TIP3   OH248630   4.519   2.768   6.522 -0.2503 -0.2617 -0.4241
 9072TIP3    H148631   4.577   2.732   6.589 -2.3083 -1.0855  1.0339
 9072TIP3    H248632   4.548   2.859   6.511  0.3601 -0.1933  1.3840
 9073TIP3   OH248633   4.128   0.177  11.993 -0.7826  0.8174  0.0430
 9073TIP3    H148634   4.036   0.159  12.011 -1.1575  2.5291 -0.0482
 9073TIP3    H248635   4.137   0.163  11.898 -0.7850  0.0848  0.1390
 9074TIP3   OH248636   1.606   4.941  14.264 -0.1182  0.0300 -0.3245
 9074TIP3    H148637   1.690   4.928  14.221  2.7431  1.2083  4.2450
 9074TIP3    H248638   1.574   4.853  14.283  0.1702 -0.4232 -1.8162
 9075TIP3   OH248639   5.181   5.654  11.602 -0.0918 -0.4800 -0.1815
 9075TIP3    H148640   5.124   5.692  11.535 -0.0277 -0.3417 -0.1568
 9075TIP3    H248641   5.264   5.638  11.556 -0.7341 -2.4922 -0.7546
 9076TIP3   OH248642   5.789   2.700  16.123  0.2079  0.4782 -0.1943
 9076TIP3    H148643   5.702   2.690  16.162 -0.2977 -0.4919 -1.5407
 9076TIP3    H248644   5.847   2.647  16.178  0.1110  1.6556  1.1064
 9077TIP3   OH248645   1.055   5.267  16.848  0.1564 -0.4432 -0.3253
 9077TIP3    H148646   1.101   5.278  16.931 -1.1329 -0.4216  0.4081
 9077TIP3    H248647   1.061   5.353  16.805  0.1534 -0.2257  0.1062
 9078TIP3   OH248648   3.816   5.527   6.600 -0.3936  0.6070  0.1217
 9078TIP3    H148649   3.884   5.497   6.661 -0.9767  1.0560  1.0131
 9078TIP3    H248650   3.764   5.589   6.651 -2.0915 -0.4716 -0.2098
 9079TIP3   OH248651   1.586   0.456   4.781 -0.4949 -0.9660 -0.1789
 9079TIP3    H148652   1.669   0.419   4.753 -0.4112 -2.1066  1.4490
 9079TIP3    H248653   1.538   0.382   4.820 -0.9778  0.2716  1.7257
 9080TIP3   OH248654   4.385   4.041  14.521  0.0027  0.1789  0.1140
 9080TIP3    H148655   4.448   3.990  14.571 -1.4357 -0.3544  1.4545
 9080TIP3    H248656   4.368   4.118  14.575  0.4670  0.9953 -0.8593
 9081TIP3   OH248657   3.326   2.234   0.014 -0.2241  0.3210  0.1869
 9081TIP3    H148658   3.360   2.207  -0.071  0.3710  1.2325  0.1199
 9081TIP3    H248659   3.329   2.155   0.067  0.2172 -0.0576 -0.3911
 9082TIP3   OH248660   4.736   1.660  11.753 -0.1656 -0.1634  0.4739
 9082TIP3    H148661   4.741   1.565  11.747 -0.5121 -0.1077 -1.6972
 9082TIP3    H248662   4.827   1.689  11.754 -0.0392 -0.4894 -0.4479
 9083TIP3   OH248663   4.719   4.431  13.605 -0.3049  0.0596  0.3164
 9083TIP3    H148664   4.690   4.373  13.676 -0.8524  0.9763  0.8588
 9083TIP3    H248665   4.793   4.479  13.642 -2.1597  2.4409  1.2861
 9084TIP3   OH248666   4.885   4.355   4.307  0.0380 -0.2358 -0.3103
 9084TIP3    H148667   4.967   4.399   4.284 -0.5032  1.5619  1.0027
 9084TIP3    H248668   4.818   4.401   4.257 -0.0888 -2.8680 -2.8249
 9085TIP3   OH248669   4.113   4.181  13.179  0.1429  0.2861  0.2437
 9085TIP3    H148670   4.091   4.198  13.088  1.1726 -1.6824 -0.4307
 9085TIP3    H248671   4.031   4.191  13.226 -1.0350 -1.3149 -1.3319
 9086TIP3   OH248672   3.940   1.441  11.611 -0.0607  0.6369 -0.7559
 9086TIP3    H148673   3.866   1.383  11.588 -0.9687  2.0408 -1.5112
 9086TIP3    H248674   3.914   1.481  11.694  1.6916 -1.8335  1.1386
 9087TIP3   OH248675   0.633   3.210   4.564 -0.5180 -0.1725 -0.3844
 9087TIP3    H148676   0.622   3.304   4.582 -1.3502 -0.5029  0.9893
 9087TIP3    H248677   0.631   3.169   4.651  1.2532 -1.3436 -0.8466
 9088TIP3   OH248678   4.143   5.935  15.168  0.1694 -0.7192 -0.3306
 9088TIP3    H148679   4.191   5.944  15.250 -0.6986 -0.7522  0.1864
 9088TIP3    H248680   4.051   5.932  15.193 -0.2095  0.6448 -1.4048
 9089TIP3   OH248681   3.931   3.241   0.612 -0.4081 -0.0911 -0.6013
 9089TIP3    H148682   3.934   3.214   0.520  2.5771 -0.2077 -0.5633
 9089TIP3    H248683   3.976   3.326   0.614  1.3948 -1.0099  0.9670
 9090TIP3   OH248684   5.792   3.147  11.183 -0.1118  0.1856 -0.4918
 9090TIP3    H148685   5.727   3.188  11.240 -0.7419 -0.2723 -0.8697
 9090TIP3    H248686   5.782   3.191  11.098 -2.1335 -1.9828 -1.4760
 9091TIP3   OH248687   3.666   2.565  12.287 -0.2133  0.0008 -0.1013
 9091TIP3    H148688   3.587   2.512  12.278 -1.0032  0.8328  1.4797
 9091TIP3    H248689   3.731   2.505  12.323 -0.9535 -0.0463  1.2027
 9092TIP3   OH248690   4.716   3.375   2.687  0.5022  0.4974 -0.0877
 9092TIP3    H148691   4.648   3.413   2.742 -0.0341 -0.7575  0.1526
 9092TIP3    H248692   4.670   3.349   2.607  0.4659 -1.2727  0.4751
 9093TIP3   OH248693   5.621   5.533   1.914 -0.1608  0.4798 -0.0988
 9093TIP3    H148694   5.690   5.572   1.861  0.8334 -1.6883 -0.5131
 9093TIP3    H248695   5.542   5.580   1.890  0.4183  0.1664 -2.8708
 9094TIP3   OH248696   2.759   1.230  13.038 -0.1574 -1.6549  0.3187
 9094TIP3    H148697   2.752   1.153  12.982 -2.9209 -1.3781  0.1429
 9094TIP3    H248698   2.716   1.299  12.989 -1.2203 -1.0081  2.0761
 9095TIP3   OH248699   1.745   3.338   1.340 -0.0150  0.2928  0.4484
 9095TIP3    H148700   1.654   3.358   1.318 -0.4695 -1.9677  0.0080
 9095TIP3    H248701   1.795   3.374   1.268 -0.7915 -0.3475 -0.4368
 9096TIP3   OH248702   5.103   2.458   0.952 -0.3747 -0.1971  0.1006
 9096TIP3    H148703   5.159   2.499   0.885 -0.9388  2.5153  1.1562
 9096TIP3    H248704   5.164   2.412   1.009  0.3996 -0.1625 -0.6683
 9097TIP3   OH248705   4.825   4.562   0.886 -0.3867  0.3009  1.1078
 9097TIP3    H148706   4.748   4.523   0.845 -1.0172  1.4617  1.1370
 9097TIP3    H248707   4.892   4.560   0.817 -1.2382  1.6418  0.1910
 9098TIP3   OH248708   1.579   4.719   5.900  0.0250 -0.1835  0.2075
 9098TIP3    H148709   1.596   4.785   5.832  1.1556 -0.6390  0.0256
 9098TIP3    H248710   1.512   4.759   5.956 -0.6776  0.3404 -0.9663
 9099TIP3   OH248711   5.857   3.070  15.756 -0.1766 -0.3344  0.3868
 9099TIP3    H148712   5.778   3.101  15.711  0.0514 -0.3034  0.0025
 9099TIP3    H248713   5.909   3.030  15.687 -0.6508 -1.9640  0.9423
 9100TIP3   OH248714   1.617   3.062   3.993 -0.1541 -0.0295  0.1847
 9100TIP3    H148715   1.678   2.996   4.024 -0.1811  0.1862  0.6948
 9100TIP3    H248716   1.643   3.143   4.037  1.2534  0.8372 -2.0558
 9101TIP3   OH248717   6.314   5.119  13.863 -0.5455  0.2436 -0.1432
 9101TIP3    H148718   6.253   5.193  13.861 -0.8628  0.2161  2.9351
 9101TIP3    H248719   6.316   5.093  13.955 -0.3524 -3.5593 -1.0601
 9102TIP3   OH248720   2.730   6.460  14.719 -0.1357  0.1743 -0.5940
 9102TIP3    H148721   2.780   6.406  14.658  2.0589  1.5744 -0.1284
 9102TIP3    H248722   2.695   6.398  14.783 -0.4545 -1.0299 -1.8692
 9103TIP3   OH248723   4.947   2.797   0.264 -0.3645  0.1090  0.0771
 9103TIP3    H148724   4.955   2.707   0.297 -1.6709 -0.0281  0.0702
 9103TIP3    H248725   5.038   2.826   0.251  0.1914 -0.1668  2.8014
 9104TIP3   OH248726   1.984   4.853  10.792 -0.4681 -0.1600  0.3587
 9104TIP3    H148727   2.054   4.869  10.855  0.1982 -0.5039 -0.2882
 9104TIP3    H248728   1.918   4.805  10.842 -0.0695 -0.1899  0.8664
 9105TIP3   OH248729   6.189   3.553   3.024 -0.7584 -0.0279  0.1872
 9105TIP3    H148730   6.270   3.528   3.069  1.1275  2.7809 -1.3711
 9105TIP3    H248731   6.131   3.583   3.094  1.5244  2.7843  1.0547
 9106TIP3   OH248732   5.288   0.558  12.570 -0.2267 -0.1353  0.5157
 9106TIP3    H148733   5.342   0.552  12.491 -0.5193  0.5338  0.2554
 9106TIP3    H248734   5.198   0.553  12.539 -0.3380 -1.9568  1.0178
 9107TIP3   OH248735   5.060   5.562  13.085  0.0622 -0.1796  0.4337
 9107TIP3    H148736   5.155   5.567  13.079  0.1713 -1.0618  1.1618
 9107TIP3    H248737   5.028   5.636  13.033  1.1511  0.6708  0.9459
 9108TIP3   OH248738   0.839   3.507  16.419  0.2883 -0.0154  0.5550
 9108TIP3    H148739   0.898   3.576  16.450 -0.2963  1.7182 -1.8342
 9108TIP3    H248740   0.763   3.512  16.476  1.3409 -0.5143  2.0474
 9109TIP3   OH248741   2.637   1.488   1.213  0.1668 -0.2379 -0.1917
 9109TIP3    H148742   2.694   1.550   1.259 -0.7159 -0.1341  0.8062
 9109TIP3    H248743   2.695   1.417   1.187  1.1256  0.8157 -1.0204
 9110TIP3   OH248744   5.208   6.319   1.683 -0.6876 -0.1967 -0.3700
 9110TIP3    H148745   5.182   6.365   1.603 -2.1107 -0.1158  0.1218
 9110TIP3    H248746   5.245   6.236   1.651 -1.7518 -0.4060 -1.1119
 9111TIP3   OH248747   2.460   4.548   1.056 -0.2339  0.5466  0.6154
 9111TIP3    H148748   2.402   4.605   1.005 -1.1459 -0.1806  0.8146
 9111TIP3    H248749   2.514   4.504   0.990 -0.8180  0.2475  0.3352
 9112TIP3   OH248750   5.822   2.756  12.668  0.5197  0.3014  0.1898
 9112TIP3    H148751   5.917   2.754  12.662  0.5561  2.3766 -0.8005
 9112TIP3    H248752   5.792   2.739  12.579  0.1252  2.6627 -0.2092
 9113TIP3   OH248753   0.706   1.026  17.019  0.3020 -0.1729  0.4367
 9113TIP3    H148754   0.632   1.079  16.989  1.4386  1.1062 -0.2165
 9113TIP3    H248755   0.764   1.020  16.943  0.0759 -2.6967  0.3862
 9114TIP3   OH248756   3.254   2.934  12.853  0.0483 -1.0179 -0.0139
 9114TIP3    H148757   3.307   3.011  12.834  0.0938 -1.3678 -1.4245
 9114TIP3    H248758   3.219   2.950  12.940 -0.2744  0.7855 -0.4294
 9115TIP3   OH248759   4.558   1.790  12.517  0.9432  0.4692  0.3057
 9115TIP3    H148760   4.495   1.768  12.586  0.3467 -0.7786 -0.5941
 9115TIP3    H248761   4.641   1.754  12.547  0.4946 -0.8965 -0.0099
 9116TIP3   OH248762   3.952   2.565  12.704  0.3818 -0.0204  0.3803
 9116TIP3    H148763   4.031   2.519  12.734  1.9374  1.5299 -1.1299
 9116TIP3    H248764   3.985   2.637  12.650 -2.1153 -0.4064 -1.8836
 9117TIP3   OH248765   2.034   2.363   4.581  0.1255 -0.1135 -0.0796
 9117TIP3    H148766   1.977   2.339   4.655 -0.0733 -0.6266 -0.3955
 9117TIP3    H248767   1.987   2.333   4.504 -0.2861  1.5742 -0.5417
 9118TIP3   OH248768   0.998   3.525  13.949  0.1685 -0.5886 -0.5586
 9118TIP3    H148769   0.925   3.564  13.997  1.0976  2.4094 -1.3461
 9118TIP3    H248770   1.039   3.466  14.012 -0.9840  0.1677  0.9768
 9119TIP3   OH248771   4.778   5.163  16.653  0.1606  0.1122  0.2279
 9119TIP3    H148772   4.736   5.171  16.739  0.3491 -2.4536  0.6556
 9119TIP3    H248773   4.863   5.123  16.672 -0.4563 -2.0840 -1.2230
 9120TIP3   OH248774   2.500   1.836  13.082 -0.4958  0.6802 -0.1463
 9120TIP3    H148775   2.579   1.887  13.064 -0.7371  1.1583  0.1340
 9120TIP3    H248776   2.509   1.758  13.027  1.0341 -0.1661  1.2353
 9121TIP3   OH248777   4.379   6.332  17.001 -0.1244  0.0547  0.1590
 9121TIP3    H148778   4.365   6.415  17.046 -0.0636  0.4985 -0.6210
 9121TIP3    H248779   4.471   6.334  16.973 -0.7579  0.8728 -2.0730
 9122TIP3   OH248780   4.042   2.221   5.318  0.0079  0.0518 -0.4025
 9122TIP3    H148781   4.010   2.164   5.387 -0.8859  1.4966  0.4193
 9122TIP3    H248782   3.968   2.277   5.296  1.6121  2.9320  0.9437
 9123TIP3   OH248783   5.516   6.058   3.836 -0.3409  0.1665 -0.1701
 9123TIP3    H148784   5.422   6.040   3.831 -0.8640  2.8004 -1.7838
 9123TIP3    H248785   5.522   6.140   3.886  1.1861 -0.3412  0.5463
 9124TIP3   OH248786   1.863   2.774   1.539  0.3436 -0.4801 -0.7541
 9124TIP3    H148787   1.854   2.843   1.474 -1.0374 -1.6823 -1.9197
 9124TIP3    H248788   1.812   2.804   1.614  1.0464  0.4319 -0.6251
 9125TIP3   OH248789   3.458   0.678   3.156 -0.4319  0.0849 -0.0395
 9125TIP3    H148790   3.393   0.684   3.227 -0.3419  0.7955 -0.0048
 9125TIP3    H248791   3.408   0.653   3.079 -0.5854 -0.3594  0.2010
 9126TIP3   OH248792   1.159   4.341   3.665  0.0784 -0.4887 -0.0497
 9126TIP3    H148793   1.112   4.317   3.585 -0.1265  0.1102 -0.1076
 9126TIP3    H248794   1.148   4.435   3.673  0.8758 -0.4124  0.1942
 9127TIP3   OH248795   2.825   0.314   4.389 -0.0039  0.1883  0.8801
 9127TIP3    H148796   2.877   0.391   4.366 -0.3326  0.7086  1.8240
 9127TIP3    H248797   2.865   0.281   4.470  0.7127 -1.2000 -0.0071
 9128TIP3   OH248798   6.274   6.085  16.041  0.4296 -0.0347 -0.0325
 9128TIP3    H148799   6.367   6.107  16.040  0.0331  1.7997 -0.8079
 9128TIP3    H248800   6.237   6.139  16.111 -0.0699 -0.6614  0.1943
 9129TIP3   OH248801   5.537   4.591   4.736 -0.0400 -0.0801  0.4817
 9129TIP3    H148802   5.622   4.555   4.759 -1.3751 -2.1746  2.5419
 9129TIP3    H248803   5.542   4.683   4.763  2.2538  0.5084 -1.5823
 9130TIP3   OH248804   5.331   3.167  12.498  0.1369 -0.1639 -0.3224
 9130TIP3    H148805   5.402   3.156  12.561  0.0541 -2.6143 -0.5476
 9130TIP3    H248806   5.374   3.165  12.413  0.0268  0.8845 -0.4098
 9131TIP3   OH248807   0.737   2.647   1.630 -0.5665  0.1246  0.1091
 9131TIP3    H148808   0.809   2.675   1.687  0.1994 -1.9319  0.2322
 9131TIP3    H248809   0.780   2.615   1.551 -1.5652  1.8748 -1.2148
 9132TIP3   OH248810   3.784   0.460   3.466 -0.1059  0.2500 -0.2206
 9132TIP3    H148811   3.855   0.445   3.404  1.3503  1.0936  1.1641
 9132TIP3    H248812   3.787   0.554   3.483 -0.3974  0.0277  1.1720
 9133TIP3   OH248813   3.885   3.275  10.656  0.1717  0.5477  0.2762
 9133TIP3    H148814   3.842   3.352  10.620  0.1596 -0.0188 -0.9514
 9133TIP3    H248815   3.949   3.249  10.590  0.0501 -0.6021  0.5833
 9134TIP3   OH248816   3.298   1.127  13.821  0.2907  0.8809 -0.0758
 9134TIP3    H148817   3.372   1.180  13.792  0.7585  0.6294  0.6269
 9134TIP3    H248818   3.269   1.169  13.902  1.3172 -0.4926  1.0438
 9135TIP3   OH248819   3.599   0.549  12.198  0.7375 -0.6633 -0.1318
 9135TIP3    H148820   3.614   0.641  12.218 -0.9786  0.0352 -1.7555
 9135TIP3    H248821   3.604   0.544  12.103  1.1414 -2.3209 -0.0495
 9136TIP3   OH248822   2.636   3.702   3.219 -0.0251  0.6065 -0.0850
 9136TIP3    H148823   2.714   3.715   3.272  1.0164 -0.8131 -1.1622
 9136TIP3    H248824   2.593   3.625   3.257 -0.4925  0.9307  0.0492
 9137TIP3   OH248825   2.162   5.382  16.875 -0.2667 -0.1789 -0.6471
 9137TIP3    H148826   2.148   5.473  16.901 -0.3321  0.4458 -2.6970
 9137TIP3    H248827   2.153   5.332  16.956 -0.2469  1.6281  0.5163
 9138TIP3   OH248828   5.725   3.951   0.207 -0.4078  0.6528  0.6800
 9138TIP3    H148829   5.729   4.031   0.154  0.2605  1.1538  1.4735
 9138TIP3    H248830   5.734   3.880   0.143 -1.1605  1.1916 -0.0544
 9139TIP3   OH248831   1.184   2.737   5.265  0.0383 -0.2648  0.0610
 9139TIP3    H148832   1.266   2.707   5.226  0.0120 -1.1897  0.6765
 9139TIP3    H248833   1.146   2.658   5.305 -0.5040  0.4069  0.9119
 9140TIP3   OH248834   6.282   5.449  11.096  0.1155  0.7062  0.6951
 9140TIP3    H148835   6.308   5.437  11.005 -1.9105 -1.3059  0.2855
 9140TIP3    H248836   6.192   5.481  11.092 -0.4053 -0.4731  1.9201
 9141TIP3   OH248837   5.292   4.194   4.678 -0.9760  0.1992 -0.6975
 9141TIP3    H148838   5.363   4.166   4.621  2.0276  2.1598  1.7290
 9141TIP3    H248839   5.251   4.267   4.632 -0.0763  0.3226 -1.3382
 9142TIP3   OH248840   0.758   2.835  16.577  0.1796  0.3739  0.5153
 9142TIP3    H148841   0.703   2.831  16.655  0.8879 -1.1734  0.9894
 9142TIP3    H248842   0.838   2.878  16.606 -0.0251  0.8853  0.3256
 9143TIP3   OH248843   5.766   1.287  14.953  0.1155 -0.6677 -0.2795
 9143TIP3    H148844   5.690   1.334  14.988  0.3017  0.0306 -0.7817
 9143TIP3    H248845   5.808   1.351  14.894  2.8429  0.0867  2.2473
 9144TIP3   OH248846   6.388   5.861   4.168 -0.3318  0.2879  0.0132
 9144TIP3    H148847   6.475   5.871   4.130 -0.3602 -3.3044 -1.4606
 9144TIP3    H248848   6.395   5.900   4.255  2.2115  1.6272 -0.7020
 9145TIP3   OH248849   4.814   1.335   5.729 -0.5870  0.1852  0.1004
 9145TIP3    H148850   4.776   1.344   5.641 -0.8902 -1.5044  0.0227
 9145TIP3    H248851   4.739   1.318   5.785 -0.6011  2.8241  1.0265
 9146TIP3   OH248852   5.012   6.453   0.406 -0.5324  0.4441 -0.2792
 9146TIP3    H148853   5.074   6.526   0.407  0.0286 -0.0014 -1.2918
 9146TIP3    H248854   4.963   6.464   0.324  1.2302 -1.6423 -1.7268
 9147TIP3   OH248855   6.324   3.914   1.681 -0.3809  0.1197 -0.1529
 9147TIP3    H148856   6.407   3.950   1.713 -0.6181 -0.5238  1.2669
 9147TIP3    H248857   6.350   3.843   1.623  0.0598  1.3457 -1.5449
 9148TIP3   OH248858   6.278   3.652  11.156  0.6681 -0.9895 -0.4032
 9148TIP3    H148859   6.203   3.704  11.185  1.5206  0.2599 -0.3089
 9148TIP3    H248860   6.248   3.607  11.077 -0.3882 -1.0808  0.0398
 9149TIP3   OH248861   5.862   3.395   5.241  0.0800 -0.3976 -0.1924
 9149TIP3    H148862   5.887   3.472   5.292  1.6776 -1.1201  0.1973
 9149TIP3    H248863   5.939   3.338   5.245 -1.4310 -2.5074  0.4553
 9150TIP3   OH248864   4.629   2.799  15.930  0.3442  0.2182 -0.6455
 9150TIP3    H148865   4.656   2.889  15.912  0.9203 -0.5104 -4.3073
 9150TIP3    H248866   4.549   2.807  15.982  1.7829  2.6858  1.4079
 9151TIP3   OH248867   2.412   1.717   4.153  0.7553 -0.4526 -0.1378
 9151TIP3    H148868   2.447   1.801   4.124  0.3348  0.0330  0.7170
 9151TIP3    H248869   2.466   1.651   4.110  0.9374  0.2548 -1.0013
 9152TIP3   OH248870   1.646   4.118  12.967 -0.4438 -0.1669  0.0055
 9152TIP3    H148871   1.552   4.135  12.956 -0.4368 -0.0711  0.0938
 9152TIP3    H248872   1.681   4.115  12.878 -0.2880  1.1421  0.0112
 9153TIP3   OH248873   1.304   2.249   3.177 -0.4902 -0.3699 -0.3557
 9153TIP3    H148874   1.321   2.171   3.125  2.7373  0.1424 -0.2806
 9153TIP3    H248875   1.356   2.318   3.134 -0.3003  0.8100  1.6567
 9154TIP3   OH248876   0.764   1.251  12.468  0.6429 -0.2635 -0.1446
 9154TIP3    H148877   0.802   1.167  12.441  1.2342 -0.2490  0.6039
 9154TIP3    H248878   0.717   1.282  12.391  3.7522  0.6561 -1.8164
 9155TIP3   OH248879   3.410   0.174  10.601  0.2733 -0.1758  0.1029
 9155TIP3    H148880   3.420   0.269  10.610 -1.0618  0.0681 -0.7110
 9155TIP3    H248881   3.316   0.159  10.605  0.3024 -1.2061 -1.9226
 9156TIP3   OH248882   3.802   6.685  10.515  0.0000 -0.0944 -0.0951
 9156TIP3    H148883   3.852   6.606  10.536 -0.9513 -1.3330 -2.1238
 9156TIP3    H248884   3.789   6.680  10.420  0.2612  2.7469 -0.3667
 9157TIP3   OH248885   6.166   6.483  11.334 -0.0278 -0.0323 -0.8116
 9157TIP3    H148886   6.198   6.402  11.373  0.8254  1.4097  1.6820
 9157TIP3    H248887   6.243   6.522  11.292 -0.3075 -0.2246 -1.5193
 9158TIP3   OH248888   3.118   1.241  10.422 -0.4776  0.3893 -0.0275
 9158TIP3    H148889   3.057   1.190  10.475 -0.9909 -1.2165 -2.0272
 9158TIP3    H248890   3.193   1.183  10.408 -2.0137 -0.9951 -4.2345
 9159TIP3   OH248891   6.146   1.481   0.460 -0.1516 -0.3013  0.2034
 9159TIP3    H148892   6.077   1.545   0.443  0.1524  0.3773  1.3753
 9159TIP3    H248893   6.226   1.523   0.427 -0.0438 -0.3382  0.4152
 9160TIP3   OH248894   6.407   5.520  16.830 -0.3383 -0.2204 -0.3534
 9160TIP3    H148895   6.325   5.486  16.796  0.7775 -1.4966 -1.9197
 9160TIP3    H248896   6.472   5.453  16.808  1.0523  0.4997  1.3066
 9161TIP3   OH248897   1.889   2.930   4.030 -0.8243 -0.4121 -0.9704
 9161TIP3    H148898   1.974   2.951   3.992 -0.0287 -1.7399  0.0257
 9161TIP3    H248899   1.861   2.850   3.985 -0.5358 -1.1898  0.2073
 9162TIP3   OH248900   3.629   1.338  12.526  0.5522  0.4916 -0.5571
 9162TIP3    H148901   3.583   1.390  12.592 -0.6832 -1.5985  0.3119
 9162TIP3    H248902   3.682   1.402  12.478  0.8836  2.2003  1.9138
 9163TIP3   OH248903   1.518   5.902  10.876  0.5951  0.0869 -0.0638
 9163TIP3    H148904   1.557   5.820  10.846 -1.1780 -0.1864 -1.7587
 9163TIP3    H248905   1.484   5.881  10.964  0.7443 -0.7927 -0.2066
 9164TIP3   OH248906   3.318   3.041  13.402 -0.1870 -0.1367  0.1385
 9164TIP3    H148907   3.373   3.008  13.331  0.7658  0.6687  0.4745
 9164TIP3    H248908   3.346   3.132  13.413 -0.4125 -0.2108  1.4623
 9165TIP3   OH248909   6.313   2.107   2.954  0.1874 -0.0896  0.2021
 9165TIP3    H148910   6.368   2.148   2.887 -0.6229 -0.3428 -0.6335
 9165TIP3    H248911   6.376   2.069   3.016  0.9672 -0.6808 -0.9120
 9166TIP3   OH248912   4.019   5.593  14.726  0.2906 -0.3636 -0.7317
 9166TIP3    H148913   3.978   5.678  14.709  0.8393  0.0374 -0.0527
 9166TIP3    H248914   4.010   5.580  14.820  1.4437 -0.4128 -0.6159
 9167TIP3   OH248915   6.098   5.924   4.510  0.1469  0.2857 -0.7095
 9167TIP3    H148916   6.036   5.851   4.503  0.1291  0.1705  0.4774
 9167TIP3    H248917   6.092   5.951   4.601  1.6609  0.4530 -0.6489
 9168TIP3   OH248918   3.015   2.967  14.873  0.1590 -0.4522  0.1617
 9168TIP3    H148919   2.948   2.908  14.837  1.4389 -0.9603 -1.5722
 9168TIP3    H248920   2.983   3.055  14.852 -0.1175 -0.6754 -0.3951
 9169TIP3   OH248921   4.374   1.259  12.909 -0.5154  0.0354  0.2698
 9169TIP3    H148922   4.419   1.257  12.994 -2.4346 -1.5627  1.3236
 9169TIP3    H248923   4.289   1.297  12.928  0.4037  3.5272 -1.7956
 9170TIP3   OH248924   2.802   2.831  16.769 -0.5171 -0.3342 -0.0714
 9170TIP3    H148925   2.880   2.802  16.721 -2.0182 -1.0498 -2.2193
 9170TIP3    H248926   2.810   2.789  16.855  0.7866 -1.4814 -0.7134
 9171TIP3   OH248927   2.982   2.770  12.405 -0.1949 -0.4076  0.3112
 9171TIP3    H148928   2.925   2.736  12.337 -0.5134  2.3014 -0.8969
 9171TIP3    H248929   2.922   2.801  12.473 -0.2347  1.9449 -0.7179
 9172TIP3   OH248930   5.658   2.156  16.220 -0.5045  0.6448 -0.4288
 9172TIP3    H148931   5.602   2.213  16.166 -2.8249  0.2469  1.3798
 9172TIP3    H248932   5.618   2.069  16.211  0.3298  0.1809  0.2908
 9173TIP3   OH248933   1.748   6.196   4.609 -0.1347  0.1911 -0.3285
 9173TIP3    H148934   1.831   6.225   4.647 -0.3233  3.1185 -1.8625
 9173TIP3    H248935   1.726   6.263   4.545 -1.8163 -2.4078 -2.7491
 9174TIP3   OH248936   5.642   2.967  13.066  0.0583  0.4980 -0.2527
 9174TIP3    H148937   5.568   2.928  13.019  2.1889 -2.0382 -1.8402
 9174TIP3    H248938   5.632   2.937  13.156 -1.1941  0.7725 -0.2878
 9175TIP3   OH248939   2.725   1.348  10.937  0.0417  0.6069  0.5684
 9175TIP3    H148940   2.681   1.273  10.976 -0.3049  0.4195 -0.1486
 9175TIP3    H248941   2.799   1.366  10.994 -0.7249  0.6585  1.5736
 9176TIP3   OH248942   1.002   5.436  12.693  0.2490 -0.1572  0.7190
 9176TIP3    H148943   0.982   5.512  12.748 -0.7937 -0.9793  1.5245
 9176TIP3    H248944   1.014   5.472  12.606 -0.6516  0.8963  1.0011
 9177TIP3   OH248945   5.428   4.285  14.427  0.5379  0.1566  0.4687
 9177TIP3    H148946   5.456   4.200  14.462 -0.9379 -0.1667  0.9082
 9177TIP3    H248947   5.477   4.349  14.479  1.2202 -0.3920  0.5256
 9178TIP3   OH248948   5.529   2.655  14.527 -0.0315  0.3231  0.2627
 9178TIP3    H148949   5.456   2.715  14.521  0.1469  0.6035  0.8137
 9178TIP3    H248950   5.490   2.568  14.516 -0.3107  0.5264 -0.3632
 9179TIP3   OH248951   1.987   6.135   1.064  0.1498  0.3442 -0.1911
 9179TIP3    H148952   2.011   6.048   1.032  0.1314  0.0350  0.6220
 9179TIP3    H248953   2.070   6.181   1.074  0.2120  0.1751  0.0701
 9180TIP3   OH248954   4.634   1.986  14.380 -0.4901 -0.0461  0.0497
 9180TIP3    H148955   4.567   1.947  14.436 -0.7220 -0.1228 -0.2754
 9180TIP3    H248956   4.712   1.931  14.393 -0.6499 -0.2810  0.0217
 9181TIP3   OH248957   5.852   6.136   2.635  0.0991 -0.5616  0.5217
 9181TIP3    H148958   5.791   6.209   2.642 -0.7234 -1.2861  1.1150
 9181TIP3    H248959   5.921   6.168   2.576 -0.2059  0.7029  0.8153
 9182TIP3   OH248960   0.692   6.267   2.199  0.3478 -0.0647 -0.0888
 9182TIP3    H148961   0.710   6.244   2.290 -1.1121 -0.6250  0.0962
 9182TIP3    H248962   0.744   6.205   2.147 -0.5102 -1.2527  0.4017
 9183TIP3   OH248963   2.029   6.291  13.238 -0.1718 -0.4898 -0.3042
 9183TIP3    H148964   2.099   6.230  13.261  0.1562 -0.1024 -0.2580
 9183TIP3    H248965   2.061   6.376  13.267 -1.1193 -0.4503  0.7137
 9184TIP3   OH248966   1.737   6.140  14.891 -0.0060 -0.4394 -0.6056
 9184TIP3    H148967   1.674   6.206  14.920 -0.2572 -2.2188  3.6089
 9184TIP3    H248968   1.684   6.062  14.876  0.8261 -1.0422 -0.4542
 9185TIP3   OH248969   5.299   3.376  11.868  0.3465 -0.6428  0.4337
 9185TIP3    H148970   5.263   3.462  11.846  1.9555  0.5623  2.2453
 9185TIP3    H248971   5.348   3.390  11.949  0.7967 -3.2489  0.6970
 9186TIP3   OH248972   0.746   6.312   0.250 -0.2077  0.6045  0.4358
 9186TIP3    H148973   0.675   6.257   0.283 -0.4988  0.0609 -0.9969
 9186TIP3    H248974   0.730   6.398   0.287 -1.2383  0.3215  0.6655
 9187TIP3   OH248975   6.479   2.137  16.659 -0.0379  0.1110  0.2252
 9187TIP3    H148976   6.463   2.058  16.608 -1.4257  0.6289 -0.2042
 9187TIP3    H248977   6.419   2.130  16.733  0.1507  0.5426  0.4187
 9188TIP3   OH248978   2.084   0.791   2.824  0.2575 -0.1336  0.5974
 9188TIP3    H148979   2.120   0.860   2.880 -0.8192  1.7267 -0.9055
 9188TIP3    H248980   2.160   0.745   2.791  1.0145  0.4312  1.5058
 9189TIP3   OH248981   6.368   0.344  14.209  0.0724 -0.6016 -0.2234
 9189TIP3    H148982   6.386   0.309  14.122 -1.9616 -1.7473 -0.2456
 9189TIP3    H248983   6.356   0.267  14.265  0.4537  0.1069  0.8715
 9190TIP3   OH248984   3.987   2.251   1.343  0.0447  0.8204 -0.3994
 9190TIP3    H148985   3.903   2.253   1.390  0.2431  1.1110 -0.0545
 9190TIP3    H248986   3.963   2.264   1.251 -0.1646  2.6478 -0.1342
 9191TIP3   OH248987   5.271   2.924  15.633  0.1277 -0.2816 -0.0261
 9191TIP3    H148988   5.221   2.996  15.593  0.7873  1.0996  1.5355
 9191TIP3    H248989   5.310   2.963  15.711  0.9104 -2.2362  0.5972
 9192TIP3   OH248990   1.099   0.069   2.128 -0.2356 -0.0555  0.2965
 9192TIP3    H148991   1.115   0.136   2.061 -0.6573  0.4911  0.7395
 9192TIP3    H248992   1.102   0.117   2.211  1.0858 -0.8577  0.7420
 9193TIP3   OH248993   0.488   1.462   2.064 -0.3675  0.4378  0.0492
 9193TIP3    H148994   0.437   1.536   2.096  0.3625  1.2894 -0.6813
 9193TIP3    H248995   0.426   1.390   2.056 -1.3509  1.3118 -0.3577
 9194TIP3   OH248996   3.302   1.470   3.932 -0.3059  0.2667 -0.2592
 9194TIP3    H148997   3.337   1.455   4.020  0.0961 -2.1859 -0.7550
 9194TIP3    H248998   3.345   1.403   3.878 -0.7120  1.5601 -2.2919
 9195TIP3   OH248999   0.986   6.564  15.439 -0.3032 -0.8608 -0.0322
 9195TIP3    H149000   1.049   6.628  15.406  0.3825 -2.5255 -2.2153
 9195TIP3    H249001   1.027   6.528  15.518  0.1810  0.0221  0.1281
 9196TIP3   OH249002   1.346   5.254  13.399  0.2891 -0.4699  0.2891
 9196TIP3    H149003   1.307   5.223  13.481  1.4887 -0.9933  0.6846
 9196TIP3    H249004   1.349   5.349  13.409 -1.2833 -0.3816  0.0498
 9197TIP3   OH249005   1.516   1.515  14.937 -0.7168 -0.1403  0.0255
 9197TIP3    H149006   1.475   1.509  14.851  1.8840 -2.3819 -1.2263
 9197TIP3    H249007   1.582   1.446  14.936  1.4455  1.6892  2.7097
 9198TIP3   OH249008   3.455   4.303  15.128 -0.2330 -0.0225 -0.2428
 9198TIP3    H149009   3.473   4.378  15.185  1.6642 -1.6725  1.4701
 9198TIP3    H249010   3.537   4.291  15.079 -0.6275 -0.8023 -0.7194
 9199TIP3   OH249011   3.487   2.777  11.007 -0.1290  0.0308  0.1579
 9199TIP3    H149012   3.460   2.799  10.918  0.4314  1.0286  0.2187
 9199TIP3    H249013   3.567   2.827  11.021  0.4321 -1.0277  0.8211
 9200TIP3   OH249014   2.297   3.479   0.036 -0.7883 -0.3579  0.5016
 9200TIP3    H149015   2.203   3.497   0.039 -0.7619 -0.0593 -0.4163
 9200TIP3    H249016   2.321   3.484  -0.056  0.3886  0.8601  0.8336
 9201TIP3   OH249017   5.203   3.138  15.502  0.3545 -0.6461  0.0282
 9201TIP3    H149018   5.131   3.188  15.465 -0.1317 -1.3013  0.0860
 9201TIP3    H249019   5.272   3.204  15.517 -0.2273 -0.0164 -0.0052
 9202TIP3   OH249020   4.036   0.904  11.664 -0.0579  0.2459  0.3953
 9202TIP3    H149021   3.960   0.911  11.606 -0.2914 -1.6630  0.4229
 9202TIP3    H249022   4.083   0.986  11.651 -1.7005  1.1351 -0.2100
 9203TIP3   OH249023   3.599   0.575   1.942  0.0339 -0.5468  0.1483
 9203TIP3    H149024   3.603   0.663   1.979 -0.6846 -0.6847  0.5815
 9203TIP3    H249025   3.690   0.547   1.936  0.2625  0.1828  0.1002
 9204TIP3   OH249026   1.184   0.564   1.869 -0.3103 -0.4183 -0.2951
 9204TIP3    H149027   1.185   0.586   1.962 -0.7729 -0.0104 -0.3822
 9204TIP3    H249028   1.091   0.564   1.846 -0.1396  0.9224 -1.0883
 9205TIP3   OH249029   1.519   2.719   2.058 -1.0880 -0.0468 -0.5635
 9205TIP3    H149030   1.606   2.713   2.018 -0.5843  0.1216  0.4949
 9205TIP3    H249031   1.493   2.810   2.046 -1.3665 -0.2176 -1.3554
 9206TIP3   OH249032   1.375   5.803   5.898  0.4372 -0.1190  0.3880
 9206TIP3    H149033   1.421   5.862   5.838 -0.3756  1.1930  1.0269
 9206TIP3    H249034   1.444   5.772   5.957  0.8952  0.0933 -0.0208
 9207TIP3   OH249035   0.308   6.179   1.065  0.1603 -0.4399  0.4763
 9207TIP3    H149036   0.283   6.152   0.976  2.0934 -0.1356 -0.2046
 9207TIP3    H249037   0.404   6.183   1.063  0.2046  4.9051  0.9406
 9208TIP3   OH249038   1.707   2.678   5.819 -0.7420 -0.1534 -0.6499
 9208TIP3    H149039   1.641   2.657   5.753 -0.5587  0.2307 -0.9663
 9208TIP3    H249040   1.708   2.774   5.823 -1.0338 -0.1787  0.2108
 9209TIP3   OH249041   4.083   1.013   2.738 -0.3409  0.2099 -0.5911
 9209TIP3    H149042   4.144   1.073   2.780  0.9126 -1.3187 -0.1041
 9209TIP3    H249043   4.131   0.980   2.662 -0.4454 -1.1791 -0.0821
 9210TIP3   OH249044   3.107   2.249   4.501 -0.0881  0.3963 -0.1960
 9210TIP3    H149045   3.013   2.236   4.483 -0.0779 -0.9702  0.6654
 9210TIP3    H249046   3.125   2.193   4.575  1.3157  1.0826  0.0030
 9211TIP3   OH249047   6.522   0.287   6.020 -0.4299  0.5534  0.0094
 9211TIP3    H149048   6.600   0.337   5.995  0.2878 -0.3511  0.3846
 9211TIP3    H249049   6.532   0.203   5.975  0.5175 -0.8459  2.6232
 9212TIP3   OH249050   2.487   6.193  16.752 -0.0802  0.5265 -0.4023
 9212TIP3    H149051   2.398   6.167  16.730  0.2654 -1.5769  0.4325
 9212TIP3    H249052   2.479   6.240  16.834 -0.3228 -1.1733  0.6090
 9213TIP3   OH249053   5.286   2.262  12.569  0.6412  0.6288  0.2452
 9213TIP3    H149054   5.254   2.180  12.607 -2.0950  0.5785 -1.8083
 9213TIP3    H249055   5.334   2.235  12.491  2.5217  0.8996  1.2664
 9214TIP3   OH249056   2.785   4.795  16.936 -1.0831  0.2184  0.3446
 9214TIP3    H149057   2.825   4.833  17.014 -1.0848 -0.4297  0.6666
 9214TIP3    H249058   2.835   4.715  16.919 -2.0864 -0.4985  0.6373
 9215TIP3   OH249059   3.864   5.714  13.619 -0.3626  0.0030  0.0188
 9215TIP3    H149060   3.802   5.785  13.638 -1.1090 -0.9296  1.2397
 9215TIP3    H249061   3.809   5.639  13.598  0.4334  0.0011 -2.3064
 9216TIP3   OH249062   1.241   0.375   3.564 -0.0935  0.6772  0.2335
 9216TIP3    H149063   1.185   0.303   3.533  1.8428 -0.6661 -0.3464
 9216TIP3    H249064   1.230   0.375   3.659  0.9232 -1.4161  0.4211
 9217TIP3   OH249065   3.020   2.072   6.336  0.0026 -0.3214  0.0056
 9217TIP3    H149066   2.961   2.146   6.328 -0.0998 -0.1839  1.5812
 9217TIP3    H249067   3.064   2.066   6.252 -0.1930  1.3535 -0.2462
 9218TIP3   OH249068   6.707   4.877  13.768  0.7128  0.4163  0.3629
 9218TIP3    H149069   6.673   4.897  13.855 -0.0782  0.8789 -0.0437
 9218TIP3    H249070   6.775   4.811  13.783 -0.4934 -0.6797  1.1866
 9219TIP3   OH249071   2.219   0.892  12.398  0.4840  0.3158  0.1427
 9219TIP3    H149072   2.236   0.809  12.442  0.3234  0.0771 -0.2447
 9219TIP3    H249073   2.291   0.902  12.336  0.1110  0.1054 -0.3301
 9220TIP3   OH249074   3.980   6.670  13.679 -0.0475 -0.6308 -0.1875
 9220TIP3    H149075   3.936   6.592  13.643 -3.0351  0.7752  0.1220
 9220TIP3    H249076   3.987   6.730  13.606  0.2073 -0.3404  0.0711
 9221TIP3   OH249077   4.282   2.000   1.198  0.0632 -0.0558 -0.5626
 9221TIP3    H149078   4.314   1.927   1.252 -1.1433  0.1547  0.4945
 9221TIP3    H249079   4.195   2.019   1.234 -0.7273  0.2078 -2.5007
 9222TIP3   OH249080   5.745   2.998  15.999 -0.1503 -0.0849 -0.0649
 9222TIP3    H149081   5.731   3.086  16.034 -0.4018  0.1798 -0.8079
 9222TIP3    H249082   5.791   3.013  15.916  0.4472 -0.6972  0.1441
 9223TIP3   OH249083   4.650   6.475  13.759 -0.3629 -0.4313  0.0875
 9223TIP3    H149084   4.666   6.414  13.687  1.2634 -0.4874  0.4546
 9223TIP3    H249085   4.623   6.420  13.832 -0.4399 -0.5452 -0.0269
 9224TIP3   OH249086   6.585   3.459   4.354  0.4974  0.5936  0.3452
 9224TIP3    H149087   6.540   3.397   4.412  1.3582 -0.7017 -0.3282
 9224TIP3    H249088   6.531   3.460   4.275  1.3363 -0.5958 -0.2778
 9225TIP3   OH249089   1.181   3.485  14.843  1.1260  0.2126  0.0487
 9225TIP3    H149090   1.149   3.395  14.834  2.7107 -0.3902 -0.0555
 9225TIP3    H249091   1.221   3.504  14.758  3.8906 -0.3200  1.1279
 9226TIP3   OH249092   4.842   0.725   4.164 -0.1925 -0.6586 -0.5692
 9226TIP3    H149093   4.753   0.725   4.198 -0.2950 -0.1039 -0.8285
 9226TIP3    H249094   4.895   0.689   4.236 -0.6553 -1.2119 -0.5076
 9227TIP3   OH249095   2.899   0.666   4.533 -0.3051  0.8673 -0.1295
 9227TIP3    H149096   2.849   0.623   4.464  1.7052  0.5521 -1.4638
 9227TIP3    H249097   2.918   0.754   4.500  0.3266  0.8528  0.1623
 9228TIP3   OH249098   5.950   3.658  15.895 -0.1779 -0.1938  0.0255
 9228TIP3    H149099   6.016   3.595  15.864 -0.7471 -0.2385 -1.1371
 9228TIP3    H249100   5.897   3.609  15.957  0.3747 -0.3879  0.3561
 9229TIP3   OH249101   4.136   4.588  14.295 -0.5786 -0.2798  0.0430
 9229TIP3    H149102   4.226   4.564  14.272  0.3848  2.6348  0.2551
 9229TIP3    H249103   4.099   4.509  14.334  1.3095 -2.0738 -1.5386
 9230TIP3   OH249104   0.310   5.502  15.940 -0.2152 -0.3509  0.8757
 9230TIP3    H149105   0.336   5.584  15.981  0.6806  1.8437 -3.4690
 9230TIP3    H249106   0.391   5.452  15.933 -0.0614 -0.0613  0.5278
 9231TIP3   OH249107   2.901   0.315   4.878 -0.0949 -0.7436  0.2760
 9231TIP3    H149108   2.942   0.396   4.846  0.0791 -0.8639  0.1983
 9231TIP3    H249109   2.832   0.346   4.937 -1.0699 -0.4745 -0.9398
 9232TIP3   OH249110   0.772   5.310  14.556 -0.7135  0.8173  0.8383
 9232TIP3    H149111   0.770   5.326  14.650  0.0710 -2.5435  1.5728
 9232TIP3    H249112   0.690   5.263  14.539 -0.9048  1.5095 -0.1870
 9233TIP3   OH249113   2.801   2.248   5.532 -0.0918  0.2136 -0.1845
 9233TIP3    H149114   2.707   2.229   5.524 -0.0392  0.5263 -2.0034
 9233TIP3    H249115   2.832   2.185   5.597 -1.0656 -1.8299 -1.5746
 9234TIP3   OH249116   1.849   1.700  15.323  0.0752 -0.4409 -0.4795
 9234TIP3    H149117   1.914   1.746  15.269  0.3826  0.8097  0.8911
 9234TIP3    H249118   1.765   1.734  15.292  0.3011  1.1965  0.5698
 9235TIP3   OH249119   3.717   1.264  11.578 -0.2176 -0.1351  0.0776
 9235TIP3    H149120   3.716   1.172  11.549  0.6649  0.0195 -0.4780
 9235TIP3    H249121   3.633   1.275  11.623  0.0733 -1.4927  1.0397
 9236TIP3   OH249122   3.577   1.754  16.003 -0.0105 -0.4855  0.0017
 9236TIP3    H149123   3.599   1.684  15.941  0.1632 -0.6801  0.2845
 9236TIP3    H249124   3.659   1.801  16.017 -0.5336  1.0944 -1.8120
 9237TIP3   OH249125   4.989   5.923  12.420  0.7024 -0.1617 -0.7641
 9237TIP3    H149126   4.937   5.983  12.366  2.6689  1.6913 -0.6913
 9237TIP3    H249127   5.061   5.975  12.453  3.0270 -2.7558 -1.3731
 9238TIP3   OH249128   5.577   0.293   1.628  0.9288  0.0611 -0.0624
 9238TIP3    H149129   5.649   0.330   1.681  1.8859 -0.8661 -0.6881
 9238TIP3    H249130   5.596   0.199   1.624  0.4036 -0.0020 -1.3576
 9239TIP3   OH249131   3.278   5.734  13.611  0.2508  0.0364  0.2356
 9239TIP3    H149132   3.311   5.790  13.541  2.0642  0.9631  1.7377
 9239TIP3    H249133   3.258   5.651  13.568  1.0927  0.6465 -1.4031
 9240TIP3   OH249134   3.557   5.862  16.193  0.4229  0.5604  0.4390
 9240TIP3    H149135   3.469   5.831  16.171  1.5255 -2.6100 -0.0352
 9240TIP3    H249136   3.570   5.940  16.138 -1.4764  0.0897 -0.7611
 9241TIP3   OH249137   5.800   3.061   5.898 -0.1915 -0.0176 -0.1824
 9241TIP3    H149138   5.726   3.002   5.916  0.2651 -0.3533  0.6526
 9241TIP3    H249139   5.783   3.138   5.952  0.2663 -0.2661  0.3259
 9242TIP3   OH249140   5.609   2.398   3.875  0.2937 -0.4984  0.2740
 9242TIP3    H149141   5.681   2.434   3.927  0.5152 -2.8032  1.6881
 9242TIP3    H249142   5.538   2.462   3.885  0.7527 -0.2470  2.3943
 9243TIP3   OH249143   3.149   4.982   1.609  0.2233  0.0018 -0.6164
 9243TIP3    H149144   3.221   4.959   1.668 -0.6292  0.4779  0.6446
 9243TIP3    H249145   3.088   4.908   1.615 -0.5576  0.6951  0.2560
 9244TIP3   OH249146   6.205   3.819   6.093  0.0813  0.4231  0.6309
 9244TIP3    H149147   6.258   3.750   6.132 -2.7640 -1.5248  1.3414
 9244TIP3    H249148   6.135   3.834   6.156 -0.2184  3.0061 -0.1868
 9245TIP3   OH249149   5.566   0.638   3.236  0.5057 -0.1038  0.2135
 9245TIP3    H149150   5.560   0.543   3.231 -1.3631 -0.1524  2.2751
 9245TIP3    H249151   5.613   0.655   3.317  1.1516  0.7497 -0.3239
 9246TIP3   OH249152   2.788   5.849  13.117  0.2440 -0.1315  0.3773
 9246TIP3    H149153   2.827   5.935  13.100  0.4486 -0.4962 -1.1705
 9246TIP3    H249154   2.696   5.867  13.133  0.4121  0.4339  0.7345
 9247TIP3   OH249155   6.161   4.420  11.044  0.4705  0.7502 -0.4180
 9247TIP3    H149156   6.067   4.407  11.055  0.6707 -1.3099 -0.7542
 9247TIP3    H249157   6.176   4.510  11.074 -1.3398  0.5834  1.2465
 9248TIP3   OH249158   4.699   2.476  15.972  0.7342  0.5497 -0.0481
 9248TIP3    H149159   4.730   2.428  16.049 -2.5210  0.1333  1.1490
 9248TIP3    H249160   4.703   2.568  15.997 -1.0413  0.3804  0.9996
 9249TIP3   OH249161   5.232   3.498   5.017 -0.2989  0.0299  0.1417
 9249TIP3    H149162   5.178   3.527   5.091 -1.4169  0.0973 -0.6799
 9249TIP3    H249163   5.265   3.413   5.044  0.3695  0.6130  1.2419
 9250TIP3   OH249164   2.096   3.964  15.707 -0.6352 -0.1289  0.6346
 9250TIP3    H149165   2.191   3.961  15.721 -0.4497 -0.1189 -0.5808
 9250TIP3    H249166   2.061   3.901  15.771  0.0767  0.6510  1.8460
 9251TIP3   OH249167   3.930   2.161  16.772 -0.0691  0.1084 -0.1122
 9251TIP3    H149168   3.942   2.171  16.678 -0.7017  1.9761 -0.0458
 9251TIP3    H249169   3.883   2.240  16.799  0.0631 -0.3921  1.7733
 9252TIP3   OH249170   3.520   0.611  12.625 -0.1633 -0.2974 -0.2648
 9252TIP3    H149171   3.557   0.533  12.584  2.6194  0.5566  0.4266
 9252TIP3    H249172   3.517   0.676  12.555 -1.3956 -0.6539 -0.5635
 9253TIP3   OH249173   3.928   2.033  12.974 -0.2269  0.1942  0.1705
 9253TIP3    H149174   4.000   1.987  13.018 -1.1754 -0.1841  1.3992
 9253TIP3    H249175   3.963   2.057  12.888  1.1017 -0.6563  0.4497
 9254TIP3   OH249176   1.096   4.871   1.212 -0.2455  0.4930 -0.2090
 9254TIP3    H149177   1.025   4.934   1.222  0.1373  0.8747  0.1444
 9254TIP3    H249178   1.085   4.810   1.286 -0.2182  0.5458 -0.1608
 9255TIP3   OH249179   2.630   4.574   2.391  0.1824  0.0374 -0.4665
 9255TIP3    H149180   2.632   4.662   2.353  0.6469  0.7814  1.1692
 9255TIP3    H249181   2.713   4.565   2.437 -1.6600  0.7602  3.4924
 9256TIP3   OH249182   1.075   5.035   3.545  0.7323  0.3923  0.0842
 9256TIP3    H149183   1.085   5.106   3.481 -0.6589  0.2526 -0.3277
 9256TIP3    H249184   1.024   5.075   3.616  0.9657  0.1279  0.3973
 9257TIP3   OH249185   5.479   1.152  12.135  0.3618 -0.2461  0.4007
 9257TIP3    H149186   5.432   1.110  12.207  0.0038 -0.9836 -0.2558
 9257TIP3    H249187   5.497   1.240  12.167 -0.9409 -0.1404  0.8868
 9258TIP3   OH249188   5.706   2.800   2.896 -0.4789 -0.0168  0.1134
 9258TIP3    H149189   5.704   2.716   2.850 -2.0199  0.9113 -1.6376
 9258TIP3    H249190   5.786   2.843   2.865 -0.8612  0.0804 -0.7584
 9259TIP3   OH249191   2.370   1.361  17.193 -0.4835  0.2140  0.4842
 9259TIP3    H149192   2.438   1.335  17.255 -2.4100 -1.5085  2.0505
 9259TIP3    H249193   2.378   1.299  17.121 -1.3724 -1.1139  1.4685
 9260TIP3   OH249194   5.135   6.585  14.306 -1.1020 -0.0711  0.3639
 9260TIP3    H149195   5.089   6.509  14.340  0.1309 -1.2537 -0.4915
 9260TIP3    H249196   5.145   6.567  14.212  0.9765  0.1380  0.4864
 9261TIP3   OH249197   2.261   4.462   3.297  0.2871  0.6325 -0.3261
 9261TIP3    H149198   2.319   4.528   3.335 -0.4517  0.2152  1.6362
 9261TIP3    H249199   2.272   4.472   3.203  0.9879  2.8362 -0.0628
 9262TIP3   OH249200   3.954   2.908   0.805  0.6355  0.0946 -0.7177
 9262TIP3    H149201   4.001   2.972   0.750 -0.1843 -0.3962 -2.0232
 9262TIP3    H249202   3.868   2.900   0.764 -0.5665  0.7939  1.5008
 9263TIP3   OH249203   0.556   2.413  12.901 -0.5508 -0.3120 -0.0886
 9263TIP3    H149204   0.569   2.466  12.980  3.5744 -0.7025 -0.2532
 9263TIP3    H249205   0.586   2.325  12.925 -0.5501 -0.7935 -1.6971
 9264TIP3   OH249206   3.637   5.861  15.218  0.7833 -0.0580  0.4711
 9264TIP3    H149207   3.654   5.812  15.137  1.6672 -0.5379  0.9336
 9264TIP3    H249208   3.652   5.952  15.195  3.4727 -0.3882  0.6713
 9265TIP3   OH249209   3.314   2.470   2.598  0.1313 -0.2051  0.1830
 9265TIP3    H149210   3.287   2.541   2.656  0.7577  1.3526 -1.3510
 9265TIP3    H249211   3.291   2.500   2.510  4.1499  0.0430 -0.9854
 9266TIP3   OH249212   5.323   0.619   5.276 -0.6262  0.4527  0.4384
 9266TIP3    H149213   5.352   0.697   5.324 -1.1718 -0.6378  2.6755
 9266TIP3    H249214   5.240   0.646   5.235  0.5686  1.8433 -1.1896
 9267TIP3   OH249215   1.562   4.527  14.877  0.4086 -0.3853  0.0581
 9267TIP3    H149216   1.586   4.556  14.965  1.9679 -1.4299  0.0344
 9267TIP3    H249217   1.493   4.462  14.891  1.2762 -1.2250  0.6239
 9268TIP3   OH249218   1.250   5.183   0.171  0.3405  0.0248  0.2804
 9268TIP3    H149219   1.268   5.090   0.184 -0.0775 -0.2400 -0.8692
 9268TIP3    H249220   1.311   5.210   0.102 -1.0658  0.0206 -1.0129
 9269TIP3   OH249221   2.394   2.968   3.477  0.0103  0.1463 -0.2068
 9269TIP3    H149222   2.363   2.971   3.568  0.8083 -0.4847  0.0955
 9269TIP3    H249223   2.372   2.880   3.447  2.4534 -0.7288  0.3839
 9270TIP3   OH249224   2.393   3.874   0.320 -0.4483  0.4087  0.3624
 9270TIP3    H149225   2.417   3.803   0.380 -1.1803 -0.1081  0.0576
 9270TIP3    H249226   2.448   3.859   0.243 -1.2483 -0.3898 -0.0739
 9271TIP3   OH249227   2.650   0.076   4.359  0.4424 -0.0217 -0.2210
 9271TIP3    H149228   2.681   0.151   4.309 -1.3568  0.5027 -0.6234
 9271TIP3    H249229   2.728   0.023   4.374  1.3616  0.8075 -1.8494
 9272TIP3   OH249230   5.273   4.922  14.385  0.5332  0.0792 -0.2423
 9272TIP3    H149231   5.316   4.951  14.305  1.0674  0.3444  0.1318
 9272TIP3    H249232   5.236   5.002  14.423  0.5573  0.0079 -0.0654
 9273TIP3   OH249233   1.439   4.112   4.337 -0.0916 -0.1073 -0.3781
 9273TIP3    H149234   1.359   4.153   4.303 -0.3980 -1.4103 -1.2981
 9273TIP3    H249235   1.463   4.048   4.270  0.9624 -0.6891  0.5311
 9274TIP3   OH249236   5.091   1.404  13.589  0.1699 -0.3525 -0.3261
 9274TIP3    H149237   5.132   1.451  13.516  0.4252 -0.9865 -0.5976
 9274TIP3    H249238   5.002   1.384  13.559  1.0048 -2.7148 -1.4529
 9275TIP3   OH249239   0.419   4.356   3.290 -0.3190  0.1990  0.2746
 9275TIP3    H149240   0.416   4.450   3.309  1.1619  0.9662 -2.7236
 9275TIP3    H249241   0.339   4.338   3.241  0.1785  0.2650 -0.5651
 9276TIP3   OH249242   3.736   4.119  12.589  0.7226  0.4111 -0.1812
 9276TIP3    H149243   3.710   4.149  12.676 -0.6649  0.4976 -0.5998
 9276TIP3    H249244   3.711   4.191  12.531 -1.0034 -0.7509 -0.9822
 9277TIP3   OH249245   1.579   6.526  14.718  0.6158  0.0607  0.2808
 9277TIP3    H149246   1.640   6.459  14.749  0.7031 -0.5597 -1.1474
 9277TIP3    H249247   1.505   6.522  14.779  1.0103 -0.7486  0.7152
 9278TIP3   OH249248   0.489   3.079  16.060  0.5452 -0.1047 -0.1775
 9278TIP3    H149249   0.415   3.019  16.057 -1.1045  1.8048 -0.0316
 9278TIP3    H249250   0.514   3.081  16.153  1.2781 -1.2764 -0.3287
 9279TIP3   OH249251   5.579   3.073  15.688  0.0931 -0.0010 -0.0255
 9279TIP3    H149252   5.640   3.000  15.677 -1.5991 -1.2820 -1.5228
 9279TIP3    H249253   5.529   3.075  15.607 -0.7938  2.0336  0.5074
 9280TIP3   OH249254   3.330   2.843   5.336  0.3201 -0.3607 -0.1141
 9280TIP3    H149255   3.346   2.866   5.427  0.9747  2.4868 -0.8589
 9280TIP3    H249256   3.235   2.841   5.328  0.2586  0.1971  0.4466
 9281TIP3   OH249257   6.566   6.025  16.908  0.1404 -0.8188  0.3254
 9281TIP3    H149258   6.641   6.073  16.872 -0.0398  0.0078  1.0061
 9281TIP3    H249259   6.603   5.942  16.938  0.6116 -0.7899 -0.1545
 9282TIP3   OH249260   1.472   2.364  11.229 -0.2109 -0.4421  0.6096
 9282TIP3    H149261   1.389   2.386  11.187 -0.6275 -2.3481  0.3352
 9282TIP3    H249262   1.537   2.369  11.158 -0.5244 -1.3350  0.2391
 9283TIP3   OH249263   2.616   5.728  16.006 -0.0489  0.2985  0.2134
 9283TIP3    H149264   2.688   5.664  16.005 -0.6272 -0.3844 -1.6816
 9283TIP3    H249265   2.612   5.761  15.917 -1.5181  0.9927  0.5075
 9284TIP3   OH249266   2.690   3.013  10.635 -0.4996  0.4896 -0.2267
 9284TIP3    H149267   2.741   3.094  10.642 -0.5402  0.4728  0.3386
 9284TIP3    H249268   2.725   2.958  10.705 -2.0671  0.9087  0.9288
 9285TIP3   OH249269   2.692   5.573   3.420  0.4006  0.6694  0.3364
 9285TIP3    H149270   2.736   5.507   3.367  0.0214  0.2597  0.5253
 9285TIP3    H249271   2.694   5.538   3.509  1.8832  1.7949  0.7817
 9286TIP3   OH249272   1.439   6.127   2.532  0.0020 -0.0668  0.5378
 9286TIP3    H149273   1.463   6.131   2.624 -2.0771  0.1009  1.1354
 9286TIP3    H249274   1.402   6.213   2.513 -1.7243 -0.8082  0.2560
 9287TIP3   OH249275   2.717   3.471   0.905 -0.4051 -0.2552  0.2165
 9287TIP3    H149276   2.711   3.376   0.918  2.0911 -0.2776  1.8242
 9287TIP3    H249277   2.639   3.506   0.947 -1.5862 -1.5672 -0.7638
 9288TIP3   OH249278   0.226   1.334   0.910 -0.2318 -0.2020  0.8070
 9288TIP3    H149279   0.229   1.239   0.905  0.6854 -0.2174  1.3451
 9288TIP3    H249280   0.161   1.360   0.845  0.1289 -1.1468  0.0476
 9289TIP3   OH249281   4.803   3.877   5.226 -0.3395 -0.3557  0.8990
 9289TIP3    H149282   4.870   3.859   5.292  1.2948  2.2373  0.0822
 9289TIP3    H249283   4.765   3.961   5.252  0.5173  0.8527 -1.5001
 9290TIP3   OH249284   1.377   2.647  13.283 -0.2567  0.0684 -0.0266
 9290TIP3    H149285   1.343   2.699  13.356  2.1916  1.7319  0.0820
 9290TIP3    H249286   1.325   2.674  13.208 -0.4578  1.0670  0.4556
 9291TIP3   OH249287   4.940   0.181  17.043 -0.3843  0.0243  0.5310
 9291TIP3    H149288   5.000   0.136  17.103  1.3676 -0.2495 -1.3186
 9291TIP3    H249289   4.860   0.130  17.047  0.2962 -1.0309  1.3006
 9292TIP3   OH249290   0.862   6.401  11.793 -0.7275  0.4641 -0.2272
 9292TIP3    H149291   0.877   6.424  11.885 -2.5822  0.2097  0.1817
 9292TIP3    H249292   0.808   6.472  11.759 -0.2248  0.4473 -1.0809
 9293TIP3   OH249293   3.027   0.401  15.251 -1.0128  0.5740 -0.1101
 9293TIP3    H149294   3.013   0.367  15.163 -0.5230 -0.7952  0.3131
 9293TIP3    H249295   2.940   0.427  15.281 -1.4173 -0.3173 -0.4647
 9294TIP3   OH249296   1.413   5.167   1.672  0.0115  0.7860 -0.1801
 9294TIP3    H149297   1.368   5.244   1.705  0.2430  0.8117  0.0811
 9294TIP3    H249298   1.382   5.158   1.582 -0.0272  1.1761 -0.2090
 9295TIP3   OH249299   0.819   0.143  15.399 -0.4029 -0.1050 -0.0296
 9295TIP3    H149300   0.888   0.121  15.336  0.0978  1.1162  0.0615
 9295TIP3    H249301   0.840   0.232  15.428 -1.6650  0.0583  0.4784
 9296TIP3   OH249302   3.911   0.366  15.507 -0.1110 -0.4238  0.2013
 9296TIP3    H149303   3.983   0.393  15.451 -0.5230  0.4539  0.0785
 9296TIP3    H249304   3.952   0.316  15.577  0.7585  0.9763  0.7293
 9297TIP3   OH249305   6.262   3.297   1.998 -0.0857  0.5453  0.4129
 9297TIP3    H149306   6.354   3.322   1.991 -0.2086  0.8004 -0.5706
 9297TIP3    H249307   6.248   3.241   1.921 -0.5678 -0.0890  0.9599
 9298TIP3   OH249308   1.128   3.285  16.379  0.0192 -0.0440  0.3163
 9298TIP3    H149309   1.093   3.321  16.461 -1.1052 -0.4095  0.0189
 9298TIP3    H249310   1.200   3.344  16.356  0.5213 -0.0809  1.6899
 9299TIP3   OH249311   1.094   5.590  14.403 -0.1711  0.3839  0.4951
 9299TIP3    H149312   1.188   5.577  14.419 -0.6375 -2.1383  1.5072
 9299TIP3    H249313   1.066   5.648  14.474  0.4560  0.4414  0.7038
 9300TIP3   OH249314   4.927   6.702   0.832 -0.1186  0.1563 -0.4793
 9300TIP3    H149315   4.869   6.706   0.908  0.7760  0.5465  0.2010
 9300TIP3    H249316   4.900   6.623   0.785 -0.7240 -0.0586  0.2139
 9301TIP3   OH249317   0.914   6.463   2.246 -0.0686 -0.1991 -0.0458
 9301TIP3    H149318   1.004   6.495   2.246  0.3956 -1.3180 -1.7863
 9301TIP3    H249319   0.902   6.422   2.331  1.0959 -0.1188  0.1640
 9302TIP3   OH249320   3.772   2.062  16.042 -0.0352  0.4887 -0.0367
 9302TIP3    H149321   3.839   2.107  15.990 -0.1284 -1.3970 -1.9013
 9302TIP3    H249322   3.819   1.993  16.088 -0.2391  1.0865  1.1084
 9303TIP3   OH249323   3.233   5.669  16.303  0.4160 -0.2325  0.4363
 9303TIP3    H149324   3.188   5.746  16.335  1.7262 -0.0122  1.8904
 9303TIP3    H249325   3.268   5.694  16.217  0.7415  0.7717  0.8501
 9304TIP3   OH249326   5.020   4.248  13.352  0.6084  0.3138 -0.6184
 9304TIP3    H149327   5.025   4.161  13.312  0.6702 -0.8845  1.8006
 9304TIP3    H249328   5.104   4.289  13.332  3.3496 -2.6713  3.2307
 9305TIP3   OH249329   6.511   3.195   0.692 -0.4058  0.1501 -0.4122
 9305TIP3    H149330   6.586   3.251   0.674  1.5075 -1.9070  0.5424
 9305TIP3    H249331   6.509   3.188   0.788  0.6270 -2.6922 -0.4703
 9306TIP3   OH249332   3.353   5.375  16.079  0.5788  0.2979 -0.6873
 9306TIP3    H149333   3.333   5.283  16.061  1.4436  0.4154 -2.4448
 9306TIP3    H249334   3.304   5.424  16.013 -0.0824  1.1399  0.4020
 9307TIP3   OH249335   5.323   4.160   0.316  0.1547  0.8601  0.2156
 9307TIP3    H149336   5.392   4.135   0.377  0.8695  1.1082 -0.4772
 9307TIP3    H249337   5.268   4.082   0.309 -0.8378  1.2941  2.3292
 9308TIP3   OH249338   6.368   4.004   2.000 -0.4437 -0.0406 -0.0257
 9308TIP3    H149339   6.459   3.976   2.011  0.3233  1.2063 -2.4484
 9308TIP3    H249340   6.328   3.934   1.948  0.3307  1.2431 -2.4878
 9309TIP3   OH249341   3.892   2.870   1.703  0.1403  0.0729  0.7080
 9309TIP3    H149342   3.884   2.827   1.787 -2.9707 -1.1842 -0.0980
 9309TIP3    H249343   3.802   2.876   1.670  0.5982  4.8181 -0.4721
 9310TIP3   OH249344   2.135   0.227   0.738 -0.6095 -0.1420  0.0737
 9310TIP3    H149345   2.168   0.284   0.808  1.5032 -0.4249 -0.6229
 9310TIP3    H249346   2.043   0.251   0.729 -0.1875  1.9835  0.9286
 9311TIP3   OH249347   4.814   4.008   1.374 -0.2156 -0.4898 -0.5525
 9311TIP3    H149348   4.795   4.022   1.281  0.1316 -1.5949 -0.8111
 9311TIP3    H249349   4.778   3.921   1.392  2.8063 -1.8591 -0.5820
 9312TIP3   OH249350   5.850   1.408   0.980 -0.1061  0.0331  0.3389
 9312TIP3    H149351   5.833   1.327   0.932 -0.3606 -0.9294  1.9825
 9312TIP3    H249352   5.818   1.392   1.068  2.3390  0.8988  1.4986
 9313TIP3   OH249353   3.567   6.424  14.300 -0.4081 -0.0897 -0.1341
 9313TIP3    H149354   3.509   6.354  14.328 -0.2724 -0.4251 -0.6800
 9313TIP3    H249355   3.640   6.422  14.362 -0.6082 -0.1572  0.1007
 9314TIP3   OH249356   2.578   2.842  16.097 -0.6004  0.0412 -0.5365
 9314TIP3    H149357   2.494   2.853  16.140 -0.5644  1.0407 -0.7112
 9314TIP3    H249358   2.591   2.747  16.095 -1.5647 -0.1095 -0.2183
 9315TIP3   OH249359   2.799   0.903   0.894 -0.2524  0.1961  0.0270
 9315TIP3    H149360   2.818   0.905   0.800 -2.5055 -2.5450 -0.6307
 9315TIP3    H249361   2.869   0.849   0.931  2.6147  3.9799  0.6785
 9316TIP3   OH249362   3.402   4.848  13.672  0.3158 -0.3480 -0.0519
 9316TIP3    H149363   3.379   4.904  13.746 -2.7545 -1.4830  0.0009
 9316TIP3    H249364   3.370   4.761  13.697 -0.3429 -0.8734 -2.4659
 9317TIP3   OH249365   2.205   3.520  11.485  0.1941 -0.5138  0.0710
 9317TIP3    H149366   2.122   3.557  11.455 -0.3458 -1.4630  0.3536
 9317TIP3    H249367   2.180   3.464  11.559  1.1746 -0.2531  0.6051
 9318TIP3   OH249368   2.250   6.727  11.848  0.0022 -0.6066 -0.7275
 9318TIP3    H149369   2.279   6.636  11.836 -0.9103 -0.8513 -1.1048
 9318TIP3    H249370   2.182   6.722  11.915 -0.7633 -0.3502 -1.4647
 9319TIP3   OH249371   2.212   5.023  15.874  0.2526 -0.3592  0.5797
 9319TIP3    H149372   2.163   5.082  15.932  0.4207 -0.1859  0.5487
 9319TIP3    H249373   2.162   5.022  15.792 -0.4826 -1.3279  1.0240
 9320TIP3   OH249374   0.528   5.518  15.136 -0.2809 -0.2374 -0.1182
 9320TIP3    H149375   0.620   5.545  15.134 -0.3281 -0.0750 -0.1275
 9320TIP3    H249376   0.481   5.592  15.097 -0.5688  0.3406  1.2439
 9321TIP3   OH249377   2.564   6.405  16.148  0.4109 -0.0807  0.2157
 9321TIP3    H149378   2.503   6.437  16.082 -0.3357 -2.0817 -0.1021
 9321TIP3    H249379   2.555   6.467  16.221 -0.0048  1.1687 -0.8644
 9322TIP3   OH249380   4.354   2.625   1.425 -0.0794 -0.3312  0.7050
 9322TIP3    H149381   4.289   2.640   1.493  0.3015 -0.5544  1.1184
 9322TIP3    H249382   4.320   2.552   1.375 -0.9393  0.5673 -0.0719
 9323TIP3   OH249383   5.309   2.516  14.196  0.9448 -0.6731  0.5010
 9323TIP3    H149384   5.387   2.549  14.151  0.4685  0.1284  0.2374
 9323TIP3    H249385   5.269   2.456  14.133 -0.4842  1.5065 -0.7877
 9324TIP3   OH249386   0.194   2.493   3.441 -0.3321  0.1391 -0.0363
 9324TIP3    H149387   0.108   2.526   3.466 -0.2450 -0.6850  1.4274
 9324TIP3    H249388   0.175   2.423   3.378 -0.7217  0.0868  0.1395
 9325TIP3   OH249389   2.772   0.233  15.314  0.0238  0.2127  0.2690
 9325TIP3    H149390   2.681   0.219  15.338 -0.1772 -1.2864 -1.1635
 9325TIP3    H249391   2.815   0.149  15.328  1.0265  0.6892  0.2118
 9326TIP3   OH249392   4.656   3.630   1.992  0.4627 -0.2753 -0.0106
 9326TIP3    H149393   4.605   3.572   2.049  1.9691 -2.6839 -0.9276
 9326TIP3    H249394   4.668   3.580   1.911  1.5284  1.5092 -1.0317
 9327TIP3   OH249395   1.661   4.463  16.587 -0.0733  0.0216 -0.1825
 9327TIP3    H149396   1.633   4.516  16.513  1.0064 -0.8240 -1.2262
 9327TIP3    H249397   1.582   4.415  16.614 -0.1764 -0.7463 -1.7245
 9328TIP3   OH249398   4.029   3.191  15.178  0.1447  0.0320 -0.1178
 9328TIP3    H149399   4.008   3.191  15.085 -0.4221  1.8936 -0.0246
 9328TIP3    H249400   3.974   3.260  15.215  3.9628  2.9463  0.7333
 9329TIP3   OH249401   1.419   3.920  13.635 -0.2020  0.2374  0.0062
 9329TIP3    H149402   1.411   3.842  13.580  2.5788 -0.5899  0.6156
 9329TIP3    H249403   1.377   3.990  13.585 -0.5333 -1.1191 -1.6894
 9330TIP3   OH249404   1.769   1.104  11.293 -0.5666 -0.4620 -0.3958
 9330TIP3    H149405   1.824   1.051  11.236 -1.1326  0.2148 -1.6046
 9330TIP3    H249406   1.821   1.182  11.312  0.0039 -1.1165  0.8403
 9331TIP3   OH249407   2.733   5.985   4.238 -0.2772  0.4973 -0.0609
 9331TIP3    H149408   2.775   6.069   4.259  1.2081  0.0017 -0.9119
 9331TIP3    H249409   2.779   5.921   4.291  0.2117 -0.0910 -1.1646
 9332TIP3   OH249410   4.856   4.790   2.409  0.1424 -0.0253  0.6459
 9332TIP3    H149411   4.768   4.828   2.418  1.5070  3.0619  2.7670
 9332TIP3    H249412   4.892   4.791   2.498  2.2794 -1.4211 -0.1192
 9333TIP3   OH249413   0.116   1.584   3.733  0.5595  0.2203 -0.4155
 9333TIP3    H149414   0.189   1.553   3.678 -0.8242 -1.8849 -1.1814
 9333TIP3    H249415   0.084   1.505   3.776 -0.4019  1.3397  1.0053
 9334TIP3   OH249416   3.381   5.576  15.871  0.1633 -0.1821 -0.3650
 9334TIP3    H149417   3.475   5.571  15.886  0.2902  0.9062 -0.7315
 9334TIP3    H249418   3.372   5.611  15.782 -0.5712  0.7947  0.0665
 9335TIP3   OH249419   2.929   4.186  14.627 -0.3817  0.1962 -0.3367
 9335TIP3    H149420   2.893   4.235  14.553  0.1209 -0.2747 -0.8972
 9335TIP3    H249421   3.015   4.225  14.642  1.0956 -2.0141 -2.3498
 9336TIP3   OH249422   1.832   5.428   3.883 -0.7325 -0.6023  0.2719
 9336TIP3    H149423   1.756   5.411   3.940 -1.0023  0.9981  0.4286
 9336TIP3    H249424   1.862   5.515   3.909  0.8817 -1.0173 -0.1321
 9337TIP3   OH249425   2.693   4.195  11.032 -0.5418 -0.3232 -0.1521
 9337TIP3    H149426   2.764   4.257  11.049  1.5245 -2.3181 -1.0667
 9337TIP3    H249427   2.615   4.250  11.024  0.7392  1.8975  1.5651
 9338TIP3   OH249428   4.035   2.419  13.242  0.0562 -0.3753 -0.1229
 9338TIP3    H149429   4.057   2.333  13.279  0.0881 -0.0378  0.6604
 9338TIP3    H249430   4.035   2.405  13.147  0.6208 -1.1057 -0.0241
 9339TIP3   OH249431   3.704   3.535   3.085  0.1472 -0.0690  0.5255
 9339TIP3    H149432   3.652   3.597   3.136  1.3173 -1.8701  4.2527
 9339TIP3    H249433   3.756   3.590   3.027 -1.0881  2.2073  1.4445
 9340TIP3   OH249434   3.904   4.001   5.022 -0.0491  0.3682  0.1010
 9340TIP3    H149435   3.968   4.062   4.985  1.4186 -0.8732  0.4515
 9340TIP3    H249436   3.852   3.972   4.947  0.8901  0.1747 -0.4981
 9341TIP3   OH249437   4.048   6.738  12.739 -0.2882 -0.2416  0.2312
 9341TIP3    H149438   4.123   6.769  12.789 -0.6329 -0.1724  0.7077
 9341TIP3    H249439   3.988   6.704  12.805 -1.3098  1.0342 -0.0181
 9342TIP3   OH249440   4.868   3.760  12.769 -0.3995  0.1283 -0.0558
 9342TIP3    H149441   4.778   3.755  12.736 -0.2248  1.6319 -0.8741
 9342TIP3    H249442   4.862   3.735  12.861 -1.8710  1.3408  0.2134
 9343TIP3   OH249443   4.707   2.164   5.652  0.5466 -0.2745 -0.2436
 9343TIP3    H149444   4.678   2.198   5.567 -0.3722  1.0611  0.5760
 9343TIP3    H249445   4.779   2.105   5.630 -0.2320 -0.6288 -2.0155
 9344TIP3   OH249446   4.303   0.783   5.625 -0.5299 -0.7888 -0.1735
 9344TIP3    H149447   4.310   0.730   5.546 -3.4706 -2.2937  0.4418
 9344TIP3    H249448   4.321   0.723   5.697 -2.3681 -0.6296  0.4710
 9345TIP3   OH249449   1.761   1.065  16.457 -0.8539 -0.1005  0.9884
 9345TIP3    H149450   1.668   1.075  16.436 -0.7280  0.4648  0.6595
 9345TIP3    H249451   1.765   0.987  16.512 -1.4529 -0.4662  0.5298
 9346TIP3   OH249452   6.450   0.983  11.900 -0.9977 -0.0320 -0.4841
 9346TIP3    H149453   6.531   0.951  11.859 -1.2782 -0.4541 -0.7182
 9346TIP3    H249454   6.454   1.079  11.889  0.0605  0.0741  0.6191
 9347TIP3   OH249455   2.035   1.297   4.900  0.5743 -0.2343  0.4093
 9347TIP3    H149456   2.029   1.202   4.887 -0.3166  0.0842 -1.9675
 9347TIP3    H249457   2.109   1.324   4.846 -0.6006  0.6752 -0.8127
 9348TIP3   OH249458   5.708   5.222  11.789 -0.1072  0.2408 -0.4588
 9348TIP3    H149459   5.736   5.175  11.710 -1.1961  2.8850 -2.5464
 9348TIP3    H249460   5.789   5.234  11.839  0.3443 -3.0667 -0.1086
 9349TIP3   OH249461   3.461   1.401  11.540  0.8584  0.4465  0.2976
 9349TIP3    H149462   3.412   1.402  11.622  1.0152  0.1147  0.3987
 9349TIP3    H249463   3.533   1.463  11.555 -0.3593  2.1104 -0.3855
 9350TIP3   OH249464   1.871   4.332   6.516  0.1558 -0.5007  0.6079
 9350TIP3    H149465   1.796   4.389   6.498  2.3982  3.0257  1.2563
 9350TIP3    H249466   1.857   4.255   6.461 -2.6604  1.1374 -1.2227
 9351TIP3   OH249467   6.771   1.150   1.886 -0.1230 -0.0519 -0.4791
 9351TIP3    H149468   6.693   1.129   1.835  0.0036  1.3419 -1.2783
 9351TIP3    H249469   6.739   1.157   1.976 -1.3347  2.3392 -1.0184
 9352TIP3   OH249470   6.647   5.888   0.220 -0.5179 -0.2928  0.4364
 9352TIP3    H149471   6.646   5.849   0.307  0.2281 -0.3284  0.4360
 9352TIP3    H249472   6.559   5.873   0.185 -0.5423 -1.0829  0.8257
 9353TIP3   OH249473   1.456   6.220  15.168 -0.3460  0.3121 -0.2352
 9353TIP3    H149474   1.450   6.128  15.141  0.8836 -0.3093  1.4005
 9353TIP3    H249475   1.368   6.242  15.197 -0.5080 -0.5941  0.0011
 9354TIP3   OH249476   0.808   2.240  11.640  0.0664 -0.2768  0.1164
 9354TIP3    H149477   0.782   2.237  11.548  0.9609  0.1106 -0.1646
 9354TIP3    H249478   0.726   2.251  11.688 -0.4088 -0.4955 -0.6310
 9355TIP3   OH249479   4.285   5.489  15.516  0.1413 -0.2783  0.1826
 9355TIP3    H149480   4.242   5.512  15.598 -0.0902  1.8931 -0.4804
 9355TIP3    H249481   4.351   5.424  15.541 -0.0782  0.1577  2.0440
 9356TIP3   OH249482   4.830   5.251   3.904  0.2101 -0.5588  0.4683
 9356TIP3    H149483   4.865   5.164   3.924  1.1394 -0.5723 -1.0841
 9356TIP3    H249484   4.883   5.282   3.831 -0.7138  0.9398  0.3968
 9357TIP3   OH249485   2.633   1.709  16.858  0.2282 -0.2545  0.5742
 9357TIP3    H149486   2.582   1.700  16.778  0.2572 -2.8328  0.7631
 9357TIP3    H249487   2.718   1.673  16.836  0.8091  0.6492  1.2931
 9358TIP3   OH249488   1.257   2.885   3.814  0.4327  0.1093  0.4642
 9358TIP3    H149489   1.163   2.896   3.830  0.6100 -0.5537  2.1379
 9358TIP3    H249490   1.283   2.965   3.768 -0.8644  0.4802  0.3381
 9359TIP3   OH249491   6.328   2.062   1.747  0.0264 -0.1278  0.7119
 9359TIP3    H149492   6.276   1.989   1.780 -1.4311 -1.2661 -3.5263
 9359TIP3    H249493   6.419   2.031   1.753 -0.5468 -2.3767 -0.8659
 9360TIP3   OH249494   2.841   0.871   0.596  0.3081 -0.3121  0.6379
 9360TIP3    H149495   2.918   0.834   0.554 -1.0007 -0.1528 -2.2102
 9360TIP3    H249496   2.785   0.898   0.522 -3.1658 -1.8997  2.4625
 9361TIP3   OH249497   2.352   1.867   3.511 -0.6823  0.8127 -0.0210
 9361TIP3    H149498   2.335   1.829   3.425 -1.4288  2.2439 -0.5340
 9361TIP3    H249499   2.367   1.960   3.494  1.3401  0.7639  1.1577
 9362TIP3   OH249500   1.586   1.774  15.224  0.3780 -0.3409 -0.1700
 9362TIP3    H149501   1.566   1.863  15.253  1.2690  0.8433 -2.8781
 9362TIP3    H249502   1.502   1.740  15.192  0.2962  0.0559 -0.3823
 9363TIP3   OH249503   5.588   2.552  14.220 -0.4084 -0.2127  0.1848
 9363TIP3    H149504   5.667   2.579  14.266 -0.4655 -0.8344  0.6547
 9363TIP3    H249505   5.576   2.619  14.152  0.6854 -0.2856 -0.0945
 9364TIP3   OH249506   4.249   5.097   6.255  0.3760 -0.1007 -0.0683
 9364TIP3    H149507   4.215   5.118   6.342  0.8546 -2.1928  0.6964
 9364TIP3    H249508   4.343   5.086   6.267  0.2375 -2.1462 -0.4095
 9365TIP3   OH249509   6.122   1.464   0.075  0.1668 -0.5864  0.0235
 9365TIP3    H149510   6.080   1.438  -0.006 -0.0713 -1.6177  0.4640
 9365TIP3    H249511   6.072   1.420   0.144  1.4740 -1.2191  0.6113
 9366TIP3   OH249512   2.204   6.046   5.496 -0.1750  0.0971  0.3966
 9366TIP3    H149513   2.183   6.136   5.471 -0.2998  0.5379  1.9752
 9366TIP3    H249514   2.120   6.010   5.525 -0.7346 -1.4715 -2.7402
 9367TIP3   OH249515   5.254   1.761  12.476 -0.1997  0.0995  0.0025
 9367TIP3    H149516   5.188   1.707  12.433 -3.4306  3.2093  0.5656
 9367TIP3    H249517   5.290   1.816  12.406  1.3993 -1.0526 -0.1573
 9368TIP3   OH249518   6.272   2.785  15.676 -0.2920  0.0467 -0.1766
 9368TIP3    H149519   6.190   2.810  15.633 -1.1846 -2.1796  0.1235
 9368TIP3    H249520   6.252   2.703  15.720  1.5646  0.4740  1.6152
 9369TIP3   OH249521   0.183   0.598   2.373  0.3508 -0.3563  0.0784
 9369TIP3    H149522   0.256   0.631   2.320  1.0242 -0.0778  1.1439
 9369TIP3    H249523   0.198   0.635   2.460 -1.6481  0.5557  0.0799
 9370TIP3   OH249524   0.560   6.760   0.158  0.3547 -0.1354 -0.2337
 9370TIP3    H149525   0.567   6.729   0.068 -0.4840 -0.7749 -0.0941
 9370TIP3    H249526   0.542   6.682   0.209  1.4841  0.1323  0.5950
 9371TIP3   OH249527   0.346   2.799   3.867  0.4031  0.1987 -0.3242
 9371TIP3    H149528   0.317   2.875   3.917  1.0580 -0.8814  1.8246
 9371TIP3    H249529   0.441   2.796   3.881  0.4630 -0.6891 -0.8320
 9372TIP3   OH249530   5.894   6.259   3.838 -0.0264  0.1386 -0.4336
 9372TIP3    H149531   5.832   6.276   3.767  1.4617  0.6383 -1.6631
 9372TIP3    H249532   5.943   6.182   3.810 -1.2393 -1.3758  1.3649
 9373TIP3   OH249533   1.987   0.451  10.818  0.0687  0.5863  0.0233
 9373TIP3    H149534   1.991   0.357  10.832 -3.0658  0.3569  0.1703
 9373TIP3    H249535   2.015   0.463  10.727 -1.4973 -0.8046 -0.6950
 9374TIP3   OH249536   2.098   0.466  14.852  0.1088  0.1947 -0.2528
 9374TIP3    H149537   2.073   0.553  14.884  2.4251  0.5673  0.7536
 9374TIP3    H249538   2.023   0.410  14.873  0.4042  0.9705  3.6032
 9375TIP3   OH249539   0.695   0.736  13.247  0.5110  0.2859 -0.3804
 9375TIP3    H149540   0.731   0.794  13.180 -1.0864  1.1485 -0.5647
 9375TIP3    H249541   0.769   0.683  13.276  1.9493  2.1341 -0.5030
 9376TIP3   OH249542   6.495   2.813  12.888  0.9339 -0.2360  0.1616
 9376TIP3    H149543   6.467   2.861  12.810 -2.8742 -1.6150  0.4696
 9376TIP3    H249544   6.550   2.742  12.855 -2.2010 -2.0060 -1.6863
 9377TIP3   OH249545   3.548   4.318  12.419  0.0080  0.2282 -0.2682
 9377TIP3    H149546   3.535   4.337  12.512 -1.0223 -0.4610 -0.2576
 9377TIP3    H249547   3.462   4.292  12.387  0.1474  1.3143 -1.6349
 9378TIP3   OH249548   5.286   4.965  16.515 -0.7742  0.2319  0.6123
 9378TIP3    H149549   5.338   5.044  16.504 -1.8895  1.5909  3.7626
 9378TIP3    H249550   5.296   4.917  16.433  1.9700  2.4042 -0.4691
 9379TIP3   OH249551   4.400   3.344  10.763 -1.0564 -0.6659  0.0946
 9379TIP3    H149552   4.304   3.343  10.761 -1.0479 -1.5903 -0.7572
 9379TIP3    H249553   4.423   3.266  10.813 -0.7380 -0.8071 -0.2740
 9380TIP3   OH249554   2.000   4.916   0.265  0.1097  0.5774  0.4010
 9380TIP3    H149555   1.941   4.988   0.285  0.6683  0.8839  0.9795
 9380TIP3    H249556   1.978   4.848   0.329 -1.1369 -0.2099 -0.8008
 9381TIP3   OH249557   0.346   0.439  15.235 -0.5804 -0.5632 -0.2630
 9381TIP3    H149558   0.395   0.509  15.279 -1.1313 -0.5100  0.2740
 9381TIP3    H249559   0.256   0.470  15.233 -0.4338 -0.0829 -2.3798
 9382TIP3   OH249560   2.233   6.368   1.249 -0.3372  0.4088  0.2129
 9382TIP3    H149561   2.235   6.321   1.166  0.6297  0.1667  0.3558
 9382TIP3    H249562   2.223   6.300   1.316  2.6880  0.1498  0.5389
 9383TIP3   OH249563   1.376   5.759  11.400  0.0638  0.2075  0.4163
 9383TIP3    H149564   1.465   5.740  11.430  0.1195  1.4421  1.0695
 9383TIP3    H249565   1.325   5.683  11.431  0.5493  0.3622  1.6842
 9384TIP3   OH249566   3.671   1.285   3.833  0.1028  0.0289 -0.1254
 9384TIP3    H149567   3.714   1.316   3.753 -0.0227 -0.2126 -0.2840
 9384TIP3    H249568   3.672   1.362   3.891 -0.8189  0.5383 -0.7669
 9385TIP3   OH249569   2.647   5.071   1.212  0.0614 -0.3214 -0.2508
 9385TIP3    H149570   2.679   4.982   1.202  0.7996 -0.2296  1.0926
 9385TIP3    H249571   2.617   5.076   1.303  1.6826  1.2934  0.2458
 9386TIP3   OH249572   3.470   2.099   1.634 -0.2476 -0.8628 -0.2469
 9386TIP3    H149573   3.464   2.091   1.730 -0.9747 -1.1837 -0.3106
 9386TIP3    H249574   3.483   2.192   1.618 -0.5324 -0.7533  0.1476
 9387TIP3   OH249575   5.337   2.276  13.255 -0.1563  0.1545  0.0361
 9387TIP3    H149576   5.364   2.356  13.208 -1.7233  1.2130  0.8489
 9387TIP3    H249577   5.247   2.293  13.281 -1.3743 -2.8161 -1.7221
 9388TIP3   OH249578   5.255   6.682   4.774 -0.1323  0.4749  0.2679
 9388TIP3    H149579   5.341   6.721   4.758  0.2272  0.5396  2.0540
 9388TIP3    H249580   5.200   6.756   4.800 -0.4283  0.2897  0.1684
 9389TIP3   OH249581   4.290   3.305  14.952 -0.1093 -0.2384  0.2655
 9389TIP3    H149582   4.290   3.272  15.042  0.0755 -0.6803  0.1027
 9389TIP3    H249583   4.314   3.230  14.898  1.2282  0.3621 -0.0289
 9390TIP3   OH249584   3.224   0.010  12.514 -0.8767 -0.4565 -0.6252
 9390TIP3    H149585   3.171   0.089  12.517  1.3441  1.1059  1.9791
 9390TIP3    H249586   3.192  -0.044  12.586  0.5732  0.2520  0.6082
 9391TIP3   OH249587   3.806   5.642   6.337  0.2717  0.3944 -0.2017
 9391TIP3    H149588   3.734   5.702   6.356  1.0163  1.0549  0.6525
 9391TIP3    H249589   3.814   5.589   6.416  0.7665  0.3823 -0.2559
 9392TIP3   OH249590   0.647   0.241  15.679 -0.5512 -0.6022 -0.1463
 9392TIP3    H149591   0.704   0.300  15.729  0.0182 -2.7429  1.9125
 9392TIP3    H249592   0.611   0.296  15.609  1.9558  1.4935  0.0578
 9393TIP3   OH249593   1.996   2.944  13.513 -0.3307  0.0044  0.1514
 9393TIP3    H149594   2.036   2.995  13.443 -0.4200 -0.6050 -0.3581
 9393TIP3    H249595   2.069   2.898  13.554 -0.2539  0.5217  0.5901
 9394TIP3   OH249596   1.407   1.470  14.663 -0.3137 -0.2393  0.1952
 9394TIP3    H149597   1.325   1.442  14.622  0.2536 -0.9898 -0.4699
 9394TIP3    H249598   1.468   1.480  14.589 -0.3815  2.5467  0.3902
 9395TIP3   OH249599   5.549   1.434   2.779  0.8371  0.0724 -0.1142
 9395TIP3    H149600   5.532   1.341   2.788 -1.6136  0.2491 -1.8411
 9395TIP3    H249601   5.593   1.442   2.694  3.6150  0.3375  1.2156
 9396TIP3   OH249602   4.038   5.197   2.439  0.2085 -0.0723  0.5590
 9396TIP3    H149603   3.999   5.209   2.352 -0.8141  0.7229  1.0966
 9396TIP3    H249604   4.100   5.126   2.428 -0.1143 -0.1818 -0.7601
 9397TIP3   OH249605   4.010   4.060  12.254  0.4989  0.3943 -0.3451
 9397TIP3    H149606   3.971   4.022  12.175 -0.6972  2.2069 -0.7109
 9397TIP3    H249607   4.007   4.155  12.238  1.9605  0.7269  1.1103
 9398TIP3   OH249608   1.062   6.260   1.590 -0.0648 -0.2191  0.6942
 9398TIP3    H149609   1.087   6.249   1.498  2.2569 -1.0979  1.3469
 9398TIP3    H249610   0.986   6.317   1.587  0.7156  0.8721 -1.7119
 9399TIP3   OH249611   2.473   4.645  16.683 -0.0556 -0.4419  0.2553
 9399TIP3    H149612   2.557   4.634  16.639  0.4167 -3.3317  1.6692
 9399TIP3    H249613   2.410   4.652  16.611  1.2900  1.7532 -0.8306
 9400TIP3   OH249614   0.459   4.209   0.833 -0.3126  0.4111 -0.3883
 9400TIP3    H149615   0.452   4.164   0.918  0.8627 -0.9807 -0.9882
 9400TIP3    H249616   0.433   4.299   0.852 -2.2746 -0.3517  0.9802
 9401TIP3   OH249617   4.834   5.775   5.057  0.5433 -0.3681  0.0973
 9401TIP3    H149618   4.739   5.767   5.046  0.6338 -0.1010 -0.9949
 9401TIP3    H249619   4.847   5.775   5.152 -0.7218  1.2623  0.3328
 9402TIP3   OH249620   0.514   1.628  13.414  0.0166  0.3709 -0.2237
 9402TIP3    H149621   0.481   1.704  13.461 -0.8898 -0.0387 -0.1666
 9402TIP3    H249622   0.581   1.591  13.472 -1.9534 -0.8552  1.4094
 9403TIP3   OH249623   5.689   4.263   2.487  0.6678 -0.7212 -0.3041
 9403TIP3    H149624   5.666   4.298   2.573 -0.4062  0.7934 -1.1476
 9403TIP3    H249625   5.756   4.197   2.504  3.2145  2.0635  1.4094
 9404TIP3   OH249626   3.476   4.515  15.325 -0.2544  0.4154 -0.2563
 9404TIP3    H149627   3.401   4.565  15.293 -1.4976 -1.4019 -0.3470
 9404TIP3    H249628   3.497   4.556  15.409 -0.5098  1.7538 -0.8135
 9405TIP3   OH249629   3.624   2.827   2.978  0.5089 -0.1671  0.2503
 9405TIP3    H149630   3.657   2.821   2.888 -1.3542  1.1502 -0.5957
 9405TIP3    H249631   3.627   2.921   2.998 -1.8060 -0.0771  0.4191
 9406TIP3   OH249632   3.756   4.076   4.259  0.5593 -0.2728  0.1393
 9406TIP3    H149633   3.793   4.010   4.200  0.5102  0.2415 -0.4711
 9406TIP3    H249634   3.791   4.053   4.345 -1.1982 -2.4610  0.3669
 9407TIP3   OH249635   0.529   0.788  14.356 -0.4393 -0.4904 -0.8234
 9407TIP3    H149636   0.611   0.830  14.329 -0.2021 -0.8101 -0.6068
 9407TIP3    H249637   0.553   0.738  14.434 -1.2411  0.9445  0.3884
 9408TIP3   OH249638   6.169   4.168   1.944  0.2746 -0.0530  0.4804
 9408TIP3    H149639   6.249   4.117   1.960  0.8947  0.5947 -0.4610
 9408TIP3    H249640   6.136   4.134   1.861 -0.3127 -0.1524  0.7494
 9409TIP3   OH249641   2.347   6.217  14.821 -0.2147 -0.3012  0.0697
 9409TIP3    H149642   2.284   6.169  14.768  0.2532 -0.2349 -0.5488
 9409TIP3    H249643   2.296   6.289  14.859 -0.6391 -0.5865  0.0470
 9410TIP3   OH249644   5.624   1.816  13.946 -0.8950  0.1198 -0.1647
 9410TIP3    H149645   5.566   1.777  14.011 -0.3822 -1.2132 -0.4668
 9410TIP3    H249646   5.690   1.863  13.998 -0.7323 -0.5872  0.2834
 9411TIP3   OH249647   5.063   2.084  15.939  0.8288  0.2940  0.5208
 9411TIP3    H149648   5.057   2.118  15.850  2.0398  1.0841  0.7111
 9411TIP3    H249649   4.997   2.015  15.943  0.3542  0.6369 -0.8024
 9412TIP3   OH249650   2.129   0.301  13.644 -0.1576  0.1879 -0.5805
 9412TIP3    H149651   2.194   0.351  13.594  0.1227 -0.7019 -1.1195
 9412TIP3    H249652   2.181   0.235  13.691 -0.8388 -2.5828 -3.3906
 9413TIP3   OH249653   5.374   3.175   5.985  0.2642 -0.0647 -0.3307
 9413TIP3    H149654   5.442   3.109   5.987 -0.3341 -0.8171 -2.4473
 9413TIP3    H249655   5.322   3.154   5.908  0.4337  3.2350 -1.5136
 9414TIP3   OH249656   2.944   0.053   0.368  0.7972  0.4326 -0.0349
 9414TIP3    H149657   2.976   0.078   0.281  0.7314  1.8976  0.3230
 9414TIP3    H249658   2.854   0.024   0.353  1.6763 -2.1080 -0.8177
 9415TIP3   OH249659   3.572   2.032  15.824  0.2785 -0.3926  0.0869
 9415TIP3    H149660   3.615   2.069  15.901  0.9053  1.9579 -1.2973
 9415TIP3    H249661   3.635   2.045  15.753 -2.6126  3.5197 -2.1382
 9416TIP3   OH249662   2.216   6.367  14.560  0.5610  0.1936 -0.6966
 9416TIP3    H149663   2.311   6.359  14.551  0.5342  0.3595 -1.1821
 9416TIP3    H249664   2.191   6.432  14.494  0.1044  0.1185 -0.6039
 9417TIP3   OH249665   4.082   4.473  14.917 -0.4693 -0.7926 -0.1556
 9417TIP3    H149666   4.066   4.514  14.833  0.1569 -0.3014 -0.0376
 9417TIP3    H249667   4.174   4.493  14.937 -0.7611 -0.4397  0.8894
 9418TIP3   OH249668   1.013   3.717  13.209 -0.7627  0.2164 -0.1344
 9418TIP3    H149669   0.948   3.733  13.278 -0.4853 -0.0546  0.1909
 9418TIP3    H249670   1.064   3.643  13.241 -0.3864  0.3346 -0.4596
 9419TIP3   OH249671   5.034   2.607   4.198 -0.2020  0.2127  0.1540
 9419TIP3    H149672   4.993   2.683   4.156  0.8265 -0.6168 -2.6076
 9419TIP3    H249673   5.124   2.635   4.216  0.5361 -0.6131 -1.9544
 9420TIP3   OH249674   6.420   0.010   1.844 -0.1960 -0.5509 -0.0668
 9420TIP3    H149675   6.410  -0.056   1.775 -2.0759  0.5321 -0.9096
 9420TIP3    H249676   6.494   0.064   1.814  1.3671 -2.1843  0.6344
 9421TIP3   OH249677   1.927   2.572  15.192  0.1633  0.4908  0.7438
 9421TIP3    H149678   1.995   2.624  15.234 -0.0375  0.7719  0.7195
 9421TIP3    H249679   1.846   2.621  15.206  0.1470  0.8034 -0.3218
 9422TIP3   OH249680   1.691   1.770  15.994 -0.0069  0.6467  0.6327
 9422TIP3    H149681   1.674   1.810  15.909  0.5876  1.7042  0.9887
 9422TIP3    H249682   1.632   1.695  15.998 -0.6168  1.0538 -0.3719
 9423TIP3   OH249683   2.894   1.459   3.110 -0.4280  0.1848  0.1905
 9423TIP3    H149684   2.959   1.522   3.076 -0.9299  1.8487  2.1053
 9423TIP3    H249685   2.836   1.443   3.037  0.3419  1.1375 -0.6675
 9424TIP3   OH249686   5.719   4.549  14.241 -0.0348  0.2320 -0.0468
 9424TIP3    H149687   5.642   4.494  14.226  0.6511 -0.2605 -2.1983
 9424TIP3    H249688   5.791   4.487  14.254  0.6324  0.5741 -1.8476
 9425TIP3   OH249689   6.439   0.544   2.434 -0.0528 -0.0926 -0.2571
 9425TIP3    H149690   6.398   0.616   2.481  1.1388  0.1148  0.5258
 9425TIP3    H249691   6.529   0.573   2.420 -0.3031 -0.2360 -2.5236
 9426TIP3   OH249692   5.950   2.576  13.890 -0.2122 -0.1911  0.3548
 9426TIP3    H149693   6.002   2.619  13.959  0.0118  0.6572 -0.3273
 9426TIP3    H249694   5.860   2.585  13.920 -0.0056 -3.3695  2.5349
 9427TIP3   OH249695   0.328   0.698  11.100  0.4280 -0.0499  0.3156
 9427TIP3    H149696   0.367   0.767  11.155  0.6370 -0.0686  0.1915
 9427TIP3    H249697   0.393   0.684  11.031  1.3296 -1.7763  1.4343
 9428TIP3   OH249698   3.311   1.877  10.561  0.0806  0.6474  0.3123
 9428TIP3    H149699   3.266   1.949  10.515  1.4215  1.7431  0.6540
 9428TIP3    H249700   3.398   1.912  10.581  0.9930 -1.2922 -0.0402
 9429TIP3   OH249701   4.064   0.862  11.234 -0.0002 -0.0409 -0.0790
 9429TIP3    H149702   4.145   0.811  11.222  0.1532  0.1696  0.0512
 9429TIP3    H249703   4.093   0.953  11.232 -0.3518  0.0572 -0.8583
 9430TIP3   OH249704   3.050   1.582  15.152  0.1734  0.3684 -0.0523
 9430TIP3    H149705   2.973   1.530  15.127 -0.3692  1.2875 -0.3351
 9430TIP3    H249706   3.022   1.628  15.231  0.0745  1.4788 -0.7234
 9431TIP3   OH249707   5.783   4.364   3.244  0.6031 -0.0564 -0.3413
 9431TIP3    H149708   5.808   4.448   3.206 -0.6529 -0.0830 -1.2839
 9431TIP3    H249709   5.832   4.299   3.193  0.8736  0.0534 -0.2217
 9432TIP3   OH249710   3.530   0.009   3.878  0.2069  0.3968 -0.1892
 9432TIP3    H149711   3.474   0.086   3.867  0.6020  1.0770  2.0087
 9432TIP3    H249712   3.499  -0.053   3.812 -1.2759  1.7728 -0.8652
 9433TIP3   OH249713   6.326   0.047  11.389  0.2804 -0.6053  0.1929
 9433TIP3    H149714   6.244   0.043  11.340 -0.0015  2.2371  0.2655
 9433TIP3    H249715   6.329  -0.036  11.437 -2.0228 -1.2266 -0.5999
 9434TIP3   OH249716   4.605   6.299   0.810  0.0975 -0.2970 -0.1081
 9434TIP3    H149717   4.536   6.237   0.831 -1.6276  1.4030 -0.4597
 9434TIP3    H249718   4.668   6.290   0.881 -2.0251  0.2473  1.9721
 9435TIP3   OH249719   0.007   0.415   4.494  0.3390  0.3572 -0.0034
 9435TIP3    H149720   0.048   0.459   4.419 -0.8338  0.1444 -0.7979
 9435TIP3    H249721  -0.086   0.434   4.485 -0.0237 -1.0810  0.4592
 9436TIP3   OH249722   6.692   2.598  14.951  0.5460 -0.4445  0.6251
 9436TIP3    H149723   6.680   2.692  14.938 -2.2131 -1.0319 -2.2077
 9436TIP3    H249724   6.639   2.578  15.028 -1.1326  0.0052 -0.3480
 9437TIP3   OH249725   4.880   3.072   6.547  0.9236 -0.0978 -0.0907
 9437TIP3    H149726   4.926   3.146   6.509  1.5151 -1.2828 -1.7992
 9437TIP3    H249727   4.946   3.004   6.555  0.2139 -0.7189  0.6785
 9438TIP3   OH249728   2.329   2.362  12.929 -0.2257 -0.3039 -0.3084
 9438TIP3    H149729   2.382   2.289  12.898 -1.8843 -1.3069 -0.9160
 9438TIP3    H249730   2.320   2.420  12.854 -0.3909 -0.4013 -0.3669
 9439TIP3   OH249731   4.701   3.452  11.805 -0.5646  0.8639 -0.0580
 9439TIP3    H149732   4.714   3.380  11.744 -0.3436  1.8581 -1.2206
 9439TIP3    H249733   4.724   3.530  11.755 -0.7151  1.7401  1.1964
 9440TIP3   OH249734   2.622   1.527   5.613  0.6770  0.0203  0.0100
 9440TIP3    H149735   2.634   1.433   5.622 -2.2267 -0.3216  1.6707
 9440TIP3    H249736   2.688   1.566   5.670  1.0892 -1.0822  0.3092
 9441TIP3   OH249737   5.983   4.594   1.819 -0.3715  0.1427 -0.1159
 9441TIP3    H149738   6.014   4.648   1.891 -0.7192  1.6435 -1.0481
 9441TIP3    H249739   5.890   4.617   1.810 -0.3073  0.0742 -1.1110
 9442TIP3   OH249740   3.814   5.903  13.974  0.3479  0.3192  0.6111
 9442TIP3    H149741   3.766   5.975  13.935 -0.7147 -0.4577  0.4265
 9442TIP3    H249742   3.902   5.937  13.988 -0.2873  1.8575  1.1311
 9443TIP3   OH249743   3.293   6.009   3.190 -0.1706 -0.4279  0.2449
 9443TIP3    H149744   3.388   6.000   3.180 -0.0747 -0.5574  1.1875
 9443TIP3    H249745   3.275   5.976   3.278 -1.0481 -0.0980  0.1975
 9444TIP3   OH249746   5.220   6.435   3.659 -0.4896 -0.0488  0.3255
 9444TIP3    H149747   5.288   6.433   3.592 -0.9147 -0.2485 -0.1100
 9444TIP3    H249748   5.163   6.507   3.634 -1.5708 -1.1336 -0.4755
 9445TIP3   OH249749   5.831   1.805  13.059 -0.0338  0.3682 -0.5005
 9445TIP3    H149750   5.879   1.881  13.092  0.7969 -0.1348 -0.5145
 9445TIP3    H249751   5.800   1.760  13.137  0.3663  0.1640 -0.4576
 9446TIP3   OH249752   2.312   1.234  16.004  0.5151  0.7834  0.0982
 9446TIP3    H149753   2.220   1.222  16.027  0.4882  2.3207  0.8850
 9446TIP3    H249754   2.351   1.148  16.019 -0.8453 -0.0058 -0.6278
 9447TIP3   OH249755   2.492   1.385  16.155  0.0909 -0.2901  0.1870
 9447TIP3    H149756   2.530   1.422  16.075  0.6431 -0.3998  0.3946
 9447TIP3    H249757   2.431   1.318  16.124  1.7463 -1.7197 -0.1152
 9448TIP3   OH249758   0.520   2.887   1.055 -0.2782  0.2302 -0.5709
 9448TIP3    H149759   0.476   2.950   1.111 -0.4508 -2.6859  2.9387
 9448TIP3    H249760   0.449   2.845   1.006 -0.5475  0.3892 -0.3184
 9449TIP3   OH249761   0.207   3.788   2.540 -0.1165 -0.5943 -0.4644
 9449TIP3    H149762   0.218   3.794   2.635 -2.1601 -1.2225 -0.1490
 9449TIP3    H249763   0.249   3.706   2.516 -1.4492 -1.5329  0.2650
 9450TIP3   OH249764   0.835   1.632  12.270  0.0721  0.2386 -0.2485
 9450TIP3    H149765   0.748   1.643  12.232  0.1070 -0.0259 -0.4043
 9450TIP3    H249766   0.888   1.699  12.227 -0.0226  0.3108 -0.2537
 9451TIP3   OH249767   6.546   0.226  13.514  0.5391  0.4162 -0.7417
 9451TIP3    H149768   6.481   0.256  13.450  0.9299  1.2064 -0.7697
 9451TIP3    H249769   6.574   0.305  13.559 -1.1694 -0.3255  1.8267
 9452TIP3   OH249770   5.432   4.831  14.992 -0.3839 -0.1793  0.1220
 9452TIP3    H149771   5.338   4.817  14.979 -0.4614 -0.9535  1.3338
 9452TIP3    H249772   5.439   4.864  15.082  0.2873  2.5653 -0.8351
 9453TIP3   OH249773   2.017   3.125  15.459 -0.0303 -0.1344 -0.2801
 9453TIP3    H149774   2.045   3.215  15.478 -0.6135 -0.4975  2.9554
 9453TIP3    H249775   2.053   3.074  15.531 -0.9154 -2.2483 -1.2700
 9454TIP3   OH249776   2.008   0.361   2.728 -0.1624  0.3652  0.1733
 9454TIP3    H149777   2.031   0.286   2.673  0.1584  0.4830  0.1438
 9454TIP3    H249778   1.978   0.322   2.810  0.2296  0.2053  0.2442
 9455TIP3   OH249779   5.087   1.754  12.746  0.2013  0.5998 -0.6169
 9455TIP3    H149780   5.162   1.774  12.802  0.0614 -0.3816 -0.0506
 9455TIP3    H249781   5.105   1.667  12.711 -0.8011  0.2259 -0.2477
 9456TIP3   OH249782   6.329   3.218   5.451  0.0077 -0.4794 -0.8194
 9456TIP3    H149783   6.301   3.128   5.465 -1.6783 -0.1173 -1.6033
 9456TIP3    H249784   6.251   3.271   5.469  1.3559  0.9727  1.1056
 9457TIP3   OH249785   0.533   1.039   3.346 -0.0974 -0.3581  0.6150
 9457TIP3    H149786   0.443   1.010   3.365 -0.2892  0.4905  1.0285
 9457TIP3    H249787   0.522   1.115   3.290  0.3783 -0.4134  0.4433
 9458TIP3   OH249788   5.442   6.032   2.283 -0.2340 -0.1361  0.0940
 9458TIP3    H149789   5.438   6.099   2.215  2.8001 -0.8124 -0.9042
 9458TIP3    H249790   5.416   6.078   2.363 -0.6728  1.5457 -0.9611
 9459TIP3   OH249791   2.780   5.783   0.013  0.1710  0.5214 -0.0518
 9459TIP3    H149792   2.754   5.704  -0.034 -0.9478  2.0627 -2.1865
 9459TIP3    H249793   2.875   5.788   0.001  0.3855 -0.8717  0.8115
 9460TIP3   OH249794   5.676   3.218   4.118 -0.0405  0.6113 -0.0162
 9460TIP3    H149795   5.757   3.180   4.085  0.1774  0.8142  0.2784
 9460TIP3    H249796   5.653   3.286   4.055  1.2415  2.1082  1.0646
 9461TIP3   OH249797   3.341   3.070   0.370  0.3299 -0.3821 -0.1229
 9461TIP3    H149798   3.361   3.065   0.277 -0.3399 -0.7368 -0.2496
 9461TIP3    H249799   3.420   3.036   0.413 -0.2372 -2.5194 -0.6452
 9462TIP3   OH249800   5.913   2.549   1.358 -0.5065  1.1444  0.2251
 9462TIP3    H149801   5.933   2.505   1.275 -1.6620 -0.0862  0.5616
 9462TIP3    H249802   5.902   2.641   1.334 -0.1130  0.9283 -0.8662
 9463TIP3   OH249803   3.438   0.768   3.571  0.2154  0.2972  0.1144
 9463TIP3    H149804   3.412   0.711   3.498 -1.2402  0.1665  0.7133
 9463TIP3    H249805   3.441   0.855   3.532 -0.2455  0.1880 -0.1712
 9464TIP3   OH249806   6.067   6.065   1.321  0.0867 -0.0215 -0.0558
 9464TIP3    H149807   6.158   6.067   1.351  0.9576  1.6146 -2.4463
 9464TIP3    H249808   6.057   5.978   1.281  0.8437  0.0126 -0.3458
 9465TIP3   OH249809   5.497   4.073   2.416  0.3826  0.1190  0.2694
 9465TIP3    H149810   5.415   4.120   2.404  0.6080 -0.0811 -2.7317
 9465TIP3    H249811   5.557   4.139   2.451 -0.8801  0.3510  2.1945
 9466TIP3   OH249812   1.253   4.017   1.606  0.0002  0.3537 -0.2540
 9466TIP3    H149813   1.259   4.054   1.694  1.5562  0.3350 -0.3173
 9466TIP3    H249814   1.276   3.925   1.617  1.8105  0.6847 -0.8512
 9467TIP3   OH249815   4.112   1.212   6.587 -1.1895  0.0166 -0.1190
 9467TIP3    H149816   4.044   1.256   6.638 -1.0524 -1.2769  1.2714
 9467TIP3    H249817   4.085   1.120   6.586  0.5733 -0.5633  0.6274
 9468TIP3   OH249818   6.697   3.246   4.159  0.0837  0.1982 -0.2289
 9468TIP3    H149819   6.787   3.278   4.153  0.2953 -0.0748  1.0297
 9468TIP3    H249820   6.655   3.273   4.078  1.0254  1.2087 -0.3916
 9469TIP3   OH249821   1.509   4.567   2.073  0.7687 -0.1958 -0.5013
 9469TIP3    H149822   1.468   4.624   2.138 -0.4170 -0.7938 -0.6906
 9469TIP3    H249823   1.544   4.493   2.124 -0.5516 -0.8879 -0.5510
 9470TIP3   OH249824   2.962   2.221  13.282 -0.5976  0.1957 -0.1158
 9470TIP3    H149825   2.890   2.258  13.333  0.8250  3.9663 -0.5067
 9470TIP3    H249826   2.949   2.256  13.194  0.3330 -1.2060 -0.8403
 9471TIP3   OH249827   6.211   1.199   0.557  0.1964  0.3561  0.0831
 9471TIP3    H149828   6.127   1.245   0.555 -0.7188 -1.2014 -2.3911
 9471TIP3    H249829   6.275   1.266   0.534 -0.2389  1.6567  2.3589
 9472TIP3   OH249830   0.243   6.154  15.295  1.0920 -0.7695 -0.0471
 9472TIP3    H149831   0.309   6.085  15.286  1.2642 -0.8368  1.5012
 9472TIP3    H249832   0.225   6.158  15.388 -1.9106 -1.4844 -0.5004
 9473TIP3   OH249833   0.757   4.716   4.868 -0.5511  0.2867  0.5966
 9473TIP3    H149834   0.797   4.688   4.786 -0.0301 -0.4173  1.0869
 9473TIP3    H249835   0.830   4.722   4.929 -0.4047  3.7443  0.3006
 9474TIP3   OH249836   5.965   5.059  16.965  0.6616 -0.0322  0.4320
 9474TIP3    H149837   5.953   5.137  17.020 -1.5982 -0.3654  0.5263
 9474TIP3    H249838   5.958   4.986  17.026 -0.7541 -0.3708 -0.0931
 9475TIP3   OH249839   5.156   4.866   3.882  0.0904  0.5049 -0.0747
 9475TIP3    H149840   5.249   4.879   3.863  0.0527 -0.6547 -1.2064
 9475TIP3    H249841   5.133   4.786   3.835 -1.3861  0.5351  0.5395
 9476TIP3   OH249842   6.480   0.776  12.323 -0.6344 -0.2788  0.1459
 9476TIP3    H149843   6.548   0.714  12.296 -2.0551 -1.9167  0.1288
 9476TIP3    H249844   6.523   0.833  12.386  0.4694 -2.0930  1.1284
 9477TIP3   OH249845   0.426   5.247   3.163 -0.1644 -0.0688 -0.0193
 9477TIP3    H149846   0.377   5.307   3.107 -0.4325  1.0581  1.3683
 9477TIP3    H249847   0.456   5.301   3.236  3.0257 -0.7424 -0.6886
 9478TIP3   OH249848   4.678   0.193  15.920  0.2524  0.1359  0.3310
 9478TIP3    H149849   4.774   0.196  15.924  0.3593  0.0960 -1.3884
 9478TIP3    H249850   4.659   0.164  15.831 -1.3884  1.5172  0.1814
 9479TIP3   OH249851   2.373   0.346   0.027  0.8366 -0.3498  0.4480
 9479TIP3    H149852   2.448   0.314  -0.022  0.5124 -0.7832  0.2317
 9479TIP3    H249853   2.368   0.288   0.103 -1.0085 -2.2139 -0.9935
 9480TIP3   OH249854   0.774   2.461  14.993 -0.0228 -0.1763  0.4236
 9480TIP3    H149855   0.768   2.477  15.087 -0.6680 -1.6202  0.6620
 9480TIP3    H249856   0.697   2.504  14.956 -0.5574 -0.8202  0.7598
 9481TIP3   OH249857   1.561   1.284  11.189 -0.1916  0.2206  0.2836
 9481TIP3    H149858   1.600   1.361  11.146  1.4157  0.0763  1.3830
 9481TIP3    H249859   1.635   1.225  11.203 -0.5988  0.2558  3.2193
 9482TIP3   OH249860   3.878   6.430   6.066  0.2231 -0.3365 -0.1840
 9482TIP3    H149861   3.803   6.373   6.082 -0.9092  1.4685  1.3197
 9482TIP3    H249862   3.911   6.451   6.153  1.3020  0.3886 -0.7539
 9483TIP3   OH249863   6.573   1.385   0.558  0.3552  0.0236 -0.0604
 9483TIP3    H149864   6.646   1.391   0.618  0.1780  0.5219  0.1131
 9483TIP3    H249865   6.496   1.409   0.610  0.0084 -0.8997 -0.1329
 9484TIP3   OH249866   3.451   0.707  13.719  0.6527  0.2348  0.4380
 9484TIP3    H149867   3.511   0.718  13.645  0.1635  1.2777  0.1809
 9484TIP3    H249868   3.460   0.615  13.743  0.0342 -0.4279 -1.6334
 9485TIP3   OH249869   5.584   6.238   3.382  0.0856  0.4072 -0.0679
 9485TIP3    H149870   5.657   6.297   3.365 -0.1384  0.4671 -0.8396
 9485TIP3    H249871   5.508   6.296   3.391  0.1548  0.3610  0.9276
 9486TIP3   OH249872   2.076   2.089   5.138  0.4935  0.0115  0.2867
 9486TIP3    H149873   1.992   2.113   5.176  0.6769 -2.1969  2.3886
 9486TIP3    H249874   2.066   1.997   5.112  1.2403  0.6855 -2.7206
 9487TIP3   OH249875   4.241   6.733   3.262 -0.0241 -0.5082  0.2311
 9487TIP3    H149876   4.283   6.707   3.179  0.3055 -0.8827  0.5112
 9487TIP3    H249877   4.204   6.819   3.244  0.0534 -0.5819 -0.3053
 9488TIP3   OH249878   0.083   4.256  15.688  0.0827 -0.3159 -0.0700
 9488TIP3    H149879   0.170   4.219  15.701  0.5854  1.6103  3.3090
 9488TIP3    H249880   0.024   4.180  15.689  1.4799 -1.4450  1.2014
 9489TIP3   OH249881   3.917   3.430   3.499  0.1336  0.5177  0.2489
 9489TIP3    H149882   3.889   3.522   3.508  0.6899  0.6700  0.4488
 9489TIP3    H249883   3.890   3.389   3.581  0.4708  0.6595  0.4322
 9490TIP3   OH249884   5.057   1.504   3.370  0.3772  0.1204  0.4495
 9490TIP3    H149885   4.999   1.564   3.415  1.6967 -0.0222  2.4534
 9490TIP3    H249886   5.043   1.420   3.412  1.3361 -0.1132  0.3413
 9491TIP3   OH249887   4.390   3.298  13.348  0.7985  0.3577  0.0663
 9491TIP3    H149888   4.445   3.322  13.422  1.1937  1.3185 -0.5180
 9491TIP3    H249889   4.450   3.252  13.289  0.7238  0.4618 -0.0914
 9492TIP3   OH249890   4.425   1.895   4.791 -0.0921  0.5539 -0.1089
 9492TIP3    H149891   4.339   1.885   4.751 -0.0078  0.9705 -0.4102
 9492TIP3    H249892   4.432   1.823   4.853 -0.5951  0.4291 -0.1944
 9493TIP3   OH249893   3.838   3.181  13.561 -0.2124 -0.4149 -0.6138
 9493TIP3    H149894   3.856   3.164  13.653 -0.7492 -0.6558 -0.5514
 9493TIP3    H249895   3.911   3.236  13.532 -0.2577  0.0085  0.0573
 9494TIP3   OH249896   0.191   1.716  14.192 -0.6037  0.4072  0.0145
 9494TIP3    H149897   0.140   1.687  14.116  0.6488  1.0627 -1.1207
 9494TIP3    H249898   0.263   1.767  14.154  0.2568  0.4451  1.6287
 9495TIP3   OH249899   4.387   2.441   5.116 -0.1417  0.0098  0.1800
 9495TIP3    H149900   4.397   2.416   5.024  0.6685  1.1322 -0.0560
 9495TIP3    H249901   4.331   2.518   5.114 -2.9023 -1.8127  0.9260
 9496TIP3   OH249902   4.916   6.211  16.869 -0.1117 -0.6628 -0.1750
 9496TIP3    H149903   4.992   6.248  16.825  0.1852 -2.9910 -1.7829
 9496TIP3    H249904   4.950   6.176  16.951  0.1848 -0.1469 -0.0745
 9497TIP3   OH249905   2.929   2.686   5.535  0.0402 -0.5697 -0.2862
 9497TIP3    H149906   2.838   2.657   5.525  0.2448 -1.4718  0.3160
 9497TIP3    H249907   2.968   2.621   5.593  0.7859  0.4327  0.3596
 9498TIP3   OH249908   3.512   5.738  12.291 -0.3984 -0.7577 -0.1955
 9498TIP3    H149909   3.465   5.795  12.231 -0.9980 -0.9402  0.0933
 9498TIP3    H249910   3.443   5.691  12.339 -0.0554  1.1253  2.3910
 9499TIP3   OH249911   1.420   5.135   3.413  0.2747 -0.6684  0.4653
 9499TIP3    H149912   1.406   5.066   3.477  1.3898  0.4475  2.0058
 9499TIP3    H249913   1.468   5.203   3.461  0.4977  0.5535 -1.3617
 9500TIP3   OH249914   3.305   5.422   0.720  0.0667  0.0344  0.5643
 9500TIP3    H149915   3.234   5.464   0.671 -0.7518 -0.6108  1.1533
 9500TIP3    H249916   3.341   5.357   0.660 -1.8521 -1.7349  1.1934
 9501TIP3   OH249917   4.817   3.545  17.210 -0.1530 -0.5078 -0.5141
 9501TIP3    H149918   4.873   3.617  17.180 -2.0933  1.3133 -0.0046
 9501TIP3    H249919   4.756   3.530  17.137 -0.6481 -0.6622 -0.0757
 9502TIP3   OH249920   6.069   6.057   3.849 -0.1039  0.0174  0.1440
 9502TIP3    H149921   6.130   6.043   3.921  0.7042  1.0852 -0.3144
 9502TIP3    H249922   6.095   5.992   3.783  0.6928  0.6133 -0.1393
 9503TIP3   OH249923   1.466   4.205   1.442 -0.0707  0.1483 -0.1488
 9503TIP3    H149924   1.393   4.227   1.384  0.6173  0.9612 -0.7491
 9503TIP3    H249925   1.437   4.127   1.489 -1.8836  1.2393  0.6462
 9504TIP3   OH249926   5.264   0.025  11.365  0.4186 -0.2972 -0.7737
 9504TIP3    H149927   5.200   0.094  11.383  1.3818  0.4979 -0.2504
 9504TIP3    H249928   5.345   0.073  11.348  0.3115 -1.1153 -4.3447
 9505TIP3   OH249929   5.286   0.992   2.219  0.2694 -0.3766 -0.1633
 9505TIP3    H149930   5.355   1.057   2.232 -1.0642  0.7225  1.9027
 9505TIP3    H249931   5.278   0.947   2.303 -1.4272 -0.5673 -0.3915
 9506TIP3   OH249932   5.546   3.879  13.913 -0.7320  0.7120 -0.0242
 9506TIP3    H149933   5.542   3.830  13.831 -1.4205  0.6817  0.0276
 9506TIP3    H249934   5.636   3.864  13.945 -0.6066  0.3477 -0.5351
 9507TIP3   OH249935   5.417   5.682  17.008 -0.3071  0.3934  0.4071
 9507TIP3    H149936   5.386   5.770  16.987 -1.1158  0.2767  1.0921
 9507TIP3    H249937   5.375   5.626  16.943 -0.0756  0.4625  0.1942
 9508TIP3   OH249938   3.521   3.764   4.929 -0.3003 -0.1123 -0.1888
 9508TIP3    H149939   3.603   3.736   4.889  0.5806 -1.0408  2.1354
 9508TIP3    H249940   3.535   3.754   5.023 -2.5039  1.3310  0.3636
 9509TIP3   OH249941   0.136   1.786  15.035  0.9014 -0.4002 -0.2403
 9509TIP3    H149942   0.053   1.812  15.077  0.6222  0.2077 -1.1349
 9509TIP3    H249943   0.175   1.725  15.097 -0.1939 -0.6634  0.2302
 9510TIP3   OH249944   3.784   5.373   1.202  0.4592 -0.2345  0.0165
 9510TIP3    H149945   3.720   5.330   1.259 -0.2619  0.7925  0.0137
 9510TIP3    H249946   3.842   5.419   1.263 -1.3346  2.3142 -0.0020
 9511TIP3   OH249947   2.265   5.904  13.430  0.3391  0.3245  0.5762
 9511TIP3    H149948   2.242   5.961  13.504  1.2149  2.0486 -0.4183
 9511TIP3    H249949   2.232   5.818  13.455 -2.2387  1.5068  1.5764
 9512TIP3   OH249950   4.124   2.237  15.480 -0.1681 -0.5200  0.3841
 9512TIP3    H149951   4.175   2.158  15.460  1.0601 -0.0729  1.5769
 9512TIP3    H249952   4.100   2.272  15.395  2.1294 -0.3886 -0.2881
 9513TIP3   OH249953   4.273   2.980  12.686  0.8309  0.1152  0.7436
 9513TIP3    H149954   4.357   2.964  12.643 -0.0635  0.7878 -1.4172
 9513TIP3    H249955   4.211   2.990  12.613 -1.0733 -0.0850  2.2641
 9514TIP3   OH249956   1.933   5.906  10.955 -0.5009  0.7422  0.0338
 9514TIP3    H149957   1.912   5.913  11.048 -1.1870  1.3845 -0.1578
 9514TIP3    H249958   1.906   5.818  10.931  0.3771  0.3020  0.6024
 9515TIP3   OH249959   6.636   5.704   3.930 -0.5728  0.3546 -0.0860
 9515TIP3    H149960   6.641   5.762   4.006 -0.2240  0.1670  0.0353
 9515TIP3    H249961   6.700   5.740   3.868  0.5280 -0.6143  0.4808
 9516TIP3   OH249962   1.159   2.077   3.360 -0.3168  0.6630 -0.1885
 9516TIP3    H149963   1.212   2.006   3.396 -0.4953  0.1288 -0.9507
 9516TIP3    H249964   1.222   2.143   3.332 -0.0664  0.1648 -0.8093
 9517TIP3   OH249965   1.763   5.064  15.509  0.2952 -0.5604 -0.1413
 9517TIP3    H149966   1.788   5.062  15.601 -0.4994  0.4834  0.1154
 9517TIP3    H249967   1.845   5.085  15.463  0.2353  1.6001  0.5832
 9518TIP3   OH249968   3.148   5.987  14.169  0.6498  0.0592 -0.1133
 9518TIP3    H149969   3.056   5.993  14.143  0.4312 -0.3276  0.5545
 9518TIP3    H249970   3.147   5.995  14.265  0.9425 -3.6405  0.3286
 9519TIP3   OH249971   2.405   4.466  12.574 -0.3537  0.0874  0.0111
 9519TIP3    H149972   2.355   4.480  12.494 -1.3175 -0.8758  0.4119
 9519TIP3    H249973   2.374   4.534  12.634 -0.4690  0.1144 -0.0779
 9520TIP3   OH249974   6.295   0.421  10.294  0.0757 -0.0728  0.5546
 9520TIP3    H149975   6.312   0.358  10.364 -0.4602  0.7564  1.4568
 9520TIP3    H249976   6.363   0.404  10.229  1.4092  0.0137  1.8793
 9521TIP3   OH249977   3.017   0.368   5.511  0.1679 -0.2412 -0.6408
 9521TIP3    H149978   2.956   0.366   5.585  0.4144 -0.4376 -0.4391
 9521TIP3    H249979   3.091   0.419   5.544 -0.4932  1.2556 -1.3619
 9522TIP3   OH249980   3.524   6.304   2.412  0.2984 -0.0036  0.0394
 9522TIP3    H149981   3.531   6.209   2.421  1.1881  0.1809  1.6952
 9522TIP3    H249982   3.595   6.327   2.352  1.0255 -0.2567  0.7796
 9523TIP3   OH249983   6.343   6.596  11.586 -0.0114  0.1239 -0.0034
 9523TIP3    H149984   6.306   6.583  11.673 -1.3857  1.3457 -0.3692
 9523TIP3    H249985   6.438   6.597  11.600 -0.0195 -2.9082  1.0002
 9524TIP3   OH249986   5.059   2.870   6.503 -0.2418 -0.0957 -0.1478
 9524TIP3    H149987   5.025   2.836   6.420 -1.6179 -0.0931  0.3815
 9524TIP3    H249988   5.145   2.831   6.512 -0.3214 -0.5781 -1.2798
 9525TIP3   OH249989   2.484   3.790  16.571 -0.4969 -0.3603 -0.2048
 9525TIP3    H149990   2.565   3.742  16.551 -0.1210  0.1740  0.0197
 9525TIP3    H249991   2.510   3.882  16.570 -1.2076 -0.1602 -0.5844
 9526TIP3   OH249992   1.755   3.193  15.627  0.8393 -0.2813  0.2442
 9526TIP3    H149993   1.817   3.264  15.643  0.7664 -0.4126  1.1552
 9526TIP3    H249994   1.799   3.115  15.662  1.2085 -0.8345 -1.3277
 9527TIP3   OH249995   4.655   3.096   4.651 -0.4335  0.1870 -0.7946
 9527TIP3    H149996   4.730   3.132   4.699 -0.1595 -0.2735 -0.8658
 9527TIP3    H249997   4.585   3.158   4.666  0.2200  1.1181 -1.4832
 9528TIP3   OH249998   3.808   1.724   3.881 -0.5602 -0.1352 -0.1117
 9528TIP3    H149999   3.797   1.673   3.801 -0.3595  1.0861 -0.9570
 9528TIP3    H250000   3.897   1.705   3.910 -1.6123 -3.0287  1.6566
 9529TIP3   OH250001   0.498   2.120  15.049 -0.8300  0.0108 -0.2488
 9529TIP3    H150002   0.512   2.123  14.955 -1.9922  0.3083 -0.4305
 9529TIP3    H250003   0.425   2.180  15.064 -0.0810  0.6575  0.9627
 9530TIP3   OH250004   3.267   5.732   6.520  0.0358  0.2550 -0.3599
 9530TIP3    H150005   3.297   5.663   6.579  0.9328  1.2947  0.4292
 9530TIP3    H250006   3.294   5.814   6.562 -0.1336  1.0593 -1.7524
 9531TIP3   OH250007   5.938   4.564   0.599  0.2185 -0.5049 -0.3847
 9531TIP3    H150008   5.880   4.488   0.585  1.5524 -1.6098 -0.1533
 9531TIP3    H250009   5.922   4.620   0.524 -0.6064 -1.1412 -0.7115
 9532TIP3   OH250010   1.096   4.760   2.641 -0.0437  0.1978 -0.7403
 9532TIP3    H150011   1.035   4.686   2.639  0.9453 -0.6241 -2.2917
 9532TIP3    H250012   1.047   4.832   2.601 -0.9828  0.3957  0.6922
 9533TIP3   OH250013   1.916   0.673  14.970 -0.0298  0.8281 -0.1037
 9533TIP3    H150014   1.972   0.747  14.994  0.5975  0.2685  0.2150
 9533TIP3    H250015   1.845   0.711  14.920  0.3241  1.6377 -0.0028
 9534TIP3   OH250016   5.331   4.544  13.619  0.0441  0.4225 -0.3618
 9534TIP3    H150017   5.360   4.589  13.698  0.1458  0.0924 -0.2115
 9534TIP3    H250018   5.237   4.532  13.631  0.2500 -0.6886  0.2470
 9535TIP3   OH250019   4.297   2.521  13.263  0.0510  0.7364 -0.0919
 9535TIP3    H150020   4.300   2.580  13.188  1.1143 -0.6299 -1.1884
 9535TIP3    H250021   4.204   2.506  13.278 -0.1785  0.9230 -1.2306
 9536TIP3   OH250022   2.239   4.904   5.118 -0.0308 -0.2076 -0.2985
 9536TIP3    H150023   2.173   4.876   5.181  1.4500  0.7317  1.7866
 9536TIP3    H250024   2.226   4.998   5.109  0.9670 -0.0219  0.0970
 9537TIP3   OH250025   5.874   3.184  14.476 -0.0046 -0.0145  0.6590
 9537TIP3    H150026   5.797   3.159  14.426  1.7272 -0.5216 -1.9990
 9537TIP3    H250027   5.868   3.279  14.483 -0.4760  0.0350 -0.2621
 9538TIP3   OH250028   2.827   3.247  15.078 -0.2429  0.5165 -0.0429
 9538TIP3    H150029   2.772   3.303  15.025 -1.5737 -0.8896 -0.2016
 9538TIP3    H250030   2.863   3.183  15.017 -0.5992 -0.2137  0.5018
 9539TIP3   OH250031   2.604   1.718  12.580 -0.1398  0.1625  0.0302
 9539TIP3    H150032   2.651   1.747  12.502  0.7604  0.7790  0.7810
 9539TIP3    H250033   2.589   1.799  12.630 -1.8918 -0.0365 -0.1232
 9540TIP3   OH250034   2.620   6.181   1.469 -0.0152 -0.2108  0.0794
 9540TIP3    H150035   2.708   6.145   1.480 -1.0689 -2.7865  0.9045
 9540TIP3    H250036   2.600   6.221   1.554  0.5477  0.9473 -0.3114
 9541TIP3   OH250037   6.111   3.574   3.461 -0.3996 -0.1757 -0.3583
 9541TIP3    H150038   6.200   3.558   3.491 -0.0073  0.2620 -1.2548
 9541TIP3    H250039   6.056   3.546   3.534  0.3395 -2.8282 -0.7223
 9542TIP3   OH250040   3.986   2.054   5.604 -0.6139 -0.1753 -0.1642
 9542TIP3    H150041   3.992   1.975   5.657  3.0923 -0.0239 -0.1207
 9542TIP3    H250042   3.962   2.023   5.516 -0.3861 -1.1733  0.1207
 9543TIP3   OH250043   6.072   0.553   3.486 -0.1760  0.3612  0.0451
 9543TIP3    H150044   6.147   0.538   3.543 -1.8946 -1.3772  2.0209
 9543TIP3    H250045   6.055   0.647   3.493 -0.0102  0.2866  2.0527
 9544TIP3   OH250046   1.047   4.754  13.871 -0.2440 -0.5123 -0.0942
 9544TIP3    H150047   1.066   4.840  13.835  1.7573  0.8331  3.5782
 9544TIP3    H250048   1.032   4.771  13.964 -0.2604 -4.0797  0.6746
 9545TIP3   OH250049   3.134   5.780   2.828 -0.3067  0.3041  0.2270
 9545TIP3    H150050   3.078   5.801   2.753  1.6771  1.3108 -1.0689
 9545TIP3    H250051   3.132   5.859   2.882 -0.9038 -0.0380  0.7252
 9546TIP3   OH250052   4.987   2.876  15.030  0.5041  0.5443  0.1629
 9546TIP3    H150053   4.902   2.834  15.045 -0.1134 -0.2378 -4.1741
 9546TIP3    H250054   5.036   2.860  15.110 -2.6823 -0.8863  2.0141
 9547TIP3   OH250055   6.309   5.195   2.590 -0.0058 -0.8072  0.2266
 9547TIP3    H150056   6.231   5.229   2.546 -0.0087  1.5400  1.8302
 9547TIP3    H250057   6.379   5.256   2.565  0.4583 -0.7131  1.6201
 9548TIP3   OH250058   3.775   4.205  13.576  0.9836  0.2249 -0.0840
 9548TIP3    H150059   3.807   4.245  13.657  0.2107 -2.7541  1.8631
 9548TIP3    H250060   3.680   4.215  13.580  0.9920  0.7136 -1.0080
 9549TIP3   OH250061   6.541   1.603   1.618 -0.7553  0.0439 -0.1220
 9549TIP3    H150062   6.626   1.644   1.633 -0.9839  1.3529 -2.0130
 9549TIP3    H250063   6.483   1.641   1.684  0.6892 -3.4382  3.6144
 9550TIP3   OH250064   2.861   5.833  11.996 -0.1458  0.2820  0.2849
 9550TIP3    H150065   2.888   5.755  12.044 -0.5422  0.7131  1.2262
 9550TIP3    H250066   2.873   5.810  11.903  0.9253 -0.4492  0.5865
 9551TIP3   OH250067   3.542   4.441  13.685  0.4258 -0.0323  0.6415
 9551TIP3    H150068   3.506   4.352  13.681 -0.2732  0.2877 -1.0613
 9551TIP3    H250069   3.465   4.498  13.686  0.7887  0.6401 -2.2602
 9552TIP3   OH250070   6.584   0.052   2.783 -0.9544  0.9094 -0.1875
 9552TIP3    H150071   6.540   0.134   2.805 -2.3753  0.3076 -0.6266
 9552TIP3    H250072   6.577   0.045   2.688  3.3577  2.5125 -0.8423
 9553TIP3   OH250073   3.643   2.715  10.686  0.0240 -0.4846  0.1254
 9553TIP3    H150074   3.578   2.782  10.664  0.5553  0.3481  1.0216
 9553TIP3    H250075   3.631   2.648  10.619  0.1847  0.9920 -1.4637
 9554TIP3   OH250076   5.899   3.767   0.575 -0.1379  0.4930  0.5832
 9554TIP3    H150077   5.981   3.717   0.574  0.6739  1.7933 -0.1679
 9554TIP3    H250078   5.843   3.719   0.636  0.4086 -1.6102 -0.4591
 9555TIP3   OH250079   3.451   0.233  12.601 -0.7488 -0.6719  0.1985
 9555TIP3    H150080   3.388   0.298  12.568 -2.5357 -2.2873  0.2114
 9555TIP3    H250081   3.485   0.272  12.681 -2.7015 -0.2163  0.8725
 9556TIP3   OH250082   4.824   3.132   2.733 -0.4624  0.7177 -0.5254
 9556TIP3    H150083   4.764   3.063   2.705 -0.2839  1.0680 -1.7992
 9556TIP3    H250084   4.774   3.213   2.723 -1.4988  0.7069  3.1204
 9557TIP3   OH250085   3.818   6.135  16.714  0.1545  0.5989 -0.3327
 9557TIP3    H150086   3.901   6.090  16.724  0.1771  0.5105 -0.8947
 9557TIP3    H250087   3.752   6.069  16.732  0.1584  0.0217 -2.2041
 9558TIP3   OH250088   5.063   3.523   4.791  0.4500 -0.3970 -0.2232
 9558TIP3    H150089   5.063   3.496   4.883 -1.0197 -0.3556 -0.1879
 9558TIP3    H250090   5.042   3.616   4.793  1.6065 -0.1190 -0.5533
 9559TIP3   OH250091   4.673   5.277   5.121 -0.8978  0.5161 -0.3481
 9559TIP3    H150092   4.683   5.315   5.208  0.4087 -0.0703 -0.2226
 9559TIP3    H250093   4.607   5.332   5.078 -2.0369  0.4222  1.2079
 9560TIP3   OH250094   1.265   0.777   2.946  0.1655 -0.0319  0.7805
 9560TIP3    H150095   1.330   0.833   2.989  0.8653  0.2710 -0.6116
 9560TIP3    H250096   1.255   0.814   2.859  0.0470 -1.5859  0.0890
 9561TIP3   OH250097   2.069   1.041   0.537  0.1198  0.5390  0.0346
 9561TIP3    H150098   1.996   0.996   0.580 -1.0045  0.3449 -1.9766
 9561TIP3    H250099   2.131   0.971   0.516 -0.1044  0.4011 -0.1653
 9562TIP3   OH250100   5.829   3.278  13.759 -0.3578 -0.0619  0.1857
 9562TIP3    H150101   5.735   3.293  13.772 -0.1501  0.3760  1.3053
 9562TIP3    H250102   5.866   3.278  13.847  0.5795 -1.1002 -0.1841
 9563TIP3   OH250103   4.186   6.510   1.443  0.0417 -0.0995 -0.0975
 9563TIP3    H150104   4.092   6.490   1.446 -0.1111  0.6944  1.6298
 9563TIP3    H250105   4.192   6.589   1.389 -0.3631  0.2173  0.3169
 9564TIP3   OH250106   0.129   4.763  15.688 -0.0941 -0.5793 -0.2677
 9564TIP3    H150107   0.105   4.681  15.730  0.7802 -1.0244 -0.6090
 9564TIP3    H250108   0.085   4.830  15.740  1.1355 -1.0897  1.5528
 9565TIP3   OH250109   4.537   1.296  11.552 -0.1797  0.0187  0.6371
 9565TIP3    H150110   4.519   1.321  11.462  1.3167  1.5650  0.7231
 9565TIP3    H250111   4.511   1.204  11.557 -1.1481  0.1633 -1.1033
 9566TIP3   OH250112   6.707   1.402   0.066  0.6140  0.6103 -0.2837
 9566TIP3    H150113   6.724   1.496   0.057 -1.6332  1.0498 -0.4156
 9566TIP3    H250114   6.788   1.367   0.104  1.5310  2.5756 -0.3008
 9567TIP3   OH250115   4.547   0.123   1.909  0.2591  0.1499 -0.6253
 9567TIP3    H150116   4.596   0.050   1.871 -2.2685 -1.3543 -1.2439
 9567TIP3    H250117   4.608   0.197   1.907  1.9496 -1.1789 -2.8074
 9568TIP3   OH250118   6.022   3.403  13.639 -0.0391 -0.1088  0.0370
 9568TIP3    H150119   5.957   3.349  13.684 -0.2986 -0.8825 -1.2204
 9568TIP3    H250120   6.106   3.363  13.661 -0.1279 -0.2143  0.1860
 9569TIP3   OH250121   6.054   1.545   0.792 -1.2058 -0.0432  0.5289
 9569TIP3    H150122   6.032   1.487   0.719  3.0592 -0.6657 -0.5408
 9569TIP3    H250123   6.097   1.620   0.750  1.5211 -0.4810  2.2874
 9570TIP3   OH250124   4.639   1.285   1.771 -0.2739 -0.1431 -0.2643
 9570TIP3    H150125   4.679   1.278   1.858 -0.5124 -0.2789 -0.1674
 9570TIP3    H250126   4.643   1.196   1.735 -0.7880 -0.2187 -0.1266
 9571TIP3   OH250127   1.937   5.659   4.941  0.2904  0.0126 -0.1184
 9571TIP3    H150128   1.924   5.707   4.859 -0.4373  0.8769  0.4886
 9571TIP3    H250129   1.854   5.667   4.988  1.3362  1.3371  1.6312
 9572TIP3   OH250130   1.007   5.774   1.241 -0.1323  0.1470 -0.5338
 9572TIP3    H150131   1.060   5.795   1.318  0.2800  1.0683 -1.0515
 9572TIP3    H250132   0.979   5.859   1.207  0.7218 -0.1612 -2.1112
 9573TIP3   OH250133   1.627   1.301  11.982 -0.4074  0.5458  0.1968
 9573TIP3    H150134   1.595   1.239  12.048  3.1843 -0.0337  1.6805
 9573TIP3    H250135   1.633   1.385  12.029  1.1996  0.3593  0.3922
 9574TIP3   OH250136   1.812   4.899  13.591  0.2362  0.1189  0.4570
 9574TIP3    H150137   1.820   4.838  13.664  0.8249 -0.2242  0.1207
 9574TIP3    H250138   1.889   4.880  13.536 -0.6201 -0.1926 -0.6695
 9575TIP3   OH250139   3.677   5.745   1.896 -0.1083 -0.6556  0.0060
 9575TIP3    H150140   3.721   5.676   1.946  2.6451 -1.0832 -2.7078
 9575TIP3    H250141   3.585   5.719   1.896  0.4442 -2.9353  1.1919
 9576TIP3   OH250142   6.144   2.878   3.267  0.4309  0.4529 -0.0317
 9576TIP3    H150143   6.125   2.790   3.235 -0.0008  0.6633 -0.3658
 9576TIP3    H250144   6.059   2.916   3.286  0.6636  0.3904  1.2461
 9577TIP3   OH250145   6.087   0.397   2.627 -0.0514 -0.0220 -0.0143
 9577TIP3    H150146   6.001   0.363   2.651 -0.8248  0.7104 -1.5469
 9577TIP3    H250147   6.125   0.330   2.571  1.0074 -0.9649  1.7673
 9578TIP3   OH250148   2.217   0.294  12.822 -0.5162  0.1018 -0.8674
 9578TIP3    H150149   2.260   0.264  12.742 -2.0208 -0.9397 -1.3331
 9578TIP3    H250150   2.135   0.332  12.792 -1.0784 -0.2528  0.1671
 9579TIP3   OH250151   1.762   6.309  13.277 -0.2556 -0.2142  0.9131
 9579TIP3    H150152   1.857   6.303  13.269 -0.2857  0.0760  0.3405
 9579TIP3    H250153   1.731   6.221  13.254 -0.2144  0.0798 -0.3048
 9580TIP3   OH250154   1.349   3.459   1.562 -0.2293  0.9192  0.1128
 9580TIP3    H150155   1.329   3.369   1.588 -1.2626  0.4675 -2.0139
 9580TIP3    H250156   1.290   3.513   1.616 -0.5746  0.2219  0.4487
 9581TIP3   OH250157   2.726   2.321  17.084  0.2853  0.8806 -0.9758
 9581TIP3    H150158   2.670   2.399  17.090 -2.0540 -0.7935  0.7341
 9581TIP3    H250159   2.793   2.335  17.150 -0.1427  1.4200 -0.6378
 9582TIP3   OH250160   0.016   6.107  15.826 -0.6757 -0.4542  0.6569
 9582TIP3    H150161  -0.014   6.112  15.735  1.2391  2.5867  0.0309
 9582TIP3    H250162   0.082   6.038  15.826 -0.8689 -0.6567 -0.1886
 9583TIP3   OH250163   0.688   1.913  11.361 -0.2790  0.3885  0.0805
 9583TIP3    H150164   0.649   2.001  11.362  3.0060  1.9758 -0.2697
 9583TIP3    H250165   0.714   1.897  11.452  0.3978  0.4093 -0.1047
 9584TIP3   OH250166   6.636   0.759   5.318  0.3013  0.1001 -0.8533
 9584TIP3    H150167   6.577   0.835   5.315  0.8601  0.5851 -0.0092
 9584TIP3    H250168   6.707   0.787   5.375 -0.5127 -1.7860  1.2232
 9585TIP3   OH250169   0.402   3.288  13.173 -0.0003  0.2389 -0.1904
 9585TIP3    H150170   0.465   3.355  13.148  0.5850  0.5238  1.8264
 9585TIP3    H250171   0.455   3.218  13.211 -0.7217 -0.7351 -0.9230
 9586TIP3   OH250172   1.969   5.786  11.797 -0.3822 -0.5560  0.0681
 9586TIP3    H150173   1.886   5.746  11.773 -0.3898 -0.5416  0.0710
 9586TIP3    H250174   1.968   5.871  11.753 -0.2310 -0.6884 -0.1951
 9587TIP3   OH250175   6.772   3.968   2.502  0.1698  0.0054 -0.1521
 9587TIP3    H150176   6.861   3.938   2.519  0.7041  1.4179 -0.2722
 9587TIP3    H250177   6.772   3.991   2.409 -0.9885 -2.0533 -0.7059
 9588TIP3   OH250178   0.599   3.798   1.661 -0.5087 -0.1198  0.4615
 9588TIP3    H150179   0.627   3.722   1.610  1.7107 -2.2529  4.3030
 9588TIP3    H250180   0.516   3.771   1.700 -0.0682 -0.3327  1.2766
 9589TIP3   OH250181   2.890   3.774   4.363 -0.1113  0.2487  0.5305
 9589TIP3    H150182   2.969   3.725   4.385  0.0411  0.7969  1.2801
 9589TIP3    H250183   2.885   3.842   4.431 -1.7360 -0.3458  1.0639
 9590TIP3   OH250184   5.652   0.518   5.409  0.5457  0.2439  0.6778
 9590TIP3    H150185   5.674   0.516   5.502 -0.4246 -2.5782  0.9454
 9590TIP3    H250186   5.569   0.470   5.404  2.0858 -2.4103 -1.9510
 9591TIP3   OH250187   3.911   0.348   5.916  0.3217 -0.2395  0.0810
 9591TIP3    H150188   3.988   0.357   5.971 -0.0818 -0.8170  0.7492
 9591TIP3    H250189   3.848   0.410   5.952  0.0493 -0.6324  0.2859
 9592TIP3   OH250190   3.038   4.255  16.624 -0.2141 -0.1549 -0.1261
 9592TIP3    H150191   2.943   4.261  16.636 -0.3966 -0.1181 -1.4055
 9592TIP3    H250192   3.049   4.244  16.529  1.1441  2.2894 -0.3504
 9593TIP3   OH250193   5.214   2.562  13.589  0.1045 -0.1360  0.4542
 9593TIP3    H150194   5.187   2.481  13.633 -0.8751  0.8695  1.8021
 9593TIP3    H250195   5.137   2.591  13.541  0.1771  0.4038  0.6484
 9594TIP3   OH250196   4.773   2.399  11.675  0.7619 -0.4790  0.3583
 9594TIP3    H150197   4.810   2.319  11.638 -0.9751 -0.4548 -1.6251
 9594TIP3    H250198   4.684   2.374  11.699  0.5716  0.5876  0.7867
 9595TIP3   OH250199   2.731   5.066   5.195  0.9495  0.0371 -0.1931
 9595TIP3    H150200   2.774   5.122   5.130  1.0617  0.1955  0.0180
 9595TIP3    H250201   2.694   5.126   5.259 -1.4826  0.0345 -1.4821
 9596TIP3   OH250202   0.430   1.497  15.870 -0.2341 -0.0144  0.1765
 9596TIP3    H150203   0.455   1.414  15.830 -0.0568 -0.4786  1.2192
 9596TIP3    H250204   0.484   1.562  15.825 -0.6882 -0.3946 -0.9509
 9597TIP3   OH250205   5.815   1.599  15.151 -0.2792 -0.2405  0.5532
 9597TIP3    H150206   5.872   1.524  15.132 -1.8472 -1.1805 -0.7377
 9597TIP3    H250207   5.808   1.645  15.068  0.6946  1.4130  1.3438
 9598TIP3   OH250208   2.001   4.679   4.183 -0.6975  0.5472  0.4766
 9598TIP3    H150209   1.957   4.763   4.173  0.2810  0.9084 -1.2388
 9598TIP3    H250210   1.931   4.617   4.203 -1.5769  1.5805  0.6807
 9599TIP3   OH250211   2.225   1.129  12.722 -0.2563 -0.5316  0.2618
 9599TIP3    H150212   2.282   1.104  12.649 -0.3253 -3.5798  1.0887
 9599TIP3    H250213   2.285   1.162  12.789  0.1257 -0.3604 -0.1619
 9600TIP3   OH250214   0.824   5.362   1.315 -0.5974  0.0879 -0.0617
 9600TIP3    H150215   0.817   5.457   1.311  0.3004  0.1161 -2.3685
 9600TIP3    H250216   0.816   5.341   1.408  0.4087  2.4967  0.6367
 9601TIP3   OH250217   3.855   2.409   5.178 -0.1387 -0.1587 -0.5739
 9601TIP3    H150218   3.833   2.387   5.087 -0.1322  0.8101 -0.8196
 9601TIP3    H250219   3.923   2.476   5.170 -1.4282  1.2699  0.1218
 9602TIP3   OH250220   0.606   3.198  12.083  0.0096 -0.0787  0.7017
 9602TIP3    H150221   0.660   3.250  12.143 -0.1286  1.1864 -0.2384
 9602TIP3    H250222   0.525   3.248  12.073 -0.6796 -1.1374  0.7986
 9603TIP3   OH250223   5.273   0.337  10.553 -0.1951  0.2835  0.1475
 9603TIP3    H150224   5.316   0.394  10.617  3.2108 -1.8641  0.0261
 9603TIP3    H250225   5.300   0.372  10.468 -0.6361  0.2573 -0.0065
 9604TIP3   OH250226   1.951   1.926  16.433 -0.1197  0.1103  0.1691
 9604TIP3    H150227   1.883   1.915  16.366 -0.3837  1.4637  0.1872
 9604TIP3    H250228   2.019   1.864  16.408  0.1401  1.1317 -1.8365
 9605TIP3   OH250229   2.874   3.731  11.980  0.1738  0.7577 -0.4162
 9605TIP3    H150230   2.937   3.779  12.033 -0.4524  0.2507  0.8073
 9605TIP3    H250231   2.927   3.670  11.928  0.7930  1.3115 -0.4526
 9606TIP3   OH250232   4.412   1.423   3.149 -0.0161  0.2256  0.6049
 9606TIP3    H150233   4.507   1.414   3.147 -0.0394 -0.0971  0.8874
 9606TIP3    H250234   4.384   1.370   3.224 -0.6266 -1.7861 -0.9338
 9607TIP3   OH250235   1.592   1.201   5.593  0.3409 -0.2196  0.2721
 9607TIP3    H150236   1.507   1.165   5.617 -0.2476  1.5917  1.0746
 9607TIP3    H250237   1.578   1.239   5.506  0.1672  0.5496  0.6300
 9608TIP3   OH250238   3.218   0.308  11.776  0.0926  0.2167  0.3296
 9608TIP3    H150239   3.232   0.275  11.687 -0.3919 -1.3988  0.8191
 9608TIP3    H250240   3.213   0.403  11.765  3.1915  0.3492 -0.9326
 9609TIP3   OH250241   0.115   6.130   1.971 -0.3283 -0.0790  0.0533
 9609TIP3    H150242   0.181   6.074   1.930 -0.3944  0.7214 -1.1964
 9609TIP3    H250243   0.131   6.121   2.064 -0.4918 -2.3690 -0.0597
 9610TIP3   OH250244   4.790   4.026   1.828  0.4127  0.3694 -0.1926
 9610TIP3    H150245   4.788   3.937   1.865  1.2872 -0.5443 -2.1609
 9610TIP3    H250246   4.739   4.079   1.889 -0.0333 -1.4579  1.1116
 9611TIP3   OH250247   3.306   4.610  11.389 -0.5861 -0.0922 -0.4311
 9611TIP3    H150248   3.320   4.703  11.406 -0.7106 -0.3579  1.3313
 9611TIP3    H250249   3.383   4.567  11.425  0.8366 -0.5531 -3.6746
 9612TIP3   OH250250   0.924   5.425   3.922  0.0451 -0.5008 -0.3889
 9612TIP3    H150251   1.002   5.407   3.975 -0.3590  1.2670  0.8669
 9612TIP3    H250252   0.859   5.362   3.954  0.1672 -0.2459  0.3766
 9613TIP3   OH250253   5.695   6.780   0.205  0.0326 -0.0988 -0.0011
 9613TIP3    H150254   5.772   6.829   0.233 -0.4773  0.6748  0.0586
 9613TIP3    H250255   5.731   6.705   0.156  0.8399 -0.0985  0.5658
 9614TIP3   OH250256   6.773   4.334   2.397 -0.4041  0.1267  0.3863
 9614TIP3    H150257   6.782   4.400   2.329 -0.8779 -1.2167 -1.0422
 9614TIP3    H250258   6.680   4.336   2.420 -0.7738 -1.0897 -0.8363
 9615TIP3   OH250259   0.110   5.979   5.039  0.0765  0.1140 -0.2476
 9615TIP3    H150260   0.118   5.986   5.134  0.2053  3.0616 -0.4011
 9615TIP3    H250261   0.194   5.944   5.010  0.7331  0.9167  0.6107
 9616TIP3   OH250262   5.541   3.596  16.228 -0.2707  0.1466  0.3117
 9616TIP3    H150263   5.510   3.592  16.318  0.9842  0.6306  0.7778
 9616TIP3    H250264   5.463   3.576  16.175 -0.7016 -1.5643  1.5220
 9617TIP3   OH250265   4.896   4.632  13.128 -0.7390 -0.0911 -0.2005
 9617TIP3    H150266   4.866   4.569  13.194  0.6440 -0.8893 -0.2954
 9617TIP3    H250267   4.928   4.706  13.179  1.5155 -1.2282  0.1499
 9618TIP3   OH250268   0.845   2.438   1.073 -0.4998 -0.1418  0.8187
 9618TIP3    H150269   0.932   2.468   1.047 -0.3477 -1.0923  0.1820
 9618TIP3    H250270   0.793   2.446   0.993 -1.0134  0.4515  1.2032
 9619TIP3   OH250271   2.579   5.830  10.774 -0.4013 -0.2455  0.4360
 9619TIP3    H150272   2.654   5.781  10.810  1.4532 -1.1130 -3.9960
 9619TIP3    H250273   2.508   5.766  10.770  0.8655 -1.6318 -1.8052
 9620TIP3   OH250274   1.811   5.260  17.094 -1.0771  0.0321 -0.4914
 9620TIP3    H150275   1.790   5.288  17.005  0.7587 -0.8327 -1.2413
 9620TIP3    H250276   1.879   5.321  17.123  0.1972 -1.2403 -0.6990
 9621TIP3   OH250277   4.534   3.031  11.776  0.0068 -0.8871 -0.1913
 9621TIP3    H150278   4.487   3.068  11.702  0.9056 -1.2904 -0.9816
 9621TIP3    H250279   4.467   2.983  11.825 -1.1766  1.6200  0.8233
 9622TIP3   OH250280   0.715   6.524   5.500  0.5870 -0.1339 -0.3186
 9622TIP3    H150281   0.645   6.576   5.461  1.0987  0.7863 -0.0378
 9622TIP3    H250282   0.783   6.587   5.523  0.1473 -0.5409  2.4642
 9623TIP3   OH250283   4.278   3.403  11.348  0.2901  0.2019 -0.8119
 9623TIP3    H150284   4.227   3.458  11.407  0.0149 -1.0329  0.1495
 9623TIP3    H250285   4.362   3.392  11.392  0.0189 -0.8722 -0.5290
 9624TIP3   OH250286   1.840   6.292  16.839 -0.0163  0.5341  0.2110
 9624TIP3    H150287   1.930   6.310  16.810 -0.4542 -0.2807 -1.8214
 9624TIP3    H250288   1.822   6.360  16.904  1.5948  1.5626 -0.3466
 9625TIP3   OH250289   2.260   4.567  16.522  0.6681 -0.1226 -0.1221
 9625TIP3    H150290   2.297   4.526  16.444 -0.4237  0.6338 -1.0721
 9625TIP3    H250291   2.205   4.499  16.561 -1.2160  0.3781 -1.7488
 9626TIP3   OH250292   4.743   5.325   6.042  0.6741 -0.7123  0.0508
 9626TIP3    H150293   4.730   5.236   6.009 -0.5015 -0.4788 -0.1879
 9626TIP3    H250294   4.693   5.328   6.124  0.4648 -0.2070 -0.0840
 9627TIP3   OH250295   0.896   5.035  12.461 -0.1347 -0.4789  0.1353
 9627TIP3    H150296   0.901   5.117  12.412 -2.1281 -0.6009 -0.3607
 9627TIP3    H250297   0.871   4.970  12.396 -0.8908 -1.0246  0.9569
 9628TIP3   OH250298   4.635   2.997   5.369  0.3411  0.1424 -0.3077
 9628TIP3    H150299   4.653   2.921   5.314  0.4237 -0.2491  0.2442
 9628TIP3    H250300   4.721   3.027   5.398  0.2511 -0.3542  0.5176
 9629TIP3   OH250301   2.607   3.317  12.428 -0.7615  0.0150 -0.2525
 9629TIP3    H150302   2.557   3.236  12.432 -0.2383 -0.2759  1.2777
 9629TIP3    H250303   2.567   3.368  12.358 -0.4788 -1.9585 -1.9336
 9630TIP3   OH250304   5.856   0.806  12.369 -0.0614 -0.0603  0.1369
 9630TIP3    H150305   5.933   0.856  12.342  0.4034 -0.4574  0.7040
 9630TIP3    H250306   5.846   0.738  12.303 -0.8902  0.9610 -0.8207
 9631TIP3   OH250307   0.715   3.147  14.900 -0.5616 -0.5601 -0.7059
 9631TIP3    H150308   0.763   3.065  14.891  0.3567 -0.0486 -0.6085
 9631TIP3    H250309   0.739   3.180  14.987 -1.4000 -0.4821 -0.4914
 9632TIP3   OH250310   0.273   4.540  13.618  0.0558  0.1713 -0.4996
 9632TIP3    H150311   0.282   4.588  13.536 -0.8663  0.3579 -0.5029
 9632TIP3    H250312   0.362   4.515  13.641  0.1843 -1.6607 -2.6244
 9633TIP3   OH250313   4.565   2.592   2.414 -0.0470 -0.0682 -0.2118
 9633TIP3    H150314   4.652   2.609   2.380  0.4335  0.2725  1.1300
 9633TIP3    H250315   4.506   2.633   2.351  0.8804  2.0398  0.2094
 9634TIP3   OH250316   5.268   0.833   3.458 -0.3690  0.6941  0.4802
 9634TIP3    H150317   5.262   0.780   3.379 -2.5414 -0.8297  1.5537
 9634TIP3    H250318   5.351   0.806   3.498 -0.8297 -1.0423  0.3669
 9635TIP3   OH250319   2.294   4.986  14.091  0.3974 -0.4487  0.3908
 9635TIP3    H150320   2.377   4.984  14.138  0.4933  1.0306  0.3428
 9635TIP3    H250321   2.268   4.894  14.082  1.7538 -0.8914  0.8732
 9636TIP3   OH250322   3.271   2.574  12.827  0.6480  0.2895  0.2520
 9636TIP3    H150323   3.367   2.570  12.826  0.6846 -0.4193  2.1172
 9636TIP3    H250324   3.249   2.584  12.920 -1.0904  0.7124 -0.1755
 9637TIP3   OH250325   6.454   5.911  15.104  0.6117  0.0286  0.1483
 9637TIP3    H150326   6.486   5.974  15.040 -2.9950  1.0085 -0.9318
 9637TIP3    H250327   6.382   5.867  15.060 -1.0962 -0.2826  3.0173
 9638TIP3   OH250328   6.572   4.992  11.188  0.2796 -0.3546 -0.2338
 9638TIP3    H150329   6.599   4.913  11.236 -1.6605  0.9524  3.3687
 9638TIP3    H250330   6.632   5.060  11.218  0.7270 -0.0051 -1.8418
 9639TIP3   OH250331   0.551   5.487  13.233  0.2975 -0.3927 -0.0995
 9639TIP3    H150332   0.635   5.474  13.278 -0.2312 -0.6588  0.8301
 9639TIP3    H250333   0.537   5.582  13.238 -1.0116 -0.6495  2.6883
 9640TIP3   OH250334   3.992   2.831  16.695  0.2923 -1.0552 -0.4936
 9640TIP3    H150335   4.076   2.817  16.651  0.2710 -2.6591 -0.0843
 9640TIP3    H250336   3.942   2.885  16.634  1.7890  0.3935 -0.5104
 9641TIP3   OH250337   3.751   2.414  17.065  0.0339 -0.0258 -0.0959
 9641TIP3    H150338   3.798   2.448  16.988  0.6128  0.5681  0.5019
 9641TIP3    H250339   3.719   2.493  17.109  3.0735 -0.0414  2.4004
 9642TIP3   OH250340   6.138   2.890  16.947 -0.4223  1.3098  0.2099
 9642TIP3    H150341   6.214   2.841  16.980 -1.2570 -0.2228 -0.0554
 9642TIP3    H250342   6.166   2.923  16.862  0.0910  1.1009  0.2940
 9643TIP3   OH250343   6.631   6.547  16.530 -0.4499  0.7974 -0.6786
 9643TIP3    H150344   6.652   6.468  16.481 -1.7530 -0.6540  0.9479
 9643TIP3    H250345   6.539   6.565  16.510 -0.4665  1.2586 -0.2243
 9644TIP3   OH250346   0.744   0.422  14.516  0.2143  0.4414  1.2905
 9644TIP3    H150347   0.718   0.514  14.507 -1.1200 -0.1174 -1.8399
 9644TIP3    H250348   0.835   0.420  14.487 -0.4600  0.4955 -0.9708
 9645TIP3   OH250349   3.478   5.213   0.220 -0.1290 -0.2590 -0.6889
 9645TIP3    H150350   3.538   5.275   0.180  0.8235 -1.2254 -0.7907
 9645TIP3    H250351   3.391   5.252   0.208  0.1321 -0.3825 -3.4339
 9646TIP3   OH250352   1.575   1.805   3.037  0.0881 -0.4829  0.5088
 9646TIP3    H150353   1.652   1.832   3.087 -1.6120 -0.1725  3.0924
 9646TIP3    H250354   1.553   1.718   3.071 -1.5678  0.0626  0.9330
 9647TIP3   OH250355   2.657   2.418   4.677  0.3180  0.1186 -0.5341
 9647TIP3    H150356   2.692   2.507   4.667  0.8402 -0.2897 -2.7172
 9647TIP3    H250357   2.588   2.412   4.612 -0.9151 -0.5452  0.7888
 9648TIP3   OH250358   6.429   3.767   1.138  0.1619 -0.6922  0.0865
 9648TIP3    H150359   6.410   3.861   1.144  2.5421 -0.1496  0.3695
 9648TIP3    H250360   6.356   3.731   1.089 -0.6141  1.3878 -0.4206
 9649TIP3   OH250361   6.116   0.648   2.745 -0.0225  0.3945 -0.1589
 9649TIP3    H150362   6.083   0.582   2.684  1.3476 -1.7809  1.3016
 9649TIP3    H250363   6.205   0.666   2.715  0.5401 -0.4430  0.9577
 9650TIP3   OH250364   4.013   5.757  16.006 -0.1821  0.4951  0.1830
 9650TIP3    H150365   3.935   5.780  16.057 -0.6778 -1.4754  0.4079
 9650TIP3    H250366   4.051   5.682  16.052  0.9885  0.4725 -0.7744
 9651TIP3   OH250367   1.755   5.251  11.607 -0.0072 -0.4884 -0.0278
 9651TIP3    H150368   1.740   5.159  11.627 -0.7453 -0.4450 -0.3709
 9651TIP3    H250369   1.742   5.258  11.513  0.9547 -0.2016 -0.1502
 9652TIP3   OH250370   4.125   4.268   2.359 -0.3006 -0.0333 -0.2430
 9652TIP3    H150371   4.094   4.330   2.424  0.5958  0.8428 -0.6141
 9652TIP3    H250372   4.186   4.212   2.406  0.3957  0.6402 -0.3226
 9653TIP3   OH250373   5.218   0.809  17.105 -0.0547  0.0077 -0.8658
 9653TIP3    H150374   5.271   0.752  17.161 -1.5561 -0.7646 -0.1765
 9653TIP3    H250375   5.253   0.795  17.017  0.3293 -1.1384 -0.5532
 9654TIP3   OH250376   6.501   2.880   4.542  0.2557  0.0391 -0.3002
 9654TIP3    H150377   6.588   2.910   4.517 -0.3854  1.3032 -1.1261
 9654TIP3    H250378   6.478   2.934   4.618 -0.5416  1.0606 -1.2371
 9655TIP3   OH250379   3.264   0.037   1.626  0.3672 -0.0737 -0.4379
 9655TIP3    H150380   3.217  -0.038   1.664  0.9535  0.5459  1.6886
 9655TIP3    H250381   3.197   0.084   1.576 -0.2177 -1.5127 -1.0662
 9656TIP3   OH250382   2.859   4.194  15.159 -0.0001 -0.0683  0.3265
 9656TIP3    H150383   2.935   4.147  15.195 -1.1439 -0.3715  2.5801
 9656TIP3    H250384   2.793   4.125  15.146 -1.4374  0.6594  2.9509
 9657TIP3   OH250385   5.500   3.065   5.304  0.3178 -0.0324  0.2181
 9657TIP3    H150386   5.570   3.049   5.242 -0.2123 -0.0575 -0.3898
 9657TIP3    H250387   5.539   3.120   5.372  0.6963  0.6644 -0.5521
 9658TIP3   OH250388   0.967   6.328  13.082 -0.0645 -0.1142  0.2730
 9658TIP3    H150389   0.973   6.277  13.163  0.1824 -0.6417 -0.0668
 9658TIP3    H250390   1.057   6.357  13.066 -0.2165  0.4982  0.5008
 9659TIP3   OH250391   0.355   4.280   2.214 -0.1655  0.3572  0.2953
 9659TIP3    H150392   0.345   4.312   2.303  0.3777 -0.6413  0.7314
 9659TIP3    H250393   0.450   4.278   2.200  0.2181 -4.5117  1.6716
 9660TIP3   OH250394   2.031   1.104   5.170  0.2265 -0.0650  1.0540
 9660TIP3    H150395   2.061   1.079   5.083 -1.4654  1.9308 -0.1865
 9660TIP3    H250396   1.975   1.032   5.198 -0.3468 -0.1043 -0.1393
 9661TIP3   OH250397   0.547   1.261   3.913 -0.2023  0.7416  0.1862
 9661TIP3    H150398   0.610   1.209   3.863 -0.3063  0.9234 -0.1404
 9661TIP3    H250399   0.501   1.197   3.968 -0.5178  0.4470 -0.4098
 9662TIP3   OH250400   5.918   1.034  14.905  0.4498  0.1916  0.2548
 9662TIP3    H150401   5.885   1.113  14.948  0.8478  0.0444  0.8412
 9662TIP3    H250402   5.870   0.962  14.946 -0.1368  0.1473 -0.4989
 9663TIP3   OH250403   3.846   0.257  13.063 -0.0877 -0.0246 -0.1007
 9663TIP3    H150404   3.903   0.253  13.139  1.5001  0.8195 -1.1894
 9663TIP3    H250405   3.898   0.220  12.992 -1.0573  0.3550 -1.0391
 9664TIP3   OH250406   4.601   1.003   5.740 -0.3706 -0.1151  0.3073
 9664TIP3    H150407   4.589   1.083   5.792 -0.6224 -0.0095  0.0894
 9664TIP3    H250408   4.689   1.012   5.703 -0.7322  0.5038 -0.4545
 9665TIP3   OH250409   0.451   6.082   5.552  0.0223  0.3499 -0.1244
 9665TIP3    H150410   0.466   6.114   5.463 -0.7218 -0.5395 -0.5856
 9665TIP3    H250411   0.459   5.987   5.545  1.5390  0.3430  1.0899
 9666TIP3   OH250412   3.824   0.612  14.395 -0.1271 -0.5184  0.0631
 9666TIP3    H150413   3.859   0.538  14.345  1.4363  1.5625 -2.1640
 9666TIP3    H250414   3.799   0.677  14.328  2.5558  2.6712  1.8613
 9667TIP3   OH250415   1.970   2.422   6.234 -0.5115 -0.5706 -0.0069
 9667TIP3    H150416   2.032   2.356   6.202 -2.0347 -0.5465 -3.3844
 9667TIP3    H250417   1.895   2.371   6.265  0.6357 -0.5510  3.1333
 9668TIP3   OH250418   5.963   2.552   1.631  0.2009 -0.2637  0.0915
 9668TIP3    H150419   5.916   2.628   1.666 -2.3390 -1.6352 -0.1027
 9668TIP3    H250420   5.961   2.564   1.536  1.1080  0.1093  0.1061
 9669TIP3   OH250421   1.658   3.853  15.656  0.1295  0.6519  0.9212
 9669TIP3    H150422   1.599   3.911  15.607  0.2297  1.4129  1.6652
 9669TIP3    H250423   1.741   3.859  15.610  0.1806  1.2377  1.0758
 9670TIP3   OH250424   1.052   3.416  14.202 -0.4608 -0.8488  0.1257
 9670TIP3    H150425   1.133   3.383  14.165 -0.6776 -1.4536  0.1830
 9670TIP3    H250426   1.079   3.489  14.259 -0.1237  0.1501 -1.2520
 9671TIP3   OH250427   1.028   5.880   6.572  0.2592  1.1627  0.0870
 9671TIP3    H150428   1.066   5.832   6.646 -2.0918  0.3253  0.8365
 9671TIP3    H250429   0.967   5.942   6.612 -2.4196 -0.5327 -1.1046
 9672TIP3   OH250430   0.614   6.598   4.709  0.2146  0.7453 -0.1813
 9672TIP3    H150431   0.707   6.578   4.721  0.7562  2.5567 -0.8831
 9672TIP3    H250432   0.613   6.657   4.634 -1.7477 -0.8025 -1.4484
 9673TIP3   OH250433   0.506   4.278   0.336  0.5389  0.0899  0.4860
 9673TIP3    H150434   0.464   4.311   0.256  1.7923  0.4263 -0.0570
 9673TIP3    H250435   0.594   4.315   0.333  2.3047 -3.6998 -0.4537
 9674TIP3   OH250436   4.486   3.328   4.303  0.0472 -0.3174 -0.0817
 9674TIP3    H150437   4.550   3.349   4.371 -0.3245  1.5760 -0.2622
 9674TIP3    H250438   4.403   3.360   4.338 -0.0950  1.0039 -1.5285
 9675TIP3   OH250439   2.276   2.821  15.225  0.4744  0.0415 -0.8274
 9675TIP3    H150440   2.208   2.875  15.184 -2.8277 -2.7294  0.4898
 9675TIP3    H250441   2.259   2.829  15.319 -0.3786 -3.2675 -0.5693
 9676TIP3   OH250442   6.341   3.812   3.181 -0.5506  0.2660  0.7886
 9676TIP3    H150443   6.355   3.893   3.131 -0.4081 -0.5934 -0.6389
 9676TIP3    H250444   6.254   3.823   3.219 -0.3067  1.3179  1.0847
 9677TIP3   OH250445   2.886   3.219   2.969 -0.2813  0.2819  0.1760
 9677TIP3    H150446   2.925   3.170   3.042 -1.4645 -1.3076 -0.2197
 9677TIP3    H250447   2.815   3.268   3.009 -1.3006 -1.0331  0.0493
 9678TIP3   OH250448   2.616   4.893   4.146  0.3647  0.7346 -0.5549
 9678TIP3    H150449   2.606   4.807   4.186  2.3036  1.0781  0.8296
 9678TIP3    H250450   2.544   4.899   4.084 -1.0679 -1.0256  0.8124
 9679TIP3   OH250451   3.501   4.741   4.831 -0.7744 -0.2962  0.1823
 9679TIP3    H150452   3.433   4.808   4.832 -1.2648 -0.7827 -0.1138
 9679TIP3    H250453   3.498   4.704   4.743 -0.1942 -0.3961  0.1993
 9680TIP3   OH250454   5.955   5.479   0.106  0.4437 -0.5475 -0.0049
 9680TIP3    H150455   5.878   5.533   0.086  0.8079 -0.1386 -0.3101
 9680TIP3    H250456   5.949   5.464   0.201  0.8195  0.7840  0.2463
 9681TIP3   OH250457   5.902   1.628   2.164  0.4163 -0.2636 -0.4999
 9681TIP3    H150458   5.961   1.598   2.233 -0.6462 -1.0494  0.0920
 9681TIP3    H250459   5.896   1.553   2.104 -0.7783 -0.5838 -0.0046
 9682TIP3   OH250460   5.057   5.121   1.714 -0.6495 -0.1669  0.1659
 9682TIP3    H150461   4.962   5.118   1.708 -0.7324  0.9035  0.7152
 9682TIP3    H250462   5.075   5.154   1.802  0.1945  0.7229 -0.3240
 9683TIP3   OH250463   1.095   2.086   3.686 -0.8444 -0.5171 -0.3023
 9683TIP3    H150464   1.052   2.026   3.625 -0.3757 -0.2980 -0.8577
 9683TIP3    H250465   1.126   2.158   3.631 -1.3167  0.1901  0.3416
 9684TIP3   OH250466   5.989   5.625  13.662 -0.3152 -0.0961 -0.3531
 9684TIP3    H150467   5.980   5.665  13.748 -1.5563  0.5370 -0.7566
 9684TIP3    H250468   6.052   5.681  13.616 -1.6681  1.1681 -0.7474
 9685TIP3   OH250469   0.825   0.217  14.063 -0.3154 -0.0397  0.0104
 9685TIP3    H150470   0.903   0.272  14.061 -0.9677  0.8991 -0.0239
 9685TIP3    H250471   0.754   0.274  14.035 -1.3691 -0.2959  1.9285
 9686TIP3   OH250472   2.386   0.257  11.392  0.4750  0.3114 -0.0269
 9686TIP3    H150473   2.391   0.241  11.486 -0.8772 -0.3494 -0.0393
 9686TIP3    H250474   2.299   0.225  11.367  0.9784  0.0902 -1.5762
 9687TIP3   OH250475   3.468   1.016   1.563  0.5744  0.2031 -0.3623
 9687TIP3    H150476   3.437   0.984   1.648 -0.8318 -0.0851 -0.9484
 9687TIP3    H250477   3.431   1.104   1.557  1.6982  0.6952 -0.1600
 9688TIP3   OH250478   3.313   6.026   5.076 -0.7019 -0.4480 -0.5970
 9688TIP3    H150479   3.328   6.110   5.033 -0.5052  1.1050  2.2192
 9688TIP3    H250480   3.401   5.989   5.087 -0.3921  0.6697  1.1222
 9689TIP3   OH250481   6.667   2.385  12.619  0.3419  0.1418  0.2688
 9689TIP3    H150482   6.577   2.386  12.653  0.4766  0.8851  0.6185
 9689TIP3    H250483   6.657   2.360  12.527 -0.2865  0.7718  0.1537
 9690TIP3   OH250484   0.517   6.645   5.999  0.2311 -0.2907 -0.0985
 9690TIP3    H150485   0.481   6.703   6.066 -0.3043 -0.5332 -0.1700
 9690TIP3    H250486   0.487   6.558   6.024 -0.4323 -0.3202 -0.9404
 9691TIP3   OH250487   4.807   3.307   0.436  0.4796  0.0670  0.2056
 9691TIP3    H150488   4.801   3.376   0.371 -1.0557  0.0929  0.3210
 9691TIP3    H250489   4.884   3.328   0.488 -0.4398  2.2093  0.7932
 9692TIP3   OH250490   2.357   4.067  11.868 -0.6060 -0.4521 -0.2088
 9692TIP3    H150491   2.381   4.054  11.777 -1.0601  0.1298 -0.4142
 9692TIP3    H250492   2.334   3.979  11.899  0.5144 -0.8129 -0.3611
 9693TIP3   OH250493   5.218   2.346   1.945  0.2626  0.7665 -0.2568
 9693TIP3    H150494   5.155   2.409   1.980 -0.4681 -0.5710  0.9431
 9693TIP3    H250495   5.301   2.393   1.945  0.6398  0.6146  4.5863
 9694TIP3   OH250496   3.834   4.368  10.416 -0.2550  0.5577 -0.5697
 9694TIP3    H150497   3.828   4.462  10.434  1.0970  0.6532 -0.5401
 9694TIP3    H250498   3.757   4.331  10.459 -0.7789  1.6412 -0.5416
 9695TIP3   OH250499   0.704   3.771   2.380 -0.8037  0.1486 -0.4232
 9695TIP3    H150500   0.746   3.823   2.312 -2.3025 -0.9571 -2.3173
 9695TIP3    H250501   0.621   3.816   2.396 -1.8927 -1.3062 -1.7264
 9696TIP3   OH250502   2.144   0.070   2.231 -0.7035 -0.2732  0.2009
 9696TIP3    H150503   2.239   0.068   2.246 -0.4010  0.6542 -1.3446
 9696TIP3    H250504   2.109   0.007   2.294  1.0147 -1.1923  0.3172
 9697TIP3   OH250505   5.309   6.213  12.639  0.1072  0.6898 -0.1066
 9697TIP3    H150506   5.262   6.220  12.722 -0.3514 -1.1923 -0.1573
 9697TIP3    H250507   5.330   6.120  12.631  2.8530  1.2685 -0.6477
 9698TIP3   OH250508   4.124   5.994  15.682 -0.4894 -0.2708  0.7970
 9698TIP3    H150509   4.035   5.963  15.664 -0.8693 -0.7548  3.2159
 9698TIP3    H250510   4.177   5.959  15.610 -2.1073 -0.6544 -0.2468
 9699TIP3   OH250511   0.813   1.299  15.929 -0.0878 -0.4379  0.1146
 9699TIP3    H150512   0.753   1.324  15.859  0.3308  0.6183  0.1090
 9699TIP3    H250513   0.900   1.321  15.895  0.1584 -0.3920  0.7603
 9700TIP3   OH250514   6.225   4.070   4.019  0.3734  0.3138 -0.1739
 9700TIP3    H150515   6.149   4.096   4.072  0.1943 -0.5642  0.0129
 9700TIP3    H250516   6.298   4.068   4.082  0.0738 -1.1739  0.1692
 9701TIP3   OH250517   5.214   5.576  12.572 -0.4306  0.4070  0.0012
 9701TIP3    H150518   5.298   5.620  12.585 -1.6498  2.7497  0.7006
 9701TIP3    H250519   5.202   5.523  12.650  1.2494 -1.6362 -1.0243
 9702TIP3   OH250520   5.594   5.876  12.602  0.1928  0.0279  0.2555
 9702TIP3    H150521   5.625   5.961  12.634 -2.6234  0.9953  0.7385
 9702TIP3    H250522   5.662   5.847  12.541  1.9700  1.8843  1.2218
 9703TIP3   OH250523   4.519   5.680  14.019  0.3873 -0.2728 -0.2922
 9703TIP3    H150524   4.582   5.676  13.948 -0.0330  0.2687 -0.7075
 9703TIP3    H250525   4.498   5.773  14.027 -0.9162 -0.5063 -0.6799
 9704TIP3   OH250526   6.071   0.109   4.349 -0.4671  0.1044  0.1477
 9704TIP3    H150527   6.019   0.066   4.416 -1.6324  1.8802  0.4555
 9704TIP3    H250528   6.052   0.202   4.360 -0.2462  0.5019 -2.2700
 9705TIP3   OH250529   1.010   3.680  14.907  0.3288 -0.5047  0.0825
 9705TIP3    H150530   1.069   3.605  14.912  1.8917  0.4149 -2.4625
 9705TIP3    H250531   1.051   3.738  14.842 -1.3987  2.0305  1.1233
 9706TIP3   OH250532   0.466   0.666  10.861 -0.0754 -0.2078  0.2607
 9706TIP3    H150533   0.459   0.629  10.773 -1.2754  0.9050 -0.1357
 9706TIP3    H250534   0.555   0.645  10.889 -0.1165 -1.7641 -0.6566
 9707TIP3   OH250535   5.880   6.657   0.915 -0.0270  0.3110  0.2858
 9707TIP3    H150536   5.951   6.720   0.916 -0.8377  1.2517 -0.0628
 9707TIP3    H250537   5.828   6.679   0.837 -1.6052  0.6882  1.3944
 9708TIP3   OH250538   2.351   6.231  12.358  0.5981 -0.5572 -0.2558
 9708TIP3    H150539   2.277   6.287  12.334  0.1161 -1.0344  0.0937
 9708TIP3    H250540   2.345   6.223  12.453  0.0698 -2.0032 -0.3889
 9709TIP3   OH250541   5.274   3.075   4.212  0.5203  0.9384  0.3241
 9709TIP3    H150542   5.234   3.085   4.126  1.8817  2.7228 -0.1452
 9709TIP3    H250543   5.324   3.155   4.225  2.2540 -0.3075  1.7839
 9710TIP3   OH250544   3.053   6.172  16.251 -0.1253  0.8350  0.0232
 9710TIP3    H150545   3.092   6.220  16.324  0.8077  0.3098 -0.1116
 9710TIP3    H250546   2.984   6.229  16.218  0.2999  1.6304  0.5017
 9711TIP3   OH250547   0.683   3.250   4.303 -0.2028  0.3614  0.7291
 9711TIP3    H150548   0.593   3.282   4.292 -2.2229 -3.9718  2.4420
 9711TIP3    H250549   0.691   3.231   4.396  1.9434 -0.8696  0.3614
 9712TIP3   OH250550   3.025   5.709   6.628  0.2634 -0.4753  0.0884
 9712TIP3    H150551   3.096   5.718   6.564  1.5478 -1.1982  1.3553
 9712TIP3    H250552   3.031   5.787   6.682 -0.6356 -0.0034 -0.4825
 9713TIP3   OH250553   1.295   3.984   2.676  0.0442 -0.7447 -0.5801
 9713TIP3    H150554   1.224   4.009   2.735  0.8609  0.2616  0.0030
 9713TIP3    H250555   1.323   3.897   2.706 -0.0576 -0.5697  0.0168
 9714TIP3   OH250556   6.577   1.413  17.051 -0.2333 -0.6207 -0.5611
 9714TIP3    H150557   6.499   1.376  17.093 -1.1075  3.0220  1.4924
 9714TIP3    H250558   6.644   1.411  17.120  0.3544 -0.4312 -1.1230
 9715TIP3   OH250559   6.067   0.477  10.991  0.2589 -0.2003  0.2836
 9715TIP3    H150560   6.058   0.423  10.912  1.4905 -2.1303  1.3505
 9715TIP3    H250561   6.161   0.474  11.011 -0.0679 -0.1223  2.0224
 9716TIP3   OH250562   3.877   1.109   3.081 -0.0076 -0.0419  0.2282
 9716TIP3    H150563   3.895   1.029   3.033  0.1566  0.5598 -0.7346
 9716TIP3    H250564   3.947   1.115   3.146  0.3857 -0.3080 -0.1703
 9717TIP3   OH250565   0.749   4.736  14.927 -0.2806 -0.2408 -0.6399
 9717TIP3    H150566   0.821   4.674  14.943  1.6894  1.8266 -0.9747
 9717TIP3    H250567   0.726   4.725  14.835 -0.1326 -0.6569 -0.6261
 9718TIP3   OH250568   1.801   5.400   1.569 -0.1812  0.1566 -0.6341
 9718TIP3    H150569   1.839   5.442   1.493  1.6693 -1.2786 -0.5651
 9718TIP3    H250570   1.718   5.364   1.537  0.9752 -1.2290 -2.2831
 9719TIP3   OH250571   4.757   3.792  15.789 -0.3564 -0.5473 -0.5957
 9719TIP3    H150572   4.821   3.849  15.832 -2.4807  2.0234 -0.5914
 9719TIP3    H250573   4.810   3.738  15.731  1.8957  1.1282 -0.2749
 9720TIP3   OH250574   0.818   3.682   3.144 -0.1941 -0.5300  0.1733
 9720TIP3    H150575   0.785   3.751   3.201  2.0881  1.4536 -0.7285
 9720TIP3    H250576   0.863   3.621   3.203 -0.5271 -0.1839  0.7927
 9721TIP3   OH250577   2.086   4.528   3.915  0.3074  0.0379 -0.0014
 9721TIP3    H150578   2.157   4.577   3.956  0.5021  0.6094 -0.9797
 9721TIP3    H250579   2.041   4.592   3.861 -0.3292 -0.5469 -0.1749
 9722TIP3   OH250580   3.287   4.395   5.305  0.1144 -0.4645  0.0031
 9722TIP3    H150581   3.206   4.346   5.319  0.2490 -0.4895  0.7469
 9722TIP3    H250582   3.259   4.483   5.283 -0.1215 -0.6048 -0.2583
 9723TIP3   OH250583   5.346   4.816   2.566  0.5718 -0.3324  0.1239
 9723TIP3    H150584   5.302   4.836   2.484  0.6367 -0.3307  0.0892
 9723TIP3    H250585   5.395   4.736   2.548  2.8368  1.1427 -0.6975
 9724TIP3   OH250586   3.782   1.701  14.502 -0.1479  0.1803 -0.2886
 9724TIP3    H150587   3.864   1.745  14.481 -0.3056  0.2653 -0.7188
 9724TIP3    H250588   3.724   1.719  14.428  0.2544 -1.9760 -1.2132
 9725TIP3   OH250589   1.368   0.683   0.076  0.3181  0.1317 -0.2518
 9725TIP3    H150590   1.398   0.593   0.060 -0.3367 -0.2673  0.7046
 9725TIP3    H250591   1.390   0.700   0.167  0.4605  0.9594 -0.4342
 9726TIP3   OH250592   1.194   0.012  15.929  0.1241 -0.0576 -0.2134
 9726TIP3    H150593   1.253   0.079  15.964  0.1237 -0.0974 -0.1370
 9726TIP3    H250594   1.202   0.020  15.834  0.3240 -0.1237 -0.2031
 9727TIP3   OH250595   4.910   0.589  11.418 -0.2609  0.1976  0.0905
 9727TIP3    H150596   4.997   0.610  11.453 -0.2643 -0.4016  0.4832
 9727TIP3    H250597   4.851   0.652  11.459 -0.1555 -0.0417  0.6207
 9728TIP3   OH250598   5.855   1.446   4.890  0.8574 -0.2772 -0.3943
 9728TIP3    H150599   5.928   1.486   4.843 -0.2091  0.6973 -1.2895
 9728TIP3    H250600   5.865   1.477   4.980  2.1391 -1.0445 -0.2397
 9729TIP3   OH250601   5.288   1.751  13.656  0.1190  0.3095 -0.3835
 9729TIP3    H150602   5.368   1.698  13.653 -0.8416 -1.2851  0.3590
 9729TIP3    H250603   5.299   1.816  13.587  1.7032 -0.3772 -0.8286
 9730TIP3   OH250604   4.278   4.891  16.241 -0.1815  0.0186  0.2343
 9730TIP3    H150605   4.360   4.856  16.206 -0.7935 -0.9780 -0.2602
 9730TIP3    H250606   4.278   4.864  16.332 -0.0432 -0.1289  0.1908
 9731TIP3   OH250607   6.606   5.375   5.167 -0.6898 -0.0313  0.2199
 9731TIP3    H150608   6.559   5.303   5.209 -1.5054 -0.2672 -1.0095
 9731TIP3    H250609   6.697   5.346   5.164 -0.7973 -0.4573  0.8677
 9732TIP3   OH250610   4.233   3.822  16.547  0.2447 -0.0514  0.1056
 9732TIP3    H150611   4.182   3.821  16.628  1.4415  0.5754  0.9049
 9732TIP3    H250612   4.244   3.915  16.527  0.5082 -0.1934 -0.4265
 9733TIP3   OH250613   0.440   4.831   3.896 -0.7656  0.5140  0.1943
 9733TIP3    H150614   0.368   4.893   3.884  0.2025  1.4531 -1.0897
 9733TIP3    H250615   0.519   4.882   3.874 -0.0206 -1.4519 -2.0521
 9734TIP3   OH250616   0.105   2.846   0.270  0.1978 -0.1457  0.0695
 9734TIP3    H150617   0.028   2.853   0.213 -0.2531  1.9495  0.8483
 9734TIP3    H250618   0.068   2.833   0.358  0.7410  0.5445  0.4073
 9735TIP3   OH250619   2.850   0.676  11.387 -0.5016 -0.5570  0.0551
 9735TIP3    H150620   2.770   0.720  11.417 -0.0471 -0.1026  0.6057
 9735TIP3    H250621   2.876   0.724  11.309 -0.2154 -0.0713  0.4435
 9736TIP3   OH250622   6.406   6.053   3.739  0.6721 -0.1686 -0.0748
 9736TIP3    H150623   6.383   5.989   3.806  1.6223  0.8918  1.3417
 9736TIP3    H250624   6.497   6.075   3.757  0.7265  0.7059 -1.2569
 9737TIP3   OH250625   0.900   2.885  11.948  0.0997 -0.1054  0.2363
 9737TIP3    H150626   0.992   2.868  11.969  0.1721 -0.1670 -0.1242
 9737TIP3    H250627   0.875   2.814  11.889 -0.1999 -0.1233  0.3792
 9738TIP3   OH250628   1.654   5.521  12.109 -0.3183  1.0347  0.0803
 9738TIP3    H150629   1.694   5.493  12.192 -4.3246  0.7422  2.1931
 9738TIP3    H250630   1.644   5.440  12.059  1.5711  1.1229 -0.5172
 9739TIP3   OH250631   1.772   3.463  15.470  0.6227 -0.1797 -0.2970
 9739TIP3    H150632   1.863   3.433  15.464  0.4611 -0.4384 -1.7886
 9739TIP3    H250633   1.772   3.522  15.546  1.8715 -0.7070  0.1473
 9740TIP3   OH250634   6.593   0.123  15.089 -0.0145  0.5418 -0.3243
 9740TIP3    H150635   6.659   0.085  15.032 -0.9315  0.3321 -1.2769
 9740TIP3    H250636   6.522   0.149  15.030 -0.0674  2.3662  0.4570
 9741TIP3   OH250637   2.695   5.722  11.409  0.4833 -0.0278  0.1063
 9741TIP3    H150638   2.704   5.806  11.454  0.2772 -0.0852  0.2529
 9741TIP3    H250639   2.738   5.736  11.324 -1.8012  1.0573 -0.9751
 9742TIP3   OH250640   4.258   1.693   0.572  0.3471 -0.3593 -0.7190
 9742TIP3    H150641   4.297   1.702   0.659  0.9900  0.1802 -1.0594
 9742TIP3    H250642   4.311   1.626   0.530  0.8480  0.2993 -1.1460
 9743TIP3   OH250643   5.314   2.905  14.182 -0.5885 -0.0850  0.2484
 9743TIP3    H150644   5.285   2.989  14.217  1.1647 -0.0032  1.6929
 9743TIP3    H250645   5.234   2.855  14.167 -1.7601  2.1907 -1.7231
 9744TIP3   OH250646   0.216   6.778  11.420  0.0206 -0.3705  0.0460
 9744TIP3    H150647   0.264   6.861  11.421  1.3588 -1.0838 -0.8704
 9744TIP3    H250648   0.205   6.758  11.327 -2.0173 -0.2906  0.2332
 9745TIP3   OH250649   1.754   1.438   0.024 -0.0582  0.0040 -0.3600
 9745TIP3    H150650   1.850   1.431   0.025 -0.0789 -0.2453  0.2876
 9745TIP3    H250651   1.728   1.425   0.115 -0.6422  1.1969 -0.3431
 9746TIP3   OH250652   0.433   6.271  14.050 -0.3049 -0.5248 -0.1217
 9746TIP3    H150653   0.476   6.193  14.085 -0.1846 -0.6235 -0.4870
 9746TIP3    H250654   0.504   6.334  14.035 -0.4119 -0.3112  0.2563
 9747TIP3   OH250655   2.792   1.521   0.025 -0.2220  0.6241  0.5533
 9747TIP3    H150656   2.769   1.432  -0.003  1.0012  0.9946 -1.9175
 9747TIP3    H250657   2.867   1.508   0.084  0.7749  0.0301 -0.7882
 9748TIP3   OH250658   1.520   1.949  16.688  0.0485 -0.0143  0.5950
 9748TIP3    H150659   1.606   1.989  16.678 -0.7019  1.5404  0.0909
 9748TIP3    H250660   1.515   1.925  16.781  0.5675  0.9601  0.8803
 9749TIP3   OH250661   5.425   6.517  10.545  0.2770  0.1606  0.2409
 9749TIP3    H150662   5.454   6.491  10.457 -0.5099 -0.6622  0.2148
 9749TIP3    H250663   5.501   6.501  10.601  0.9169  1.0583 -0.3341
 9750TIP3   OH250664   1.595   3.610  11.334  0.4056 -0.7383  0.0369
 9750TIP3    H150665   1.644   3.568  11.264 -1.1277 -0.2928 -1.3560
 9750TIP3    H250666   1.506   3.579  11.324  0.2448 -1.1669  2.2318
 9751TIP3   OH250667   4.323   4.751   4.213 -0.4160 -0.0119 -0.2613
 9751TIP3    H150668   4.242   4.719   4.173 -0.6123  0.5791 -0.3414
 9751TIP3    H250669   4.324   4.712   4.300 -1.4427  1.0015  0.2220
 9752TIP3   OH250670   4.074   3.342   1.586 -0.3607 -0.1180 -0.5230
 9752TIP3    H150671   3.987   3.304   1.575 -0.3468 -0.4978  0.5764
 9752TIP3    H250672   4.134   3.268   1.574 -0.2051  0.0572 -0.8428
 9753TIP3   OH250673   1.653   0.523  12.345  0.4692 -0.4637  0.2550
 9753TIP3    H150674   1.639   0.600  12.400 -1.3143 -0.8972  0.4917
 9753TIP3    H250675   1.589   0.532  12.275  0.1263 -1.7802  0.3711
 9754TIP3   OH250676   4.795   5.310   2.149 -0.4631  0.4772 -0.4303
 9754TIP3    H150677   4.872   5.344   2.195  0.7202 -0.2323 -1.8195
 9754TIP3    H250678   4.803   5.344   2.060 -2.4235  1.3855 -0.3272
 9755TIP3   OH250679   6.670   5.672   3.147  0.3913 -0.6071  0.2224
 9755TIP3    H150680   6.614   5.697   3.074 -0.4471  1.5542  1.5209
 9755TIP3    H250681   6.715   5.752   3.172  0.5684 -1.2489  2.1453
 9756TIP3   OH250682   3.915   3.060   5.008  0.2444  0.0735  0.3238
 9756TIP3    H150683   3.831   3.103   5.023 -0.6136 -1.6545  0.6755
 9756TIP3    H250684   3.954   3.109   4.935 -1.3269  0.5452 -0.2344
 9757TIP3   OH250685   2.867   3.399  12.051 -0.3224  0.5381 -0.5094
 9757TIP3    H150686   2.833   3.334  12.112 -1.5027  1.3373 -0.2760
 9757TIP3    H250687   2.837   3.369  11.965 -2.0841  1.4567 -0.2664
 9758TIP3   OH250688   2.129   5.332  14.511 -0.1749  0.3737 -1.1339
 9758TIP3    H150689   2.045   5.374  14.492 -0.9423 -1.3501 -1.7573
 9758TIP3    H250690   2.122   5.307  14.603 -0.0238  0.8991 -0.9745
 9759TIP3   OH250691   5.987   1.327  13.465  0.1337 -0.1372 -0.1956
 9759TIP3    H150692   6.006   1.415  13.497 -2.7942  0.3673  0.4065
 9759TIP3    H250693   5.897   1.332  13.432 -0.8943 -3.3483  1.7411
 9760TIP3   OH250694   5.181   0.453  14.062  0.0358  0.6930  0.0431
 9760TIP3    H150695   5.187   0.523  13.997  0.3379 -2.2137 -3.3607
 9760TIP3    H250696   5.266   0.453  14.106 -0.8355  3.9767  2.0982
 9761TIP3   OH250697   2.579   3.494  12.896 -0.6784 -0.0152 -0.4550
 9761TIP3    H150698   2.569   3.459  12.808 -1.1587 -1.1515  0.0183
 9761TIP3    H250699   2.671   3.520  12.902 -0.5203 -0.3978 -1.1288
 9762TIP3   OH250700   2.335   0.397  16.064 -0.6300  0.1030  0.2651
 9762TIP3    H150701   2.405   0.399  15.998 -0.7655 -0.1831  0.1134
 9762TIP3    H250702   2.343   0.481  16.108  0.4140 -0.2919  0.8766
 9763TIP3   OH250703   4.825   0.048   1.847 -0.0253 -0.1248 -0.1831
 9763TIP3    H150704   4.833   0.057   1.942  1.2816  0.0050 -0.2954
 9763TIP3    H250705   4.883  -0.025   1.824 -0.1910 -0.0387 -0.9025
 9764TIP3   OH250706   6.064   2.509   3.931 -0.9587 -0.1561  0.1924
 9764TIP3    H150707   6.006   2.434   3.920  1.0123 -1.7848  0.4256
 9764TIP3    H250708   6.096   2.502   4.020  1.1963 -0.5560 -0.5618
 9765TIP3   OH250709   6.389   5.545  11.505  0.2069 -0.0834  0.0464
 9765TIP3    H150710   6.437   5.464  11.519 -0.1848 -0.7136 -1.9198
 9765TIP3    H250711   6.453   5.614  11.522  1.4451 -0.8790 -1.2071
 9766TIP3   OH250712   3.248   3.808   0.322  0.6382  0.4551 -0.3114
 9766TIP3    H150713   3.299   3.808   0.241 -0.5152  0.2994 -1.0758
 9766TIP3    H250714   3.170   3.757   0.300  1.2186 -1.3509  1.5211
 9767TIP3   OH250715   3.874   1.320   6.684 -0.5199  0.0187  0.1898
 9767TIP3    H150716   3.811   1.358   6.622  0.1157 -0.5966 -0.8679
 9767TIP3    H250717   3.821   1.264   6.741 -1.0839  0.3741  0.0223
 9768TIP3   OH250718   2.065   2.606   5.070 -0.1990 -0.0819 -0.6962
 9768TIP3    H150719   2.097   2.557   5.146 -2.1391  0.6517  0.6723
 9768TIP3    H250720   2.112   2.690   5.075  0.8575 -0.6189 -1.2698
 9769TIP3   OH250721   3.183   5.133   0.158  0.4778  0.2099 -0.4366
 9769TIP3    H150722   3.210   5.225   0.152  2.1113 -0.2836 -1.1955
 9769TIP3    H250723   3.159   5.109   0.068  0.7757 -0.2949 -0.3867
 9770TIP3   OH250724   2.863   4.216   2.150  0.5220  0.1261  0.1518
 9770TIP3    H150725   2.860   4.142   2.089  0.2551  0.5091 -0.3103
 9770TIP3    H250726   2.770   4.234   2.168  0.5643  0.7304 -0.2150
 9771TIP3   OH250727   5.179   3.671   2.710 -0.2479 -0.2503  0.2411
 9771TIP3    H150728   5.238   3.713   2.648  0.1569 -1.0929  0.0455
 9771TIP3    H250729   5.187   3.577   2.692  0.7401 -0.6143  2.3198
 9772TIP3   OH250730   1.754   4.813   1.682 -0.5744  0.5570  0.2243
 9772TIP3    H150731   1.784   4.903   1.696 -0.9490  0.8724 -0.8726
 9772TIP3    H250732   1.689   4.799   1.750 -1.1794  1.4611 -0.1417
 9773TIP3   OH250733   5.508   2.032  11.416 -0.0564  0.7540  0.4408
 9773TIP3    H150734   5.445   1.961  11.426  1.3686 -0.5789  0.4039
 9773TIP3    H250735   5.548   2.041  11.503 -1.2938  2.6354  0.8868
 9774TIP3   OH250736   1.699   1.385  13.373 -0.1066  0.0064  0.0288
 9774TIP3    H150737   1.761   1.451  13.404 -0.5894 -0.2042  1.5358
 9774TIP3    H250738   1.747   1.303  13.376 -0.4177 -0.1449  1.1178
 9775TIP3   OH250739   0.560   1.926   1.662  0.4460  1.2243  0.2876
 9775TIP3    H150740   0.515   1.988   1.604 -1.2573 -0.8255 -0.6865
 9775TIP3    H250741   0.516   1.935   1.746 -1.2218 -0.0664 -0.4040
 9776TIP3   OH250742   0.184   3.982  11.267 -0.4330 -0.6689 -0.1349
 9776TIP3    H150743   0.154   3.900  11.226 -1.4262 -2.5826  3.9094
 9776TIP3    H250744   0.259   3.957  11.319 -1.7210  0.5193  2.4844
 9777TIP3   OH250745   6.583   2.942   3.943 -0.0234 -0.0657  0.1497
 9777TIP3    H150746   6.676   2.959   3.930 -0.0298 -1.2307 -1.7910
 9777TIP3    H250747   6.575   2.925   4.037  2.2623 -2.6520  0.0117
 9778TIP3   OH250748   1.601   4.424   1.280 -0.0237  0.2593  0.5340
 9778TIP3    H150749   1.577   4.393   1.367  1.2383 -0.3447  0.6739
 9778TIP3    H250750   1.569   4.515   1.278 -1.4770 -0.2094  1.0270
 9779TIP3   OH250751   2.884   3.339   1.233 -0.3307  0.2439 -0.7994
 9779TIP3    H150752   2.839   3.300   1.158  1.1876 -2.0208 -0.6488
 9779TIP3    H250753   2.831   3.314   1.308 -0.4041  0.1316 -0.8881
 9780TIP3   OH250754   0.130   2.131   6.309 -0.0612 -0.4072  0.1381
 9780TIP3    H150755   0.072   2.206   6.296 -0.7611 -0.7971  0.9882
 9780TIP3    H250756   0.129   2.115   6.403 -0.7381 -2.1322 -0.1245
 9781TIP3   OH250757   0.660   0.688   5.927 -0.0463  0.1390  0.3659
 9781TIP3    H150758   0.634   0.752   5.993  0.7600 -0.1791  1.0104
 9781TIP3    H250759   0.623   0.605   5.958  0.3702 -0.0193  0.4484
 9782TIP3   OH250760   3.147   6.018   0.922  0.3428 -0.1172  0.5626
 9782TIP3    H150761   3.226   5.970   0.946  0.1621 -2.5589 -2.9586
 9782TIP3    H250762   3.081   5.950   0.909 -1.5854  1.6291  0.8302
 9783TIP3   OH250763   3.170   1.588   1.845  0.3222 -0.6806 -0.3362
 9783TIP3    H150764   3.085   1.575   1.804  0.4248 -2.1800 -0.1238
 9783TIP3    H250765   3.165   1.540   1.928  1.3167 -0.6387 -0.2331
 9784TIP3   OH250766   6.115   3.023  12.656  0.0391  0.2678 -0.9780
 9784TIP3    H150767   6.085   3.026  12.747  2.3877 -0.4962 -0.1137
 9784TIP3    H250768   6.118   2.930  12.634  1.7166  0.2994 -1.0036
 9785TIP3   OH250769   4.469   3.947   3.374  0.4090  0.2338  0.0909
 9785TIP3    H150770   4.524   4.013   3.332  0.6554  0.2929  0.5068
 9785TIP3    H250771   4.384   3.990   3.385 -0.0362 -0.1746 -1.4358
 9786TIP3   OH250772   1.974   4.857  12.012  0.4632 -0.3884 -1.0543
 9786TIP3    H150773   2.059   4.900  12.006  0.3574 -0.2423 -1.5706
 9786TIP3    H250774   1.988   4.770  11.974  0.9425 -1.2496  0.9524
 9787TIP3   OH250775   4.874   6.225  15.278  0.7785  0.4844  0.4618
 9787TIP3    H150776   4.832   6.219  15.364 -0.2883 -2.9447 -0.1254
 9787TIP3    H250777   4.801   6.222  15.216  1.6332  1.0203 -0.6099
 9788TIP3   OH250778   0.440   2.386   3.887  0.3555 -0.6627  0.4125
 9788TIP3    H150779   0.365   2.409   3.942  0.8684 -1.8500  1.6768
 9788TIP3    H250780   0.421   2.425   3.802 -1.1899 -0.0578  1.0066
 9789TIP3   OH250781   3.293   5.437  11.610 -0.1994 -0.1611  0.4140
 9789TIP3    H150782   3.315   5.521  11.570  0.4175 -0.8041 -0.6464
 9789TIP3    H250783   3.326   5.372  11.548 -3.2710 -1.2220 -0.2969
 9790TIP3   OH250784   6.142   5.906   6.192  0.1133  0.1769 -0.4870
 9790TIP3    H150785   6.073   5.844   6.216 -0.9219  0.8486 -1.6575
 9790TIP3    H250786   6.217   5.880   6.247 -0.2721 -2.1044 -0.9422
 9791TIP3   OH250787   4.262   0.513   3.596  0.0372 -0.7182  0.0413
 9791TIP3    H150788   4.237   0.493   3.506 -0.3217 -0.0444 -0.0182
 9791TIP3    H250789   4.207   0.588   3.620 -0.4576 -1.3811  1.0984
 9792TIP3   OH250790   4.963   3.955  13.261  0.4986  0.3603 -0.3977
 9792TIP3    H150791   5.007   3.910  13.190 -1.3180 -1.6496 -0.3529
 9792TIP3    H250792   4.884   3.991  13.222 -0.9000 -1.3889  0.6181
 9793TIP3   OH250793   4.367   5.157  16.690 -1.0413  0.3639  0.3094
 9793TIP3    H150794   4.405   5.213  16.622 -1.2447  0.8111  0.5606
 9793TIP3    H250795   4.277   5.188  16.701 -2.0323 -1.6865 -1.3774
 9794TIP3   OH250796   3.036   1.759  14.746 -0.1182  0.4772 -0.5079
 9794TIP3    H150797   3.000   1.796  14.827  2.3088  0.7020  0.5744
 9794TIP3    H250798   3.058   1.669  14.769  2.6131  1.1545 -0.1302
 9795TIP3   OH250799   2.923   2.900  15.557 -0.0481  0.1017 -0.1563
 9795TIP3    H150800   2.829   2.886  15.547 -0.6561  1.3284  2.6296
 9795TIP3    H250801   2.945   2.965  15.490 -1.1312 -0.3169 -0.9465
 9796TIP3   OH250802   1.568   0.022   3.554  0.3660 -0.0871  0.1112
 9796TIP3    H150803   1.659   0.050   3.563  0.3950 -0.5518  1.5795
 9796TIP3    H250804   1.574  -0.067   3.519  0.3405  0.8790 -2.5499
 9797TIP3   OH250805   4.291   6.783  11.319  0.1671 -0.1859  0.1716
 9797TIP3    H150806   4.196   6.788  11.325  0.1319  0.9984 -0.9872
 9797TIP3    H250807   4.321   6.789  11.410 -0.8563 -0.6843  0.5563
 9798TIP3   OH250808   6.749   4.524   5.508 -0.4588 -0.5844  0.8949
 9798TIP3    H150809   6.801   4.595   5.545 -0.9902 -0.2935  1.0971
 9798TIP3    H250810   6.659   4.558   5.507 -0.5384 -0.7969 -0.1447
 9799TIP3   OH250811   5.344   3.598   0.073  0.1285  0.1867  0.8802
 9799TIP3    H150812   5.372   3.668   0.132 -1.3046  0.8265  0.8438
 9799TIP3    H250813   5.270   3.636   0.025  1.0132 -0.4232 -1.0927
 9800TIP3   OH250814   4.403   2.427  16.241  0.0931 -0.3361  0.7014
 9800TIP3    H150815   4.375   2.391  16.157  1.5722 -0.6498  0.3098
 9800TIP3    H250816   4.369   2.516  16.242  0.2529 -0.2580 -0.3409
 9801TIP3   OH250817   2.726   4.421  15.229 -0.1697 -0.4658  0.1636
 9801TIP3    H150818   2.794   4.355  15.214 -0.0496 -0.2501 -0.2386
 9801TIP3    H250819   2.753   4.463  15.311 -0.5225 -1.2560  0.6972
 9802TIP3   OH250820   2.828   1.594   5.788  0.0632 -0.3900 -0.2291
 9802TIP3    H150821   2.882   1.516   5.797 -0.5709 -0.8410 -0.3104
 9802TIP3    H250822   2.891   1.666   5.781  0.7113 -1.0690 -1.9773
 9803TIP3   OH250823   5.451   3.092  16.170 -0.4281  0.0363 -0.4820
 9803TIP3    H150824   5.378   3.110  16.229  0.0822  1.8187 -0.3461
 9803TIP3    H250825   5.469   3.176  16.128 -0.3828 -1.0378 -2.7637
 9804TIP3   OH250826   2.518   2.824  16.753 -0.2141 -0.4762  0.2195
 9804TIP3    H150827   2.500   2.824  16.847 -1.4335  1.1048  0.0189
 9804TIP3    H250828   2.613   2.831  16.747 -0.0247 -1.7450  1.3179
 9805TIP3   OH250829   6.025   5.098  12.589  0.1090 -0.5158  0.7752
 9805TIP3    H150830   6.005   5.019  12.639  1.1099 -0.5897  1.0877
 9805TIP3    H250831   6.078   5.151  12.648  1.8964 -0.8984 -0.3944
 9806TIP3   OH250832   3.958   2.573  15.870 -0.3404 -0.2572  0.1621
 9806TIP3    H150833   3.880   2.606  15.915 -0.0883 -0.5621  0.8378
 9806TIP3    H250834   3.926   2.502  15.815 -0.6204 -0.0173  0.0088
 9807TIP3   OH250835   4.717   4.377  15.576  0.1106  0.5049 -0.0805
 9807TIP3    H150836   4.661   4.441  15.619  2.6772  2.8057  0.0872
 9807TIP3    H250837   4.678   4.292  15.597 -2.7164  1.9127  0.7463
 9808TIP3   OH250838   4.722   4.389  14.363 -0.1220 -0.1684 -0.1382
 9808TIP3    H150839   4.762   4.423  14.443 -0.4730 -1.0186  0.4201
 9808TIP3    H250840   4.796   4.369  14.305  0.0941  1.2046 -0.3531
 9809TIP3   OH250841   3.198   0.779   5.446 -0.4890  0.2713  0.2246
 9809TIP3    H150842   3.273   0.821   5.403  0.9347 -0.8800  1.4510
 9809TIP3    H250843   3.155   0.729   5.376  0.2901  0.4269 -0.3785
 9810TIP3   OH250844   3.654   3.733   3.928 -0.2150  0.4258 -0.3384
 9810TIP3    H150845   3.573   3.782   3.939 -1.2695 -1.4928  1.0032
 9810TIP3    H250846   3.627   3.653   3.883  0.9014 -0.2551  0.1628
 9811TIP3   OH250847   3.634   1.209  14.238  0.5546  0.7734  0.4016
 9811TIP3    H150848   3.541   1.198  14.219  0.3590  3.7584 -0.9813
 9811TIP3    H250849   3.649   1.155  14.316 -1.7093 -1.7144 -0.7396
 9812TIP3   OH250850   2.995   6.621   2.923 -0.0763 -0.4595  0.1499
 9812TIP3    H150851   2.925   6.657   2.869 -1.3459  1.0708  2.6260
 9812TIP3    H250852   3.071   6.676   2.904 -1.1058  1.5168  1.4151
 9813TIP3   OH250853   4.028   1.349  12.647 -0.2808  0.9941 -0.1317
 9813TIP3    H150854   4.003   1.269  12.601 -1.4173 -0.1813  2.3850
 9813TIP3    H250855   4.108   1.378  12.602 -1.1074 -0.2295 -2.5694
 9814TIP3   OH250856   4.042   4.956   1.026  0.2658  0.4475  0.2601
 9814TIP3    H150857   4.114   4.965   0.963 -0.1877 -3.4987 -1.1558
 9814TIP3    H250858   3.968   5.000   0.984  0.6854  0.3141 -0.6435
 9815TIP3   OH250859   1.444   1.930  14.905  0.2869  0.0821 -0.1188
 9815TIP3    H150860   1.407   1.939  14.817  1.0658  0.3922 -0.4291
 9815TIP3    H250861   1.536   1.954  14.894  0.9786 -2.1423  0.3010
 9816TIP3   OH250862   4.650   1.220  11.050 -0.2174 -0.0827  0.3185
 9816TIP3    H150863   4.585   1.150  11.041 -0.2255  0.0569 -0.8945
 9816TIP3    H250864   4.692   1.204  11.135  0.7414 -2.3895 -0.5220
 9817TIP3   OH250865   3.310   1.197  16.088 -0.7436  0.1834 -0.0939
 9817TIP3    H150866   3.349   1.113  16.065  0.6449  0.6612  0.3728
 9817TIP3    H250867   3.385   1.257  16.094 -1.6205  1.2797  0.3024
 9818TIP3   OH250868   6.517   2.112   0.820  0.6662  0.2310  0.0059
 9818TIP3    H150869   6.607   2.086   0.839  1.2057  1.0271 -1.2723
 9818TIP3    H250870   6.520   2.208   0.818 -0.5384  0.3224  1.3703
 9819TIP3   OH250871   6.206   2.220   0.026 -0.4836 -0.3003  0.0392
 9819TIP3    H150872   6.290   2.178   0.044  0.0354  1.0851  0.9993
 9819TIP3    H250873   6.189   2.201  -0.066  1.1029 -0.2418 -0.2909
 9820TIP3   OH250874   5.377   5.193  15.759 -0.1196  0.0363  0.3767
 9820TIP3    H150875   5.418   5.279  15.760  1.6195 -0.7374 -0.7592
 9820TIP3    H250876   5.297   5.206  15.707  1.0585  0.6227 -1.4079
 9821TIP3   OH250877   5.843   5.173  14.598 -0.0587 -0.9863 -0.0768
 9821TIP3    H150878   5.832   5.211  14.685 -0.2392  0.1665 -0.5833
 9821TIP3    H250879   5.866   5.082  14.614  4.2158  0.1001  1.3388
 9822TIP3   OH250880   1.500   0.845  12.198  0.1871  0.0653  0.4880
 9822TIP3    H150881   1.482   0.936  12.172 -0.2868 -0.2744 -0.3861
 9822TIP3    H250882   1.416   0.812  12.229  0.4924  0.1008  1.3794
 9823TIP3   OH250883   0.489   5.768   4.655 -0.2135  0.0574  0.3246
 9823TIP3    H150884   0.533   5.854   4.662 -0.7665  0.4632 -0.9467
 9823TIP3    H250885   0.545   5.709   4.705  2.9114  0.1497 -2.6747
 9824TIP3   OH250886   4.684   1.936   1.919  0.1772  0.1644 -0.1062
 9824TIP3    H150887   4.772   1.925   1.956  0.8639 -1.2587 -2.0109
 9824TIP3    H250888   4.626   1.900   1.987  0.9891  1.4596  1.3373
 9825TIP3   OH250889   3.031   3.185   0.791  0.0628 -0.3223 -0.0530
 9825TIP3    H150890   3.026   3.089   0.786  1.2013 -0.3955 -0.0573
 9825TIP3    H250891   3.091   3.209   0.721  0.6391  0.3006  0.6436
 9826TIP3   OH250892   5.220   5.594   4.345 -0.4317  0.1998  0.0419
 9826TIP3    H150893   5.174   5.529   4.397 -0.3376  0.6186  0.6541
 9826TIP3    H250894   5.151   5.649   4.308 -0.5259 -0.3706 -0.6634
 9827TIP3   OH250895   3.537   5.916   5.119  0.0949  0.0236  0.5782
 9827TIP3    H150896   3.626   5.919   5.153  0.4038  2.6545 -0.2574
 9827TIP3    H250897   3.540   5.849   5.050  0.8114 -1.4630  1.9899
 9828TIP3   OH250898   0.630   5.791  15.430 -0.1608 -0.1672  0.2113
 9828TIP3    H150899   0.566   5.722  15.412  0.8535 -1.5499  1.6513
 9828TIP3    H250900   0.619   5.811  15.523  1.0716  0.0220  0.3332
 9829TIP3   OH250901   4.890   2.143   4.616 -0.2078  0.2693 -0.2915
 9829TIP3    H150902   4.911   2.188   4.698  2.0875 -0.0421 -0.6404
 9829TIP3    H250903   4.922   2.053   4.629 -2.7245 -0.7441 -0.4137
 9830TIP3   OH250904   0.572   5.571   5.363 -0.0542  0.5743  0.4131
 9830TIP3    H150905   0.557   5.477   5.350  2.8453  0.1334 -0.2880
 9830TIP3    H250906   0.549   5.611   5.279 -0.3294  0.3802  0.3929
 9831TIP3   OH250907   6.562   1.712  12.106 -0.1687  0.2429  0.4737
 9831TIP3    H150908   6.565   1.617  12.094 -2.1181  0.3274 -1.3406
 9831TIP3    H250909   6.559   1.723  12.201  0.1520 -1.5053  0.7357
 9832TIP3   OH250910   5.834   0.763  14.498 -0.2240  0.1698 -0.4979
 9832TIP3    H150911   5.865   0.707  14.427  1.6585  0.1605  0.2600
 9832TIP3    H250912   5.744   0.735  14.514  0.4766 -2.3030 -0.5060
 9833TIP3   OH250913   1.463   6.064  10.639 -0.4322  0.0064 -0.4955
 9833TIP3    H150914   1.484   6.011  10.716 -1.1620 -1.2388 -1.1139
 9833TIP3    H250915   1.368   6.055  10.629 -0.3196 -0.0406 -1.6589
 9834TIP3   OH250916   3.514   0.401  14.371  0.1905 -0.4273  0.0111
 9834TIP3    H150917   3.524   0.386  14.465 -1.8971  1.3689  0.5999
 9834TIP3    H250918   3.478   0.318  14.338 -2.1454 -0.0835  1.4311
 9835TIP3   OH250919   4.631   4.566   4.633  0.8105 -0.0738 -0.1007
 9835TIP3    H150920   4.706   4.580   4.575 -1.0904  1.3549 -2.4521
 9835TIP3    H250921   4.592   4.484   4.602  0.5059  0.0249  0.0205
 9836TIP3   OH250922   0.931   3.272   1.204  0.3276 -0.6359  0.7372
 9836TIP3    H150923   0.977   3.339   1.256  1.7970 -1.7830  0.9939
 9836TIP3    H250924   0.997   3.242   1.141 -1.1947  0.2098 -1.3933
 9837TIP3   OH250925   3.589   6.708   2.688 -0.6246  0.1099 -0.7000
 9837TIP3    H150926   3.532   6.761   2.632  1.0066  1.5035 -1.1293
 9837TIP3    H250927   3.665   6.688   2.633  0.8142  1.1172  0.8088
 9838TIP3   OH250928   3.580   1.162   0.414 -0.4006  0.5698  0.8216
 9838TIP3    H150929   3.519   1.139   0.485 -2.4859  2.8971 -0.1119
 9838TIP3    H250930   3.613   1.249   0.437  1.8765 -0.1979  0.7637
 9839TIP3   OH250931   5.743   1.510  11.158  0.1283 -0.0408 -0.1556
 9839TIP3    H150932   5.744   1.603  11.136  1.1531  0.0467  0.1719
 9839TIP3    H250933   5.827   1.477  11.125  0.2588 -0.6061  0.7215
 9840TIP3   OH250934   0.357   3.635   3.751  0.5099 -0.5010  0.4478
 9840TIP3    H150935   0.272   3.592   3.738  1.0252 -1.0380 -1.5760
 9840TIP3    H250936   0.345   3.723   3.715  0.6695 -0.4082  0.6217
 9841TIP3   OH250937   6.431   4.946  14.979  0.7615  0.7725 -0.7611
 9841TIP3    H150938   6.377   4.950  15.058  0.6933  0.0890 -0.7684
 9841TIP3    H250939   6.458   4.854  14.972  1.5363  1.0048 -1.0211
 9842TIP3   OH250940   2.701   1.872  11.550 -0.3767  0.0118 -0.5123
 9842TIP3    H150941   2.622   1.819  11.546 -1.0188  0.7185  1.5602
 9842TIP3    H250942   2.704   1.903  11.640  2.4350 -0.2154 -0.4606
 9843TIP3   OH250943   1.716   1.679   5.126 -0.4530  0.0013  0.1575
 9843TIP3    H150944   1.679   1.672   5.038 -0.2543 -2.0780  0.1789
 9843TIP3    H250945   1.715   1.589   5.159 -0.3568  0.7083  2.2220
 9844TIP3   OH250946   3.435   4.841  13.050 -0.1863  0.4165  0.1724
 9844TIP3    H150947   3.490   4.855  12.973 -0.6782 -2.1122 -0.7554
 9844TIP3    H250948   3.352   4.884  13.028  0.0221  0.6070 -0.2509
 9845TIP3   OH250949   6.093   3.480  12.073 -0.0049  0.0794  0.2042
 9845TIP3    H150950   6.024   3.434  12.121 -0.1342 -2.3075 -2.0107
 9845TIP3    H250951   6.174   3.439  12.102  0.4936  2.2652  2.1414
 9846TIP3   OH250952   0.221   1.235   1.535  0.5461 -0.2045 -0.2480
 9846TIP3    H150953   0.167   1.164   1.502  2.6909 -0.9256 -2.5272
 9846TIP3    H250954   0.199   1.310   1.480  1.1809 -0.2574 -0.5844
 9847TIP3   OH250955   5.821   0.461  15.790  0.0861 -0.0179  0.2016
 9847TIP3    H150956   5.841   0.370  15.812 -0.1554 -0.0325  0.3687
 9847TIP3    H250957   5.736   0.477  15.830 -0.8032 -0.3206 -1.4560
 9848TIP3   OH250958   4.227   6.084  12.126  0.2960 -0.0672 -0.3696
 9848TIP3    H150959   4.202   6.129  12.207  0.2215  0.3641 -0.6333
 9848TIP3    H250960   4.272   6.005  12.157  0.3785  0.1537  0.0937
 9849TIP3   OH250961   6.130   4.608  12.021 -0.5784  0.0162 -0.0291
 9849TIP3    H150962   6.208   4.632  12.071 -0.4438  0.4912 -0.4521
 9849TIP3    H250963   6.057   4.625  12.080 -0.3360 -0.8706  0.5292
 9850TIP3   OH250964   5.480   6.002  13.976  0.3261 -0.1739 -0.1783
 9850TIP3    H150965   5.456   6.085  14.019  1.2478 -0.8192  1.6980
 9850TIP3    H250966   5.524   5.952  14.045  1.0934 -1.6470 -1.6819
 9851TIP3   OH250967   1.281   1.839  15.908 -0.4545 -0.5066 -0.2690
 9851TIP3    H150968   1.242   1.879  15.986 -1.4568 -1.3689 -0.3024
 9851TIP3    H250969   1.286   1.746  15.929  2.9175 -0.3193  0.2656
 9852TIP3   OH250970   0.942   4.114  17.200 -0.9849 -0.0823  0.4506
 9852TIP3    H150971   0.927   4.181  17.266 -1.2175 -0.8940  1.2402
 9852TIP3    H250972   0.939   4.031  17.248  2.2969 -0.5710  0.0892
 9853TIP3   OH250973   2.413   6.072   5.720 -0.0724  0.1347  0.6092
 9853TIP3    H150974   2.341   6.123   5.758  1.4787  0.3429  3.6103
 9853TIP3    H250975   2.429   6.113   5.635 -1.8898  1.6677  0.9314
 9854TIP3   OH250976   0.153   4.721   6.210 -0.0229 -0.1275 -0.6628
 9854TIP3    H150977   0.115   4.772   6.139  0.5664  0.3033 -0.6776
 9854TIP3    H250978   0.080   4.669   6.244  0.0330 -1.5944 -2.6461
 9855TIP3   OH250979   6.070   4.277   2.454  0.3461 -0.5857  0.3740
 9855TIP3    H150980   6.065   4.230   2.371  0.9246  1.6743 -1.0425
 9855TIP3    H250981   6.000   4.240   2.507 -2.3328  0.1004 -2.3537
 9856TIP3   OH250982   4.017   6.027   3.188  0.5962  0.0616  0.6231
 9856TIP3    H150983   4.081   5.998   3.253  1.2659 -0.2180 -0.1465
 9856TIP3    H250984   4.019   6.123   3.193  0.0150  0.0393  1.5963
 9857TIP3   OH250985   5.309   3.757   1.637 -0.2682  0.3293 -0.1540
 9857TIP3    H150986   5.250   3.716   1.573  0.2706  0.5281 -0.7815
 9857TIP3    H250987   5.375   3.801   1.584 -0.2144  1.0912  0.5362
 9858TIP3   OH250988   2.507   6.146   3.435 -0.1968 -0.6817 -0.8956
 9858TIP3    H150989   2.455   6.088   3.491  0.1537 -0.7063 -0.5878
 9858TIP3    H250990   2.595   6.144   3.473 -0.2250  0.2219 -0.7372
 9859TIP3   OH250991   2.412   4.382   4.201  1.2004 -0.0374 -0.2049
 9859TIP3    H150992   2.388   4.331   4.123  0.7949 -1.0916  0.5822
 9859TIP3    H250993   2.454   4.318   4.259 -0.5940  0.1393  1.4121
 9860TIP3   OH250994   1.841   3.992  14.283  0.5189  0.7681  0.0562
 9860TIP3    H150995   1.886   3.927  14.337 -0.5602  0.8560  1.1133
 9860TIP3    H250996   1.890   3.994  14.201 -0.8840 -3.3579 -1.1462
 9861TIP3   OH250997   0.919   4.464   1.598  0.2043 -0.8310  0.4924
 9861TIP3    H150998   0.827   4.452   1.574  0.5280 -0.4836 -1.0528
 9861TIP3    H250999   0.950   4.376   1.619 -0.9815 -0.6943  3.1117
 9862TIP3   OH251000   3.443   2.581  11.798  0.0003 -0.1333  0.1935
 9862TIP3    H151001   3.354   2.604  11.772  0.0151 -0.1730  0.1057
 9862TIP3    H251002   3.453   2.616  11.886 -0.1528 -0.2572  0.2601
 9863TIP3   OH251003   3.605   0.434  12.440 -0.5182  0.5094 -0.2599
 9863TIP3    H151004   3.669   0.363  12.451  1.7814  2.5854  0.8511
 9863TIP3    H251005   3.606   0.452  12.346  0.7845  0.6841 -0.2303
 9864TIP3   OH251006   6.117   0.134   5.566  0.6876 -0.0728  0.2379
 9864TIP3    H151007   6.037   0.082   5.562 -0.8000  2.0921 -0.1165
 9864TIP3    H251008   6.125   0.160   5.658 -1.1212  2.6250 -0.2534
 9865TIP3   OH251009   3.263   4.788  11.818 -0.2910 -0.0740  0.5922
 9865TIP3    H151010   3.258   4.871  11.771  1.7120 -0.3440 -0.2144
 9865TIP3    H251011   3.235   4.723  11.753  2.2754 -0.4244 -0.2825
 9866TIP3   OH251012   3.389   3.113   4.085  0.4754 -0.2457 -0.2061
 9866TIP3    H151013   3.475   3.139   4.118 -0.1598  0.7910  0.6871
 9866TIP3    H251014   3.395   3.018   4.073  1.5593 -0.2637  0.4087
 9867TIP3   OH251015   0.842   5.126  15.467 -0.2436  0.1307 -0.0130
 9867TIP3    H151016   0.933   5.154  15.478  0.2692  0.0109 -2.9725
 9867TIP3    H251017   0.839   5.038  15.504  0.6832  0.3603  0.6382
 9868TIP3   OH251018   0.154   3.420  12.230 -0.4117 -0.5701 -0.8441
 9868TIP3    H151019   0.124   3.490  12.172 -0.1422  0.5712  0.3275
 9868TIP3    H251020   0.098   3.428  12.308 -0.2570 -1.5624 -0.6134
 9869TIP3   OH251021   6.147   3.688  16.751 -0.1943 -0.0871  0.8150
 9869TIP3    H151022   6.229   3.694  16.800  1.9723 -1.8326 -2.2977
 9869TIP3    H251023   6.170   3.709  16.661 -3.7856  1.9887  0.1840
 9870TIP3   OH251024   0.867   3.320  14.359 -0.2051  0.1588  0.1171
 9870TIP3    H151025   0.938   3.364  14.313  0.1610  0.7504  1.2071
 9870TIP3    H251026   0.847   3.244  14.305  0.8051  0.3467 -0.5475
 9871TIP3   OH251027   4.263   6.169   6.690 -0.0350  0.0468 -0.0913
 9871TIP3    H151028   4.313   6.146   6.612  0.0506  0.8194 -0.2686
 9871TIP3    H251029   4.329   6.182   6.758 -0.1761 -1.8387  0.4465
 9872TIP3   OH251030   5.882   0.201  13.317 -0.6335 -0.8092  0.4614
 9872TIP3    H151031   5.874   0.132  13.383 -2.8849 -0.8744  0.2122
 9872TIP3    H251032   5.849   0.279  13.361 -1.9312 -0.8026 -0.4782
 9873TIP3   OH251033   2.512   2.963   4.016 -0.0476 -0.0597 -0.1075
 9873TIP3    H151034   2.468   2.994   4.096  0.8619  0.0806  0.3479
 9873TIP3    H251035   2.556   3.041   3.982  1.3476 -0.5726  0.4481
 9874TIP3   OH251036   4.650   2.879   5.718  0.2405  0.5333  0.0138
 9874TIP3    H151037   4.567   2.927   5.727 -1.1448 -1.2800 -2.1686
 9874TIP3    H251038   4.656   2.827   5.798 -1.6484 -0.5637 -0.4908
 9875TIP3   OH251039   2.209   3.096   4.513 -0.5478  0.3623  0.1420
 9875TIP3    H151040   2.165   3.144   4.584 -0.1864  0.2579  0.4356
 9875TIP3    H251041   2.155   3.018   4.501 -0.2388  0.0444  0.7631
 9876TIP3   OH251042   3.395   5.454  14.430 -0.1319  0.0227  0.1876
 9876TIP3    H151043   3.444   5.372  14.427  0.7289  0.5132  0.4510
 9876TIP3    H251044   3.340   5.447  14.508  0.5403  0.0231  0.6679
 9877TIP3   OH251045   5.262   0.883   4.731 -0.0019 -0.4592 -0.3356
 9877TIP3    H151046   5.245   0.855   4.821  1.6585 -1.5290 -0.3254
 9877TIP3    H251047   5.355   0.867   4.718  0.5526  2.7056 -1.2013
 9878TIP3   OH251048   0.060   1.390  16.226  0.1845 -0.2767 -0.3281
 9878TIP3    H151049   0.005   1.463  16.254 -0.8728 -1.1657  0.0319
 9878TIP3    H251050   0.090   1.350  16.308 -0.9134 -1.4299 -0.4464
 9879TIP3   OH251051   4.364   4.529   2.713 -0.8565 -0.0866  0.0667
 9879TIP3    H151052   4.399   4.614   2.687 -1.9499 -0.3362 -2.4759
 9879TIP3    H251053   4.428   4.465   2.682 -1.6024 -0.3232 -1.0548
 9880TIP3   OH251054   2.225   2.531  12.155  0.2671  0.0813  0.1307
 9880TIP3    H151055   2.147   2.513  12.206 -0.1504  0.5937 -0.3143
 9880TIP3    H251056   2.292   2.555  12.219  0.4529 -1.6768  0.6241
 9881TIP3   OH251057   2.434   2.447   1.669  1.0404  0.8674 -0.0029
 9881TIP3    H151058   2.486   2.410   1.597  1.9048  1.1969  0.4386
 9881TIP3    H251059   2.487   2.430   1.747  0.3865  1.0460  0.4830
 9882TIP3   OH251060   2.540   5.129   2.307  0.2071  0.0164  0.0047
 9882TIP3    H151061   2.535   5.051   2.361  2.8479 -0.9568 -1.0150
 9882TIP3    H251062   2.533   5.097   2.217  0.1488  1.1054 -0.4024
 9883TIP3   OH251063   1.787   3.305   0.784 -0.4938  0.0011 -0.7132
 9883TIP3    H151064   1.847   3.373   0.751  1.0603  0.6134  2.8478
 9883TIP3    H251065   1.845   3.234   0.812 -1.7794 -1.0407 -0.6108
 9884TIP3   OH251066   4.232   3.753   3.089 -0.4836  0.0553  0.2976
 9884TIP3    H151067   4.161   3.772   3.150  0.1225  0.5829  0.8528
 9884TIP3    H251068   4.309   3.739   3.145  0.7833  3.4569 -0.3371
 9885TIP3   OH251069   6.512   6.058  14.876 -0.0408 -0.0969  0.2446
 9885TIP3    H151070   6.485   6.146  14.899 -1.3917 -0.9010  1.9387
 9885TIP3    H251071   6.462   6.037  14.797  1.5313  1.1901 -1.1723
 9886TIP3   OH251072   1.526   4.952  14.594  0.1174  0.1242  0.2663
 9886TIP3    H151073   1.513   5.037  14.552  2.4396 -0.0766 -1.0559
 9886TIP3    H251074   1.522   4.889  14.523  0.9487 -0.5832  0.8204
 9887TIP3   OH251075   2.470   1.369   3.165 -0.1484 -0.1850  0.1258
 9887TIP3    H151076   2.449   1.282   3.131  1.6883 -0.5890 -0.0742
 9887TIP3    H251077   2.564   1.366   3.183 -0.2701  1.3836  1.2618
 9888TIP3   OH251078   4.467   5.210  13.732 -0.0133 -1.0553  0.3279
 9888TIP3    H151079   4.547   5.256  13.757  0.1981 -0.1723 -1.7882
 9888TIP3    H251080   4.482   5.119  13.760  0.9211 -0.5408  1.6099
 9889TIP3   OH251081   5.508   0.863  11.991  0.5374  0.0489  0.3214
 9889TIP3    H151082   5.478   0.799  12.056  2.4757 -0.6040  0.6241
 9889TIP3    H251083   5.463   0.837  11.910  1.7325 -2.1429  0.2735
 9890TIP3   OH251084   2.894   1.742  16.621  0.3073 -0.2611  0.7260
 9890TIP3    H151085   2.915   1.764  16.712  0.7235  0.5458  0.4411
 9890TIP3    H251086   2.873   1.826  16.580 -1.7992 -0.8239  0.5423
 9891TIP3   OH251087   0.116   1.227   5.590 -0.1134 -0.8026  0.2461
 9891TIP3    H151088   0.197   1.210   5.542 -0.4862 -2.2038  0.0707
 9891TIP3    H251089   0.076   1.301   5.544  2.3704  1.8189  2.0114
 9892TIP3   OH251090   1.002   4.977   5.020 -0.6231 -0.1732 -0.6847
 9892TIP3    H151091   1.092   5.003   5.002 -0.8813  1.5353  0.2335
 9892TIP3    H251092   1.009   4.896   5.070  0.4887  0.8408  0.8701
 9893TIP3   OH251093   4.584   0.460   2.576  1.1404  0.3460 -0.0243
 9893TIP3    H151094   4.636   0.537   2.552 -1.2556  1.6051 -1.6214
 9893TIP3    H251095   4.554   0.424   2.492  0.7377 -1.2917  0.7744
 9894TIP3   OH251096   6.179   5.881  15.075 -0.2724  0.4824  0.0674
 9894TIP3    H151097   6.124   5.849  15.147  0.4059 -0.6993  0.0997
 9894TIP3    H251098   6.179   5.809  15.012  0.8913  0.6276 -0.1188
 9895TIP3   OH251099   5.597   5.267   2.712 -0.3100  0.4676 -0.0723
 9895TIP3    H151100   5.584   5.179   2.677  0.6260 -0.1214  0.9983
 9895TIP3    H251101   5.608   5.323   2.635  0.7971 -0.6360 -0.7509
 9896TIP3   OH251102   2.498   0.432   5.775 -0.2693  0.0285  0.0972
 9896TIP3    H151103   2.563   0.461   5.839 -1.0196  0.9691  0.4591
 9896TIP3    H251104   2.446   0.367   5.821 -1.0154  0.9416  0.5742
 9897TIP3   OH251105   2.519   0.616   1.356 -0.4362 -0.3369  0.3646
 9897TIP3    H151106   2.502   0.695   1.407  1.4799  0.6324 -0.3772
 9897TIP3    H251107   2.527   0.546   1.421  1.4989  0.7771  1.4267
 9898TIP3   OH251108   0.400   5.013  16.427  0.2426 -0.0072 -0.1233
 9898TIP3    H151109   0.327   5.074  16.439 -0.0795 -0.7386  2.1368
 9898TIP3    H251110   0.478   5.068  16.422 -0.2567  0.6846 -0.3771
 9899TIP3   OH251111   5.216   4.661   0.857 -0.2380  0.0745  0.4926
 9899TIP3    H151112   5.187   4.751   0.871 -0.4429 -0.1139  1.3647
 9899TIP3    H251113   5.308   4.661   0.882 -0.0802  0.1679 -0.0763
 9900TIP3   OH251114   1.743   0.710   1.140  0.5220 -0.2175  0.3423
 9900TIP3    H151115   1.665   0.762   1.159  0.6507  0.2380 -0.3205
 9900TIP3    H251116   1.730   0.629   1.189 -0.8014 -0.5272 -0.4600
 9901TIP3   OH251117   0.357   4.232   4.647  0.0856  0.0165 -0.7212
 9901TIP3    H151118   0.273   4.185   4.645 -0.2708  0.6275 -0.3091
 9901TIP3    H251119   0.412   4.183   4.586  0.3845 -2.1386  1.1485
 9902TIP3   OH251120   6.148   6.220  11.445  0.4517  0.6939 -0.0155
 9902TIP3    H151121   6.241   6.204  11.429  0.1693  1.0993 -2.5542
 9902TIP3    H251122   6.107   6.134  11.433  0.3924  0.7300 -0.0775
 9903TIP3   OH251123   3.615   2.840  16.851  0.0049  0.3982 -0.4425
 9903TIP3    H151124   3.674   2.897  16.900 -0.5243 -0.3133  1.0660
 9903TIP3    H251125   3.527   2.873  16.870 -0.1960  0.3532 -1.2476
 9904TIP3   OH251126   1.951   6.139  15.336 -0.2923  0.0829  0.4279
 9904TIP3    H151127   1.940   6.195  15.259 -0.3767  0.8635  0.9965
 9904TIP3    H251128   1.932   6.196  15.410  2.3836  0.0967  1.1984
 9905TIP3   OH251129   0.380   5.868   4.948 -0.6625 -0.0880 -0.1249
 9905TIP3    H151130   0.357   5.867   4.855 -1.5606  0.8625  0.0710
 9905TIP3    H251131   0.413   5.780   4.966  1.3474  0.2452 -1.7804
 9906TIP3   OH251132   2.575   5.714   3.658 -0.6082  0.1425 -0.8774
 9906TIP3    H151133   2.542   5.802   3.641 -0.3058  0.1283 -1.5838
 9906TIP3    H251134   2.585   5.710   3.753  0.9776  1.4712 -0.9357
 9907TIP3   OH251135   5.915   1.048  16.104  0.6276 -0.4322  0.3598
 9907TIP3    H151136   5.834   1.091  16.132  0.8739 -0.0201  0.4374
 9907TIP3    H251137   5.938   1.090  16.021  0.2498 -1.2100 -0.1492
 9908TIP3   OH251138   1.735   1.584   3.763  0.2698 -0.0774  0.5241
 9908TIP3    H151139   1.651   1.597   3.720  0.3864 -0.0026  0.3176
 9908TIP3    H251140   1.754   1.491   3.753  0.1293 -0.1278  0.7227
 9909TIP3   OH251141   0.958   2.536  10.883  0.3361 -0.2492 -0.5412
 9909TIP3    H151142   1.009   2.616  10.873 -0.8007  0.3916 -1.4978
 9909TIP3    H251143   1.022   2.465  10.878  1.4016  0.5921  0.6025
 9910TIP3   OH251144   0.297   1.468   0.611 -0.0748 -0.5222 -0.2890
 9910TIP3    H151145   0.333   1.440   0.527 -0.3410 -0.0835 -0.5487
 9910TIP3    H251146   0.372   1.500   0.661 -0.0766  0.2713 -0.7825
 9911TIP3   OH251147   1.246   2.745  13.059 -0.2535 -0.1319  0.1015
 9911TIP3    H151148   1.230   2.674  12.997 -0.8104  0.6743 -0.6958
 9911TIP3    H251149   1.168   2.800  13.054 -0.4844 -0.2454  1.8139
 9912TIP3   OH251150   0.919   0.445  12.263  0.4736 -0.2302  0.4074
 9912TIP3    H151151   0.921   0.528  12.216 -0.9586  0.0196  0.7322
 9912TIP3    H251152   0.919   0.379  12.194  0.6875  0.0658  0.1197
 9913TIP3   OH251153   1.909   3.227   4.746  0.2228  0.0449 -0.1449
 9913TIP3    H151154   1.926   3.196   4.835  0.6991  1.0783  0.1453
 9913TIP3    H251155   1.960   3.308   4.740 -0.0129  0.1156 -1.2744
 9914TIP3   OH251156   4.427   1.582  15.447  0.1308  0.2292 -0.0204
 9914TIP3    H151157   4.468   1.575  15.533 -0.0022 -1.8029 -0.0725
 9914TIP3    H251158   4.333   1.590  15.465 -0.0020 -1.2249  0.0501
 9915TIP3   OH251159   6.059   2.010  16.926 -0.3770  0.3502 -0.5227
 9915TIP3    H151160   5.971   2.046  16.922  0.1183  1.9379  1.4362
 9915TIP3    H251161   6.047   1.915  16.929 -2.1174  0.5847  1.2469
 9916TIP3   OH251162   4.301   3.042   0.824 -0.0613 -0.3768  0.1194
 9916TIP3    H151163   4.250   3.054   0.904  0.5858 -0.4366  0.5485
 9916TIP3    H251164   4.300   3.127   0.781  1.1341  0.1797  1.1283
 9917TIP3   OH251165   1.630   2.142   1.211 -0.3423  0.3958  0.0702
 9917TIP3    H151166   1.711   2.156   1.162 -1.1927 -2.0590 -2.3394
 9917TIP3    H251167   1.658   2.103   1.293  0.9952  0.3977 -0.3696
 9918TIP3   OH251168   0.478   5.786   3.315  0.4238 -0.2955  0.2017
 9918TIP3    H151169   0.406   5.749   3.365  0.5061  0.1868  0.6907
 9918TIP3    H251170   0.468   5.881   3.326  1.2615 -0.2290  0.4735
 9919TIP3   OH251171   5.884   2.551   4.234  0.0650 -0.3035 -0.0568
 9919TIP3    H151172   5.871   2.479   4.172 -1.6693  1.1888 -1.5268
 9919TIP3    H251173   5.796   2.583   4.253  0.7510  0.9849  1.1374
 9920TIP3   OH251174   1.529   4.893   1.498  0.5199  0.1725  0.4308
 9920TIP3    H151175   1.439   4.882   1.529  0.8966  1.1059  1.9563
 9920TIP3    H251176   1.583   4.851   1.564  1.2519  0.3213 -0.0567
 9921TIP3   OH251177   5.775   3.387   2.319 -0.0253  0.6862 -0.5172
 9921TIP3    H151178   5.725   3.468   2.315 -3.4189 -1.2393 -2.2960
 9921TIP3    H251179   5.839   3.394   2.248 -0.8907  1.4801 -1.2378
 9922TIP3   OH251180   2.121   0.192  14.060  0.5731 -0.2218  0.8789
 9922TIP3    H151181   2.039   0.177  14.107  0.2239 -1.0457  0.0380
 9922TIP3    H251182   2.137   0.286  14.070 -2.0565  0.6118 -1.3713
 9923TIP3   OH251183   0.389   5.597   4.141 -0.2147  0.4411  0.4016
 9923TIP3    H151184   0.323   5.533   4.114  0.1654  0.0602  0.3600
 9923TIP3    H251185   0.409   5.646   4.061  0.0221  0.1260  0.2664
 9924TIP3   OH251186   3.812   4.318   1.729 -0.4511  0.1526 -0.1867
 9924TIP3    H151187   3.734   4.266   1.709  0.8063 -1.2328 -1.8505
 9924TIP3    H251188   3.781   4.388   1.786 -3.0923  0.2740 -1.6366
 9925TIP3   OH251189   5.469   3.589   3.776  0.1649  0.3477 -0.0719
 9925TIP3    H151190   5.427   3.658   3.829  0.4960  0.5386 -0.0552
 9925TIP3    H251191   5.519   3.637   3.710  0.4205  0.1217 -0.0435
 9926TIP3   OH251192   4.265   6.468  13.554  0.1517 -0.1441 -0.1250
 9926TIP3    H151193   4.352   6.450  13.518 -0.0207 -0.2397 -0.4953
 9926TIP3    H251194   4.271   6.558  13.588  0.2699  0.0048 -0.5347
 9927TIP3   OH251195   0.198   1.460   4.626 -0.3168 -0.0235 -0.5104
 9927TIP3    H151196   0.108   1.429   4.625 -0.1838 -0.8188  2.7590
 9927TIP3    H251197   0.191   1.555   4.635 -0.8673 -0.1615  0.6812
 9928TIP3   OH251198   4.988   0.392  10.766  0.6491  0.4679  0.1889
 9928TIP3    H151199   5.043   0.409  10.843 -0.3940 -1.5855  1.4829
 9928TIP3    H251200   5.032   0.320  10.721 -0.5732 -0.7759  0.8987
 9929TIP3   OH251201   4.457   6.287  13.427  0.0189 -0.0883  0.3989
 9929TIP3    H151202   4.428   6.281  13.336 -1.3039 -0.5660  0.8395
 9929TIP3    H251203   4.536   6.233  13.430  0.1270  0.0020 -0.4766
 9930TIP3   OH251204   3.467   2.011  13.574 -0.2439  0.1878  0.1280
 9930TIP3    H151205   3.425   1.998  13.489  0.2580  1.9844 -0.4392
 9930TIP3    H251206   3.558   1.982  13.561  0.6718  3.1001 -0.9202
 9931TIP3   OH251207   2.532   3.383   3.064 -0.2796 -0.4713 -0.0414
 9931TIP3    H151208   2.513   3.424   3.148 -1.0757 -0.0153 -0.4354
 9931TIP3    H251209   2.506   3.292   3.076 -0.5640 -0.3658  0.1447
 9932TIP3   OH251210   3.611   2.783   1.581 -0.7941  0.5954  0.1054
 9932TIP3    H151211   3.565   2.792   1.665  0.5178 -0.2149  0.9424
 9932TIP3    H251212   3.598   2.692   1.556  0.4067  0.3239  0.4114
 9933TIP3   OH251213   2.669   2.677  16.486 -0.5733 -0.4575  0.5980
 9933TIP3    H151214   2.691   2.743  16.552  0.4941  0.2827 -0.4472
 9933TIP3    H251215   2.727   2.697  16.412 -0.8698 -2.0170 -0.0979
 9934TIP3   OH251216   5.444   0.597   5.917 -0.6772  0.3070  0.1681
 9934TIP3    H151217   5.396   0.580   5.837 -0.5287  0.3036  0.0788
 9934TIP3    H251218   5.483   0.512   5.940  0.3120  0.5795 -0.4423
 9935TIP3   OH251219   3.988   6.093  13.718 -0.4120  0.4104  0.3570
 9935TIP3    H151220   4.069   6.067  13.762 -0.3370 -1.3587 -0.7376
 9935TIP3    H251221   3.992   6.050  13.632 -1.7950  1.5586 -0.3301
 9936TIP3   OH251222   0.334   4.464   0.808 -0.3838  0.4592  0.1676
 9936TIP3    H151223   0.356   4.527   0.877 -1.1776 -1.5404  2.3812
 9936TIP3    H251224   0.260   4.504   0.761  1.0890  2.5037 -0.5596
 9937TIP3   OH251225   3.006   6.772  10.892  0.2944  0.0650  0.0151
 9937TIP3    H151226   2.927   6.722  10.914  0.4670  0.2111  1.0554
 9937TIP3    H251227   2.981   6.825  10.816 -0.1725 -0.9063 -0.5225
 9938TIP3   OH251228   0.366   4.528   3.956  0.2192 -0.6154  0.1811
 9938TIP3    H151229   0.385   4.619   3.930 -0.3367 -0.9415 -1.5094
 9938TIP3    H251230   0.390   4.476   3.879 -2.5539 -1.5509 -0.1798
 9939TIP3   OH251231   6.492   0.082   4.110  0.0104  0.1017 -0.0333
 9939TIP3    H151232   6.402   0.113   4.114 -0.1438 -0.4384  1.5013
 9939TIP3    H251233   6.500   0.043   4.023 -1.3405 -0.1392 -0.0708
 9940TIP3   OH251234   1.074   3.828   3.264 -0.5730 -0.2095  0.2768
 9940TIP3    H151235   1.116   3.796   3.344  0.1016 -0.6766 -0.2509
 9940TIP3    H251236   1.107   3.770   3.195 -0.8250  0.4381 -0.4014
 9941TIP3   OH251237   1.422   1.017  11.190  0.5705  0.7189  0.1388
 9941TIP3    H151238   1.460   1.092  11.234  0.5983 -0.4189  2.1905
 9941TIP3    H251239   1.432   0.945  11.252  0.2551 -0.9202 -1.6098
 9942TIP3   OH251240   6.187   4.224  12.379  0.0166 -0.0839  0.2666
 9942TIP3    H151241   6.092   4.218  12.371  0.0430  0.4456 -0.4632
 9942TIP3    H251242   6.220   4.204  12.291  0.5274  0.9232  0.2212
 9943TIP3   OH251243   4.124   0.184  13.773  0.3231  0.2753 -0.2048
 9943TIP3    H151244   4.079   0.172  13.857  0.6121  1.1963  0.1005
 9943TIP3    H251245   4.068   0.244  13.724 -1.0038 -2.0038 -1.6113
 9944TIP3   OH251246   6.775   1.978  14.117  0.5581 -0.8114  0.4156
 9944TIP3    H151247   6.736   1.967  14.031 -1.3775  0.5142  1.0685
 9944TIP3    H251248   6.718   1.929  14.176  0.2319  0.5739  1.2960
 9945TIP3   OH251249   4.249   0.478  16.719  0.1776  0.1465 -0.9117
 9945TIP3    H151250   4.295   0.432  16.649  0.3871 -0.1356 -0.5887
 9945TIP3    H251251   4.303   0.465  16.797 -0.1293  0.3326 -0.6635
 9946TIP3   OH251252   0.118   4.792   1.388  0.2901 -0.5604 -0.0972
 9946TIP3    H151253   0.052   4.840   1.337  0.5355 -0.3408 -0.2092
 9946TIP3    H251254   0.168   4.744   1.322 -0.0666 -1.1180  0.0264
 9947TIP3   OH251255   0.982   1.414  16.879  0.3137 -0.1656  0.3473
 9947TIP3    H151256   0.892   1.423  16.848  0.5378 -0.8338 -0.5337
 9947TIP3    H251257   0.978   1.439  16.971 -0.4802  1.3275 -0.0611
 9948TIP3   OH251258   5.849   3.438  11.033  0.0207  0.0602  0.0453
 9948TIP3    H151259   5.807   3.367  10.985 -0.6666  0.5452 -0.0857
 9948TIP3    H251260   5.933   3.402  11.061 -1.3499 -1.6845  2.1933
 9949TIP3   OH251261   4.237   0.602   5.151 -0.2578 -0.5398  0.0329
 9949TIP3    H151262   4.213   0.633   5.064 -2.3399 -1.4018  0.2381
 9949TIP3    H251263   4.223   0.507   5.148  2.3533 -1.0341  0.5182
 9950TIP3   OH251264   0.485   5.502   3.688 -0.5759  0.0182 -0.6321
 9950TIP3    H151265   0.555   5.538   3.633 -0.4344 -1.1611 -1.2552
 9950TIP3    H251266   0.405   5.543   3.654 -0.1992  1.7783  0.4201
 9951TIP3   OH251267   1.771   2.187   1.473  0.5082  0.1674  0.6110
 9951TIP3    H151268   1.783   2.281   1.480 -1.1329  0.4179  0.4887
 9951TIP3    H251269   1.689   2.170   1.520  0.0660 -0.9999 -0.5217
 9952TIP3   OH251270   6.613   4.730  13.521 -0.1496 -0.5887 -0.1382
 9952TIP3    H151271   6.606   4.638  13.548 -1.0813 -0.5776 -0.3096
 9952TIP3    H251272   6.616   4.779  13.604 -1.5800 -0.6538 -0.0141
 9953TIP3   OH251273   0.380   0.542  14.613 -0.0127 -0.1008  0.2094
 9953TIP3    H151274   0.328   0.545  14.533 -0.8180 -0.8592  0.6899
 9953TIP3    H251275   0.323   0.579  14.680  0.0841 -0.8915  0.7299
 9954TIP3   OH251276   2.374   2.659  16.530 -0.1783 -0.1696 -0.2995
 9954TIP3    H151277   2.468   2.658  16.550 -0.1445 -1.6795 -0.3886
 9954TIP3    H251278   2.341   2.739  16.571  1.1568  0.4306 -0.3391
 9955TIP3   OH251279   0.736   2.000  13.883  0.2196  0.3049  0.5616
 9955TIP3    H151280   0.720   2.091  13.906 -1.4341  0.4736 -1.0165
 9955TIP3    H251281   0.795   2.004  13.808 -1.0749  0.2118 -0.5120
 9956TIP3   OH251282   2.100   3.014   2.103 -0.0234  0.7959  0.2384
 9956TIP3    H151283   2.084   2.933   2.152  2.7284  0.8887  1.4808
 9956TIP3    H251284   2.067   3.083   2.161 -0.4743  0.6934  0.1096
 9957TIP3   OH251285   0.163   0.002  15.315  0.6721  0.0971  0.3360
 9957TIP3    H151286   0.229   0.024  15.381  1.6128 -0.3494 -0.4259
 9957TIP3    H251287   0.119  -0.075  15.351  0.0313  0.8437  1.2005
 9958TIP3   OH251288   5.976   3.622   2.514 -0.8529 -0.2201 -0.6452
 9958TIP3    H151289   6.053   3.606   2.568 -1.4101 -1.0333 -0.0645
 9958TIP3    H251290   5.906   3.639   2.577 -1.3089 -0.2186 -1.1492
 9959TIP3   OH251291   2.744   5.574  14.200 -0.7627  0.4858 -0.5636
 9959TIP3    H151292   2.760   5.643  14.135 -2.1111 -1.2795 -2.9564
 9959TIP3    H251293   2.655   5.590  14.231  0.4449  2.3295  2.3323
 9960TIP3   OH251294   0.958   4.070  11.729  0.6641  0.6342  0.1661
 9960TIP3    H151295   0.959   3.996  11.668 -0.4866  0.2026  0.6539
 9960TIP3    H251296   0.873   4.066  11.771  0.8153  1.8928  0.6422
 9961TIP3   OH251297   6.039   0.363   3.184  0.0898 -0.4206 -0.0186
 9961TIP3    H151298   6.050   0.361   3.279  2.8373 -0.7718 -0.2670
 9961TIP3    H251299   6.115   0.318   3.150 -0.5529  0.1690 -2.4347
 9962TIP3   OH251300   3.064   6.443   1.077  0.1942 -0.9191 -0.2190
 9962TIP3    H151301   3.039   6.403   1.160  2.2591 -1.4991  0.1604
 9962TIP3    H251302   2.998   6.411   1.015 -0.2460 -2.0561  0.8018
 9963TIP3   OH251303   4.228   6.329  13.804  0.0917  0.3758  0.0847
 9963TIP3    H151304   4.274   6.265  13.750  0.4173 -0.2988  1.1311
 9963TIP3    H251305   4.256   6.414  13.769 -0.5705 -0.0148 -1.5019
 9964TIP3   OH251306   3.566   5.762   1.343 -0.1965 -0.0676 -0.7449
 9964TIP3    H151307   3.486   5.802   1.375  0.5448  1.1014 -0.3141
 9964TIP3    H251308   3.552   5.753   1.249 -1.0805 -0.4970 -0.5870
 9965TIP3   OH251309   2.302   2.519  13.963  0.1272 -0.5449 -0.6150
 9965TIP3    H151310   2.289   2.512  13.868 -1.3191  1.1663 -0.6013
 9965TIP3    H251311   2.274   2.608  13.984  0.1146 -1.0002  1.4818
 9966TIP3   OH251312   1.693   0.029  15.653  0.1206  0.2309  0.5166
 9966TIP3    H151313   1.719  -0.060  15.679  2.7217  0.5616 -0.7250
 9966TIP3    H251314   1.655   0.018  15.566 -0.8777  0.2178  0.9279
 9967TIP3   OH251315   0.612   3.625   1.406 -0.3140  0.2051 -0.3801
 9967TIP3    H151316   0.562   3.544   1.402 -1.2637  0.5135  2.7412
 9967TIP3    H251317   0.702   3.599   1.387 -0.3587 -1.9054  1.8212
 9968TIP3   OH251318   4.277   5.509   1.026 -0.4047  0.2528  0.9011
 9968TIP3    H151319   4.316   5.497   0.939 -1.6332 -1.6322  0.5678
 9968TIP3    H251320   4.335   5.460   1.085 -0.9977 -0.6630  0.7377
 9969TIP3   OH251321   6.777   5.147  11.570 -0.0615  0.2153  0.0690
 9969TIP3    H151322   6.805   5.072  11.623 -0.6544  1.2603  1.9354
 9969TIP3    H251323   6.858   5.195  11.552 -0.1090  1.2528  2.3221
 9970TIP3   OH251324   2.004   3.228   5.524 -0.0597  0.1745  0.0551
 9970TIP3    H151325   1.977   3.199   5.611  0.0723 -0.7314 -0.1972
 9970TIP3    H251326   2.099   3.234   5.529 -0.0600  0.2264  0.0062
 9971TIP3   OH251327   0.617   0.062  14.090  0.3625  0.7371 -0.0452
 9971TIP3    H151328   0.700   0.105  14.111  0.5257  1.4643 -1.9998
 9971TIP3    H251329   0.569   0.126  14.037 -2.1155  0.9101  2.1970
 9972TIP3   OH251330   2.654   6.553   2.436 -0.3131  0.4660  0.0117
 9972TIP3    H151331   2.594   6.616   2.476 -0.1286  1.3262 -0.9993
 9972TIP3    H251332   2.722   6.608   2.396 -0.1235 -0.3764 -0.8562
 9973TIP3   OH251333   4.723   2.029  11.366 -1.1268  0.2438 -0.2807
 9973TIP3    H151334   4.786   1.964  11.396 -1.4086 -0.7177 -1.6841
 9973TIP3    H251335   4.718   2.016  11.271  0.2523  3.6056 -0.9416
 9974TIP3   OH251336   0.158   0.750   0.013  0.2882  0.4892 -0.0691
 9974TIP3    H151337   0.076   0.799   0.020  0.5485  0.9122  0.0512
 9974TIP3    H251338   0.204   0.791  -0.060  0.0984 -0.1929 -0.5846
 9975TIP3   OH251339   5.434   0.056  14.627  0.3168  0.3583  0.1876
 9975TIP3    H151340   5.491   0.031  14.554  0.2826  2.1677 -0.5132
 9975TIP3    H251341   5.482   0.029  14.705  1.2927  0.1696 -0.4534
 9976TIP3   OH251342   3.196   3.356  14.641 -0.0936  0.1219  0.0302
 9976TIP3    H151343   3.186   3.419  14.569 -0.4446  0.5668  0.4597
 9976TIP3    H251344   3.126   3.293  14.628  0.2829 -0.2053 -0.4253
 9977TIP3   OH251345   0.960   5.231   0.704  0.4352  0.0483 -0.3847
 9977TIP3    H151346   1.015   5.272   0.638  0.7823  0.9958  0.4700
 9977TIP3    H251347   0.881   5.285   0.708  0.8764  0.6584  0.7144
 9978TIP3   OH251348   5.563   2.799  12.742  0.8498 -0.5068  0.3380
 9978TIP3    H151349   5.653   2.783  12.716  0.4111 -0.7305 -1.1234
 9978TIP3    H251350   5.518   2.823  12.661 -0.6862 -1.6455  0.7972
 9979TIP3   OH251351   0.986   0.102  14.244 -0.1373 -0.0625 -0.1569
 9979TIP3    H151352   0.941   0.130  14.165 -0.4660 -0.5125 -0.1331
 9979TIP3    H251353   1.065   0.058  14.213 -1.0042 -1.5538 -0.2960
 9980TIP3   OH251354   0.632   3.615  12.490 -0.1600 -0.1285 -0.3583
 9980TIP3    H151355   0.689   3.648  12.560  0.3654  0.7635 -1.1908
 9980TIP3    H251356   0.674   3.644  12.409 -2.5139  1.8324 -0.9990
 9981TIP3   OH251357   6.148   2.255   5.306 -0.6056 -0.5281 -0.3652
 9981TIP3    H151358   6.200   2.330   5.278  1.5344 -1.4011  1.0542
 9981TIP3    H251359   6.057   2.286   5.300  0.2028  2.6549  1.4005
 9982TIP3   OH251360   4.866   1.543   3.100 -0.5995 -0.8332  0.2163
 9982TIP3    H151361   4.861   1.637   3.112 -0.7051 -0.8656  0.4361
 9982TIP3    H251362   4.819   1.507   3.176 -1.0794 -1.0442 -0.1723
 9983TIP3   OH251363   4.056   1.347  16.011 -0.1952  0.0207  0.3275
 9983TIP3    H151364   4.058   1.385  16.099 -3.1424 -0.0894  0.5349
 9983TIP3    H251365   4.001   1.270  16.018  1.2205 -1.2209 -1.2380
 9984TIP3   OH251366   2.808   2.020  16.831  0.9520  0.3334 -0.0579
 9984TIP3    H151367   2.862   1.963  16.885 -0.3217  1.0632  2.0889
 9984TIP3    H251368   2.841   2.108  16.847 -0.1078  0.6633  0.3879
 9985TIP3   OH251369   5.119   1.073  14.124  0.3851  0.0898 -0.7120
 9985TIP3    H151370   5.155   1.026  14.049 -0.2208 -0.0266 -0.9398
 9985TIP3    H251371   5.062   1.008  14.166 -0.3887  0.5955 -0.9758
 9986TIP3   OH251372   3.122   0.094   5.512 -0.4971  0.0461  0.3209
 9986TIP3    H151373   3.087   0.183   5.508  1.5404  1.0162  2.2900
 9986TIP3    H251374   3.055   0.044   5.557 -0.7928  1.0871  1.0820
 9987TIP3   OH251375   2.293   5.078   3.547 -0.1054  0.6936  0.1064
 9987TIP3    H151376   2.234   5.028   3.491  1.4474 -0.0626 -0.9508
 9987TIP3    H251377   2.314   5.156   3.496  0.9077  0.2557 -0.1767
 9988TIP3   OH251378   3.492   1.780   5.050 -0.4011 -0.3311 -0.8721
 9988TIP3    H151379   3.475   1.739   5.135  1.0697  1.4805  0.3767
 9988TIP3    H251380   3.443   1.862   5.052  0.7720  0.3998 -1.1590
 9989TIP3   OH251381   4.178   3.521  15.093 -0.3266  0.6131  0.1405
 9989TIP3    H151382   4.230   3.601  15.098 -1.3380  1.2899  0.1491
 9989TIP3    H251383   4.226   3.464  15.033  0.6224  1.0583  0.4736
 9990TIP3   OH251384   2.527   0.073   3.202  0.4708  0.0752  0.0965
 9990TIP3    H151385   2.564   0.155   3.235  0.1682  0.2412  0.0216
 9990TIP3    H251386   2.602   0.027   3.164  1.2761 -0.9888  2.6909
 9991TIP3   OH251387   5.582   2.324  11.443 -0.2282  0.3139  0.2963
 9991TIP3    H151388   5.500   2.282  11.471 -0.3662  2.5744  3.9305
 9991TIP3    H251389   5.651   2.267  11.478 -0.1435 -0.8493 -1.5810
 9992TIP3   OH251390   0.385   6.030   2.558 -0.3098 -0.0661  0.4052
 9992TIP3    H151391   0.313   6.082   2.523  0.5879  1.2663  0.4584
 9992TIP3    H251392   0.436   6.091   2.612  0.2582 -1.2370  1.2502
 9993TIP3   OH251393   6.164   1.061  14.431  0.0215  0.3381 -0.3499
 9993TIP3    H151394   6.162   1.060  14.527 -2.2159  0.2847 -0.3524
 9993TIP3    H251395   6.080   1.024  14.405 -0.1826  2.0312 -2.3289
 9994TIP3   OH251396   6.256   6.548   3.005  0.2113 -0.1993 -0.2503
 9994TIP3    H151397   6.181   6.607   3.001  0.1116 -0.0527  2.1599
 9994TIP3    H251398   6.327   6.602   3.039  1.4372 -0.3850 -2.3292
 9995TIP3   OH251399   3.011   2.013  13.882 -0.5232  0.9207  0.0882
 9995TIP3    H151400   2.994   2.048  13.794 -1.1763 -1.1291 -0.6481
 9995TIP3    H251401   2.924   1.993  13.916 -0.1617 -0.2529  0.3483
 9996TIP3   OH251402   4.116   3.005   2.803 -0.1764 -0.1454  0.2885
 9996TIP3    H151403   4.096   2.949   2.878  1.8423 -0.1951  0.8630
 9996TIP3    H251404   4.150   3.085   2.842 -1.1908  0.7307 -0.5691
 9997TIP3   OH251405   4.563   4.657   5.230  0.5236 -0.1473  0.2141
 9997TIP3    H151406   4.472   4.651   5.261  0.4467  0.6278  0.1517
 9997TIP3    H251407   4.608   4.704   5.299  1.3989 -2.4261  1.3049
 9998TIP3   OH251408   4.904   6.655   4.673  0.4618  0.2833  0.2367
 9998TIP3    H151409   4.854   6.574   4.681  2.0161 -0.8623 -0.9393
 9998TIP3    H251410   4.841   6.718   4.637 -0.5409 -0.6562  0.2884
 9999TIP3   OH251411   5.672   0.018  11.501 -0.0856 -0.5384 -0.5817
 9999TIP3    H151412   5.664   0.033  11.595  1.0593 -0.4547 -0.4830
 9999TIP3    H251413   5.631  -0.067  11.486  0.4877 -0.9580  0.1426
10000TIP3   OH251414   6.530   3.451   1.944 -0.4193  0.4582 -0.3319
10000TIP3    H151415   6.510   3.544   1.945  0.1141  0.5734  0.2570
10000TIP3    H251416   6.588   3.439   1.868  1.5684  1.0693  1.0253
10001TIP3   OH251417   2.124   4.268  15.124 -0.0577  1.0911 -0.7262
10001TIP3    H151418   2.120   4.350  15.174 -1.3429  1.9647 -2.1750
10001TIP3    H251419   2.206   4.274  15.075  0.9175  0.4953  0.7702
10002TIP3   OH251420   4.280   6.720  12.094  0.1491 -0.6561  0.0512
10002TIP3    H151421   4.239   6.807  12.089  1.2022  0.0316  2.3216
10002TIP3    H251422   4.208   6.661  12.118  0.0068  0.1833  1.8538
10003TIP3   OH251423   5.644   2.364  13.909 -0.2564  0.2712 -0.9536
10003TIP3    H151424   5.637   2.269  13.914 -2.3064  0.2931 -2.1645
10003TIP3    H251425   5.604   2.396  13.990  2.9139  0.1574  0.8165
10004TIP3   OH251426   5.696   4.972   1.249 -0.0323 -0.3971 -0.0228
10004TIP3    H151427   5.755   4.935   1.183  0.5894 -0.7654  0.7227
10004TIP3    H251428   5.732   5.059   1.267  0.1050 -0.5035  0.2140
10005TIP3   OH251429   4.772   6.585   4.203  0.3258 -0.7662  0.1567
10005TIP3    H151430   4.716   6.603   4.127 -0.2177 -2.0434  0.2279
10005TIP3    H251431   4.857   6.564   4.165  0.9809  1.7360  0.0701
10006TIP3   OH251432   3.972   1.103   4.571 -0.2168  0.4211 -0.5874
10006TIP3    H151433   3.950   1.076   4.482 -0.7831  0.1967 -0.3883
10006TIP3    H251434   3.985   1.197   4.565  0.1370  0.3507 -0.9808
10007TIP3   OH251435   2.114   0.754   0.555 -0.2569 -0.1800 -0.2335
10007TIP3    H151436   2.168   0.679   0.579 -0.6324 -0.6533 -0.8619
10007TIP3    H251437   2.046   0.718   0.498 -0.0859  0.7247 -1.0394
10008TIP3   OH251438   5.102   6.177  12.813 -0.0669  0.3039  0.0533
10008TIP3    H151439   5.087   6.263  12.851 -1.7514  0.2554 -0.4125
10008TIP3    H251440   5.033   6.167  12.747  1.0370 -0.7734 -0.9971
10009TIP3   OH251441   1.711   2.750  16.010  0.1917  0.2554  0.0976
10009TIP3    H151442   1.663   2.739  15.927  0.5226  0.0727 -0.0735
10009TIP3    H251443   1.647   2.728  16.078 -0.0190  0.1931 -0.1204
10010TIP3   OH251444   0.768   6.408   2.503 -0.6581  0.1375 -0.0361
10010TIP3    H151445   0.760   6.428   2.596 -0.2574  0.1852 -0.0100
10010TIP3    H251446   0.761   6.312   2.499 -0.0830  0.0865  0.1091
10011TIP3   OH251447   6.080   0.689  16.736  0.3571  0.3402 -0.4127
10011TIP3    H151448   6.102   0.705  16.827  0.2800 -2.2873  0.1331
10011TIP3    H251449   6.146   0.737  16.686  1.6419  0.1458  1.0595
10012TIP3   OH251450   5.700   6.026   6.086 -0.0720 -0.3226  0.2777
10012TIP3    H151451   5.780   6.057   6.129  1.5277 -0.7689 -2.1697
10012TIP3    H251452   5.631   6.042   6.150  1.9174  0.3300  2.4079
10013TIP3   OH251453   1.239   3.885  15.179 -0.1383 -0.3725  0.1696
10013TIP3    H151454   1.151   3.904  15.146 -1.1813 -1.2488  2.2717
10013TIP3    H251455   1.248   3.790  15.170  0.2640 -0.3885  0.7310
10014TIP3   OH251456   3.617   0.790   3.809  0.0755 -0.0408  0.0426
10014TIP3    H151457   3.699   0.751   3.778 -0.1386 -1.3205  1.0034
10014TIP3    H251458   3.550   0.754   3.751  0.1902  1.2084 -0.9091
10015TIP3   OH251459   4.690   1.838   5.054  0.4385  0.0340 -0.6276
10015TIP3    H151460   4.748   1.762   5.062 -1.9394 -1.7758  0.8986
10015TIP3    H251461   4.617   1.808   4.999 -1.1865  0.7127  1.0315
10016TIP3   OH251462   1.634   3.926   2.629  0.1201  0.1985  0.0643
10016TIP3    H151463   1.719   3.898   2.662  0.3035  1.1538  0.4307
10016TIP3    H251464   1.589   3.962   2.706 -0.4176  0.1732 -0.2311
10017TIP3   OH251465   5.705   2.100  14.812  0.6260  0.4440 -0.7284
10017TIP3    H151466   5.738   2.055  14.735 -1.9067 -2.1863 -0.4527
10017TIP3    H251467   5.714   2.037  14.884 -2.8274  0.2548 -0.2668
10018TIP3   OH251468   3.102   2.150  10.912  0.9062  0.2973 -0.4939
10018TIP3    H151469   3.081   2.195  10.831  0.0525  3.1026  1.1343
10018TIP3    H251470   3.042   2.076  10.915  0.5237  0.5072 -2.1045
10019TIP3   OH251471   4.288   0.893   6.389  0.2075 -0.0962  0.2964
10019TIP3    H151472   4.267   0.836   6.315 -1.9584 -0.3282  1.0171
10019TIP3    H251473   4.356   0.846   6.436 -1.0574 -1.8402  0.5049
10020TIP3   OH251474   4.074   1.889  16.778 -0.3905  0.1132 -0.6126
10020TIP3    H151475   3.984   1.909  16.801  0.4551  0.4893  2.9684
10020TIP3    H251476   4.082   1.794  16.793 -0.2237  0.0709 -0.9653
10021TIP3   OH251477   4.525   0.791   3.827  0.3178  0.5660 -0.2781
10021TIP3    H151478   4.529   0.721   3.762  0.7675 -0.1407  0.4889
10021TIP3    H251479   4.616   0.817   3.841  0.1969  0.9465 -0.1728
10022TIP3   OH251480   2.552   4.803  11.136 -0.4879  0.3131  0.4824
10022TIP3    H151481   2.484   4.736  11.142 -0.0982 -0.0428  0.9794
10022TIP3    H251482   2.626   4.759  11.094 -0.8835  0.9632 -0.9372
10023TIP3   OH251483   4.709   2.152   5.023 -0.6296  0.1834  0.1760
10023TIP3    H151484   4.630   2.122   5.069 -0.9587 -0.9383 -1.0577
10023TIP3    H251485   4.698   2.121   4.933  1.9213 -1.3634  0.2986
10024TIP3   OH251486   0.676   5.233   5.570 -0.2149  0.1641  0.3725
10024TIP3    H151487   0.606   5.265   5.513  0.4533 -0.3464 -0.7542
10024TIP3    H251488   0.727   5.174   5.515  1.1109  0.5299  1.1747
10025TIP3   OH251489   2.636   1.895   4.041  0.0456 -0.2591 -0.2968
10025TIP3    H151490   2.693   1.853   4.106 -0.3219 -0.6584 -0.2284
10025TIP3    H251491   2.696   1.941   3.983  0.4518 -0.8320 -0.3336
10026TIP3   OH251492   5.955   3.062  14.159 -0.7364 -0.3926  0.0602
10026TIP3    H151493   5.930   3.128  14.224  0.8772 -1.4067  1.8262
10026TIP3    H251494   5.876   3.049  14.107 -1.4094  2.1775  0.2673
10027TIP3   OH251495   5.475   6.070   5.150  0.4041  0.1063 -0.4077
10027TIP3    H151496   5.538   6.140   5.171 -0.0079  0.6848 -1.0586
10027TIP3    H251497   5.443   6.092   5.063 -1.7207  0.6092  0.4216
10028TIP3   OH251498   0.556   3.332   3.207 -0.3878  0.0851  0.6602
10028TIP3    H151499   0.577   3.325   3.300 -2.1622  0.5107  1.1319
10028TIP3    H251500   0.508   3.414   3.200  0.9532  0.7870 -0.9052
10029TIP3   OH251501   6.548   1.441  12.494 -0.1182 -0.0893 -0.0329
10029TIP3    H151502   6.466   1.435  12.543  0.0982  1.5364  0.5980
10029TIP3    H251503   6.548   1.363  12.438 -2.0349 -0.1826  0.0133
10030TIP3   OH251504   1.105   3.895   5.924  0.0390  0.1577 -0.0213
10030TIP3    H151505   1.079   3.867   5.836  0.8479  0.2846 -0.3039
10030TIP3    H251506   1.059   3.835   5.982  1.1064 -1.2720 -0.5939
10031TIP3   OH251507   6.585   1.490   5.341 -0.1770 -0.1398  0.0048
10031TIP3    H151508   6.679   1.469   5.338  0.1623  1.2890 -0.0485
10031TIP3    H251509   6.556   1.457   5.426  0.4847 -0.1588  0.2299
10032TIP3   OH251510   4.652   6.264   5.589  0.3076  0.0750  0.5394
10032TIP3    H151511   4.700   6.301   5.663 -0.9703 -1.3825  2.1769
10032TIP3    H251512   4.663   6.169   5.598 -1.3181 -0.1989 -0.1101
10033TIP3   OH251513   2.089   6.085   5.043  0.1029 -0.5028 -0.3673
10033TIP3    H151514   2.000   6.057   5.021 -0.6765  0.8454  0.8587
10033TIP3    H251515   2.146   6.025   4.996 -1.4632 -1.6331 -0.8886
10034TIP3   OH251516   5.149   0.634  15.680 -0.2551  0.1772  0.0807
10034TIP3    H151517   5.063   0.602  15.653  0.1281 -1.2732  0.4796
10034TIP3    H251518   5.131   0.715  15.728 -1.4167 -0.1852  0.2768
10035TIP3   OH251519   3.705   3.705   5.129  0.1961  0.1693 -0.2556
10035TIP3    H151520   3.795   3.700   5.162 -0.0389 -1.3188  0.2324
10035TIP3    H251521   3.666   3.621   5.153 -1.1091  0.5016 -1.1100
10036TIP3   OH251522   3.883   5.066  17.098 -0.0403  0.7872 -0.1998
10036TIP3    H151523   3.827   5.125  17.048  0.7161 -0.4376 -2.6581
10036TIP3    H251524   3.824   4.997  17.129 -0.4638  1.4122  0.4328
10037TIP3   OH251525   5.614   3.847   2.495 -0.1965 -0.5158  0.4390
10037TIP3    H151526   5.590   3.918   2.436  0.5082  0.1033  0.8801
10037TIP3    H251527   5.605   3.885   2.583  1.2265 -0.6105  0.6576
10038TIP3   OH251528   6.434   5.841   1.980  0.1654 -0.4109  0.2874
10038TIP3    H151529   6.444   5.747   1.961  0.3829 -0.6601  1.5535
10038TIP3    H251530   6.517   5.867   2.020 -0.4572 -0.0794  1.4247
10039TIP3   OH251531   0.587   1.546   1.640 -0.1239 -0.1550  0.6299
10039TIP3    H151532   0.611   1.546   1.547  0.3237 -0.7237  0.7425
10039TIP3    H251533   0.507   1.598   1.644 -1.8072 -2.5040 -0.4838
10040TIP3   OH251534   1.202   6.224   2.791  0.3907  0.1610  0.2271
10040TIP3    H151535   1.285   6.181   2.772  1.1579  0.9588  1.6375
10040TIP3    H251536   1.169   6.180   2.869 -1.2238 -1.0588 -1.0732
10041TIP3   OH251537   0.714   5.138  10.889 -0.5955 -0.9491 -0.4438
10041TIP3    H151538   0.674   5.070  10.834 -0.8138  0.0513 -1.5606
10041TIP3    H251539   0.791   5.167  10.839  0.4600 -1.5312  0.8079
10042TIP3   OH251540   6.336   1.737   2.342  0.0046  0.4912 -0.3757
10042TIP3    H151541   6.406   1.757   2.405  0.6038 -0.6916 -0.6362
10042TIP3    H251542   6.345   1.804   2.275  0.4458  0.7651 -0.0532
10043TIP3   OH251543   0.687   2.865  14.343  0.2973  0.0052 -0.1766
10043TIP3    H151544   0.618   2.835  14.403 -0.2204 -0.6987 -1.0955
10043TIP3    H251545   0.748   2.792  14.338  0.6267  0.2734 -0.0856
10044TIP3   OH251546   2.155   3.496  12.447  0.2447 -0.2457  0.2183
10044TIP3    H151547   2.072   3.476  12.404 -0.5989 -0.2826  1.8137
10044TIP3    H251548   2.193   3.411  12.467  0.3362 -0.2262  0.1306
10045TIP3   OH251549   2.633   5.136   4.297 -0.5487  0.3573  0.0102
10045TIP3    H151550   2.679   5.124   4.380 -1.0618  0.1547  0.2688
10045TIP3    H251551   2.649   5.056   4.248  1.8784  1.4577 -1.1566
10046TIP3   OH251552   1.217   1.323   1.447 -0.7107 -0.7835  0.2563
10046TIP3    H151553   1.275   1.268   1.501 -1.1893 -2.1148 -0.5342
10046TIP3    H251554   1.129   1.296   1.472 -0.9425 -1.2632 -0.9999
10047TIP3   OH251555   1.405   5.005   2.970  0.3934 -0.8021  0.2455
10047TIP3    H151556   1.334   5.019   3.032 -0.5311  1.9972 -1.2754
10047TIP3    H251557   1.485   5.021   3.021 -0.3804  4.0327  0.4530
10048TIP3   OH251558   3.153   4.446  16.028  0.2291 -0.5558  0.0194
10048TIP3    H151559   3.145   4.366  16.081 -0.8508 -1.9625 -2.0983
10048TIP3    H251560   3.076   4.444  15.971 -0.7075  2.8995  0.9475
10049TIP3   OH251561   2.440   5.289  15.026  0.1902 -0.2281  0.2177
10049TIP3    H151562   2.390   5.253  15.099 -2.1982  2.0965 -0.1029
10049TIP3    H251563   2.505   5.346  15.067  0.3868 -0.7148  0.5844
10050TIP3   OH251564   3.966   5.686  15.170  0.1431  0.1393 -0.6882
10050TIP3    H151565   4.042   5.715  15.221 -0.4297  2.0127 -0.8071
10050TIP3    H251566   3.892   5.700  15.229 -0.2242 -0.7031 -0.9386
10051TIP3   OH251567   1.595   0.911   5.382 -0.0709  0.6217  0.4311
10051TIP3    H151568   1.623   0.826   5.348  1.7359  1.4601 -0.3189
10051TIP3    H251569   1.567   0.893   5.472  0.1013 -0.7991  0.2148
10052TIP3   OH251570   6.208   0.592   2.257  0.3075  0.0192  0.2556
10052TIP3    H151571   6.200   0.507   2.214 -0.6541 -0.1381  0.7271
10052TIP3    H251572   6.271   0.577   2.328  1.0378  0.0029 -0.3883
10053TIP3   OH251573   3.010   3.836  12.872  0.3466 -0.1524 -0.5578
10053TIP3    H151574   2.962   3.866  12.795  0.2090  0.6106 -0.1791
10053TIP3    H251575   3.046   3.916  12.912 -0.2066 -0.4463  0.5822
10054TIP3   OH251576   4.530   6.686   0.673 -0.3765 -0.0982  0.2231
10054TIP3    H151577   4.534   6.599   0.634 -3.9580 -1.2918  2.0386
10054TIP3    H251578   4.566   6.744   0.607 -0.2470 -2.6798 -2.1287
10055TIP3   OH251579   0.716   2.657   3.457  0.6598 -1.0173 -0.2583
10055TIP3    H151580   0.621   2.670   3.454  0.7914 -0.0263 -0.3845
10055TIP3    H251581   0.740   2.639   3.366  0.5706 -1.4650 -0.1953
10056TIP3   OH251582   6.051   1.110  13.825  0.5790 -0.3483 -0.1554
10056TIP3    H151583   6.057   1.080  13.734  2.3009 -0.4960 -0.0282
10056TIP3    H251584   5.990   1.050  13.867  0.4246 -0.7987 -1.0051
10057TIP3   OH251585   6.221   4.647   6.717  0.4942  0.1840 -0.5192
10057TIP3    H151586   6.258   4.672   6.632 -0.5625 -1.8757 -1.6650
10057TIP3    H251587   6.135   4.691   6.719  1.3987  1.9888  0.5005
10058TIP3   OH251588   3.906   2.176  14.890  0.2785 -0.1899 -0.6286
10058TIP3    H151589   3.883   2.255  14.939  0.0897  0.0404 -1.0743
10058TIP3    H251590   3.997   2.158  14.914  0.2126 -0.0384 -0.2582
10059TIP3   OH251591   5.129   1.992   1.301  0.2877  0.1669 -0.2792
10059TIP3    H151592   5.169   1.994   1.388  0.8272 -3.0441 -0.3409
10059TIP3    H251593   5.035   1.990   1.318  0.3603  0.5193  0.1888
10060TIP3   OH251594   4.358   0.121   4.760 -0.8377 -0.4387 -0.3861
10060TIP3    H151595   4.415   0.169   4.701 -0.9995 -0.5573 -0.6382
10060TIP3    H251596   4.388   0.146   4.848 -0.2577 -0.6619 -0.5108
10061TIP3   OH251597   1.637   6.401  15.994  0.0497 -0.2208  0.7046
10061TIP3    H151598   1.669   6.473  15.939  0.0079  0.5666  1.6794
10061TIP3    H251599   1.549   6.384  15.962 -0.4011  0.9973  1.2274
10062TIP3   OH251600   4.102   5.246  15.686  0.3736  0.1344  0.1673
10062TIP3    H151601   4.074   5.237  15.777 -1.1994  0.3509 -0.2683
10062TIP3    H251602   4.037   5.305  15.646  1.0620  0.0854 -1.0791
10063TIP3   OH251603   0.308   5.493   3.284  0.0239 -0.4255  0.0047
10063TIP3    H151604   0.318   5.556   3.356 -0.6553 -0.0206 -0.2438
10063TIP3    H251605   0.310   5.547   3.205 -0.9289 -0.6699 -0.1948
10064TIP3   OH251606   3.059   0.050   2.485  0.0332 -0.3588 -0.4141
10064TIP3    H151607   3.138   0.019   2.530 -1.2135 -0.1684  2.0811
10064TIP3    H251608   3.086   0.132   2.443  1.0377  0.0279  0.9249
10065TIP3   OH251609   6.545   3.289   2.550  0.7090  0.0890  0.0701
10065TIP3    H151610   6.574   3.360   2.607  2.1420  0.0191 -0.5355
10065TIP3    H251611   6.500   3.334   2.478  0.3932  0.2845  0.3845
10066TIP3   OH251612   0.363   6.567  15.217  0.3288  0.5927  0.0322
10066TIP3    H151613   0.417   6.641  15.189 -0.9891  1.4908 -0.2243
10066TIP3    H251614   0.410   6.529  15.291  1.3025  1.3384 -0.1862
10067TIP3   OH251615   2.592   0.359  11.244  0.1532 -0.1910 -0.3715
10067TIP3    H151616   2.507   0.376  11.283  0.3417  0.7271 -0.3384
10067TIP3    H251617   2.602   0.264  11.248 -1.1611 -0.3755 -1.0081
10068TIP3   OH251618   3.017   2.347  13.920  0.8321  0.2705 -0.2421
10068TIP3    H151619   3.069   2.406  13.866 -0.5177  0.4416 -1.3956
10068TIP3    H251620   3.058   2.261  13.909  1.0265  0.4479 -0.9214
10069TIP3   OH251621   2.706   0.654   2.515  0.2711 -0.8040 -0.3809
10069TIP3    H151622   2.801   0.665   2.519  0.1926  0.5954 -1.5771
10069TIP3    H251623   2.680   0.636   2.605  1.3524  1.8636  0.5591
10070TIP3   OH251624   6.444   6.275   3.557  0.4271  0.2931  0.1842
10070TIP3    H151625   6.421   6.346   3.616 -1.8608 -0.2062 -0.0259
10070TIP3    H251626   6.420   6.195   3.604 -0.0541 -0.1827 -0.8341
10071TIP3   OH251627   1.080   1.413  16.201  0.3062 -0.5444  0.7931
10071TIP3    H151628   1.043   1.433  16.287  0.6374  1.6115  0.4777
10071TIP3    H251629   1.026   1.463  16.140  0.4631 -1.5700 -0.2158
10072TIP3   OH251630   3.429   2.122  12.372 -0.2973  0.7763 -0.4848
10072TIP3    H151631   3.489   2.109  12.445  1.0042 -0.0260 -1.6320
10072TIP3    H251632   3.475   2.183  12.314 -0.2738 -0.3279 -1.6731
10073TIP3   OH251633   1.302   4.966   1.892 -0.1673 -0.2128  0.9311
10073TIP3    H151634   1.296   4.954   1.798 -0.8623 -2.8283  1.2284
10073TIP3    H251635   1.252   5.046   1.910 -0.2743  0.1569 -0.8616
10074TIP3   OH251636   3.094   2.731   5.022  0.4181 -0.4856  0.1113
10074TIP3    H151637   3.050   2.725   5.107  1.2652 -1.1333  0.5216
10074TIP3    H251638   3.148   2.652   5.017  0.3091 -0.4998 -1.0799
10075TIP3   OH251639   5.665   6.209  14.631 -0.5370 -0.0871 -0.0770
10075TIP3    H151640   5.575   6.197  14.662 -0.2750  1.7679  1.5651
10075TIP3    H251641   5.655   6.229  14.538 -1.9081  0.9285  0.2510
10076TIP3   OH251642   3.364   5.858   1.694 -0.0028  0.3697 -0.2796
10076TIP3    H151643   3.400   5.830   1.777  0.8939  1.0491 -0.4212
10076TIP3    H251644   3.419   5.932   1.667 -0.5060  0.4052 -1.2894
10077TIP3   OH251645   1.579   6.587  11.717  0.2375 -0.0756  0.1349
10077TIP3    H151646   1.495   6.568  11.759  0.3054  0.4370  0.5071
10077TIP3    H251647   1.586   6.682  11.719  0.3558 -0.0559 -0.8261
10078TIP3   OH251648   2.262   3.153  15.094 -0.6746  0.1849 -0.0796
10078TIP3    H151649   2.296   3.135  15.182  0.7439 -0.5411 -0.7361
10078TIP3    H251650   2.167   3.156  15.105 -0.4754  3.1329  2.0132
10079TIP3   OH251651   3.340   3.097  15.468  0.0293  0.0395 -0.1181
10079TIP3    H151652   3.306   3.100  15.557  0.0329  1.2366 -0.1399
10079TIP3    H251653   3.382   3.012  15.461 -1.8347 -0.9560  0.3130
10080TIP3   OH251654   0.454   2.393  17.107 -0.5508  0.1523  0.8074
10080TIP3    H151655   0.430   2.483  17.128 -0.8247 -0.2162  2.1306
10080TIP3    H251656   0.507   2.401  17.028 -2.9781  1.2197 -0.8560
10081TIP3   OH251657   2.962   5.457  12.472 -0.4364  0.2819 -0.4498
10081TIP3    H151658   3.028   5.413  12.526 -1.2675  0.9641  1.1920
10081TIP3    H251659   2.906   5.502  12.535 -2.5911 -0.3977 -1.7756
10082TIP3   OH251660   3.637   5.721   3.013 -0.3652  0.4622  0.1126
10082TIP3    H151661   3.639   5.694   3.104  1.5169 -3.3195 -0.8470
10082TIP3    H251662   3.545   5.724   2.990 -0.8173 -2.2461  1.2538
10083TIP3   OH251663   1.787   4.765   2.360  0.2811 -0.6057  0.3254
10083TIP3    H151664   1.798   4.683   2.408 -0.7022 -0.7132  0.3799
10083TIP3    H251665   1.765   4.830   2.427 -1.4559 -0.8316  0.0011
10084TIP3   OH251666   4.514   3.562  10.883  0.0954 -0.0008 -0.0103
10084TIP3    H151667   4.509   3.483  10.829  0.1639 -0.8115  1.1373
10084TIP3    H251668   4.443   3.618  10.850  1.8267  0.7594 -2.7850
10085TIP3   OH251669   2.664   6.011  15.076  0.5559 -0.0604  0.3503
10085TIP3    H151670   2.668   6.025  15.171 -0.1595  0.1463  0.3555
10085TIP3    H251671   2.573   5.987  15.060  0.1450  1.9560 -0.5645
10086TIP3   OH251672   0.881   0.835  13.737 -0.1427  0.2268  0.1347
10086TIP3    H151673   0.872   0.928  13.758 -0.1173 -0.0987  1.7297
10086TIP3    H251674   0.804   0.794  13.778 -0.6554 -0.3608 -1.3468
10087TIP3   OH251675   0.275   3.767   5.461 -0.0816  0.8715  0.4466
10087TIP3    H151676   0.344   3.702   5.473 -0.8069 -0.3260 -1.5071
10087TIP3    H251677   0.273   3.814   5.544  0.6647 -1.3857  1.8371
10088TIP3   OH251678   0.482   2.113   0.429  0.5059 -0.0654 -0.3180
10088TIP3    H151679   0.537   2.047   0.471  0.8666 -1.6982 -3.0870
10088TIP3    H251680   0.405   2.065   0.398 -0.4052  1.3156 -0.3264
10089TIP3   OH251681   5.743   1.191   0.131  0.3016  0.3188 -0.2306
10089TIP3    H151682   5.732   1.169   0.038  1.9730 -0.4135 -0.2949
10089TIP3    H251683   5.660   1.167   0.172 -0.5216  0.8127 -1.5487
10090TIP3   OH251684   2.060   4.797  14.298 -0.1548 -0.1826  0.0408
10090TIP3    H151685   2.089   4.764  14.213 -2.0549 -0.8530 -0.4087
10090TIP3    H251686   2.025   4.720  14.343 -1.1352  0.5387  0.5553
10091TIP3   OH251687   0.423   0.695   2.243  0.4847  0.3161  0.5511
10091TIP3    H151688   0.378   0.720   2.161  0.5304 -0.4143  0.2951
10091TIP3    H251689   0.486   0.628   2.216 -0.8928 -1.4253  1.4636
10092TIP3   OH251690   0.256   2.564  11.011  0.4651  0.1573 -0.3009
10092TIP3    H151691   0.180   2.620  10.997 -0.5010 -0.5813  1.6191
10092TIP3    H251692   0.283   2.539  10.923 -0.4045  1.8602 -1.1079
10093TIP3   OH251693   5.921   1.900   2.646 -0.0684  0.3675  0.6521
10093TIP3    H151694   5.945   1.919   2.737  1.5385  0.4317  0.2398
10093TIP3    H251695   5.913   1.986   2.605  1.3593  0.3286  0.2312
10094TIP3   OH251696   1.090   0.305  14.431  0.4294 -0.1587  0.1779
10094TIP3    H151697   1.107   0.388  14.387  0.1088  1.2125  2.4684
10094TIP3    H251698   1.033   0.257  14.371  0.7782  1.1779 -1.2765
10095TIP3   OH251699   5.669   2.467  13.650 -0.1903  0.3841 -0.0795
10095TIP3    H151700   5.638   2.382  13.618  1.3742  0.0454 -0.7963
10095TIP3    H251701   5.674   2.457  13.745 -1.1222  0.0816 -0.0505
10096TIP3   OH251702   0.457   3.243  16.459 -0.8814  0.2320  0.1707
10096TIP3    H151703   0.474   3.149  16.470 -1.4968 -0.0373 -1.0053
10096TIP3    H251704   0.365   3.254  16.481 -1.0539  0.3905 -0.6029
10097TIP3   OH251705   3.928   1.140  17.146  0.2967  0.5123 -0.0009
10097TIP3    H151706   3.951   1.177  17.231  2.2205  0.2212 -0.3451
10097TIP3    H251707   4.012   1.118  17.106 -0.4318  2.1110 -2.6829
10098TIP3   OH251708   1.085   4.987  12.836  0.3437 -0.0131 -0.3943
10098TIP3    H151709   1.015   4.925  12.857 -0.2877  0.2351 -1.6553
10098TIP3    H251710   1.159   4.932  12.809  0.5607 -0.2687  0.6966
10099TIP3   OH251711   4.930   1.003   5.433  0.1737 -0.2273 -0.1571
10099TIP3    H151712   4.941   0.936   5.366  0.2974  1.1514 -1.5678
10099TIP3    H251713   5.014   1.049   5.435  0.0763 -0.0715  0.7503
10100TIP3   OH251714   4.666   2.724   5.934  0.2469 -0.2850  0.7438
10100TIP3    H151715   4.596   2.659   5.927 -1.4720  1.6019 -0.5463
10100TIP3    H251716   4.661   2.755   6.025 -1.4065  0.6231  0.3869
10101TIP3   OH251717   1.327   2.519   6.411 -0.2371  0.1471  0.1000
10101TIP3    H151718   1.275   2.598   6.399 -1.0874 -0.5639 -1.1400
10101TIP3    H251719   1.270   2.460   6.461 -0.2005 -0.2190 -0.2799
10102TIP3   OH251720   4.911   6.233   2.147 -0.0550 -0.0784 -0.5989
10102TIP3    H151721   4.943   6.241   2.237 -3.5435  0.4632  0.7486
10102TIP3    H251722   4.924   6.320   2.110 -0.7966  0.4181  0.2503
10103TIP3   OH251723   3.352   1.357  11.117  0.4393 -0.3680 -0.6141
10103TIP3    H151724   3.383   1.448  11.111 -0.8354  0.0958 -0.5878
10103TIP3    H251725   3.270   1.356  11.067  0.4114 -1.4968 -0.5750
10104TIP3   OH251726   6.620   1.730  16.574 -0.2733 -0.2555  0.0386
10104TIP3    H151727   6.631   1.825  16.576  0.4408 -0.3159 -0.4612
10104TIP3    H251728   6.708   1.695  16.588 -0.5561 -0.8507  0.4009
10105TIP3   OH251729   5.582   5.020   5.837 -0.0976  0.2420  0.1845
10105TIP3    H151730   5.608   5.094   5.893 -0.0023 -0.5275  1.1777
10105TIP3    H251731   5.589   5.054   5.748  0.0972  1.3847  0.6199
10106TIP3   OH251732   5.627   0.857   1.050 -0.1491 -1.1234  0.0924
10106TIP3    H151733   5.605   0.946   1.023  0.0876 -0.5344  1.7244
10106TIP3    H251734   5.580   0.800   0.988  0.9524  0.0970 -1.9676
10107TIP3   OH251735   3.851   6.170   0.677  0.1210 -0.1275 -0.4037
10107TIP3    H151736   3.787   6.239   0.658 -0.5968 -0.5864  0.2467
10107TIP3    H251737   3.802   6.108   0.732  0.3082 -1.8770 -2.1255
10108TIP3   OH251738   6.594   5.172   2.313  0.1667  0.3464  0.1771
10108TIP3    H151739   6.616   5.241   2.250 -0.5482  0.0472 -0.4308
10108TIP3    H251740   6.593   5.216   2.398  1.4312  0.6972  0.0222
10109TIP3   OH251741   4.704   3.759  13.344 -0.5531 -0.3122 -0.2310
10109TIP3    H151742   4.636   3.826  13.348  1.8944  2.4380 -0.8485
10109TIP3    H251743   4.735   3.762  13.253  0.9524 -0.8504  0.2332
10110TIP3   OH251744   5.992   5.765  13.278 -0.4731  0.1673  0.1227
10110TIP3    H151745   6.026   5.759  13.368 -1.6713  0.0591  0.5900
10110TIP3    H251746   5.897   5.768  13.289 -0.8188 -2.5893 -1.2627
10111TIP3   OH251747   0.206   3.497  13.744  0.3526 -1.0271 -0.2649
10111TIP3    H151748   0.142   3.551  13.790  0.7514  0.0973 -0.9872
10111TIP3    H251749   0.179   3.407  13.762 -0.7341 -0.5862  0.3937
10112TIP3   OH251750   3.185   3.372  16.868 -0.2743  0.2116  0.3521
10112TIP3    H151751   3.215   3.389  16.779  1.9165  1.3435  1.2196
10112TIP3    H251752   3.218   3.285  16.889  0.6114  0.5897  0.5724
10113TIP3   OH251753   0.222   3.195  12.996 -0.0887 -0.1879 -0.7047
10113TIP3    H151754   0.288   3.216  13.063 -0.5317 -2.1442  0.4214
10113TIP3    H251755   0.155   3.262  13.007 -0.1177 -0.4229  0.8137
10114TIP3   OH251756   4.869   2.043   1.315 -0.2726  0.6552  0.2444
10114TIP3    H151757   4.845   2.008   1.400  1.0458 -1.4242 -0.1775
10114TIP3    H251758   4.789   2.038   1.263 -0.2478 -1.5161  0.3213
10115TIP3   OH251759   1.295   5.372  14.726 -0.1585  0.1773  0.2016
10115TIP3    H151760   1.206   5.351  14.698  0.2053 -0.3600 -0.5723
10115TIP3    H251761   1.303   5.330  14.812 -0.7603  0.5362  0.4446
10116TIP3   OH251762   1.723   1.110  15.087  0.0348 -0.4206 -0.3071
10116TIP3    H151763   1.798   1.052  15.100  0.4183  0.2021  0.3368
10116TIP3    H251764   1.685   1.119  15.174  0.5516  1.0374 -0.1986
10117TIP3   OH251765   4.945   1.351  12.954 -0.4155 -0.1110 -0.0741
10117TIP3    H151766   4.962   1.354  12.860  1.5358 -1.8050  0.1377
10117TIP3    H251767   5.028   1.376  12.994 -1.0297 -0.0361  1.2056
10118TIP3   OH251768   1.545   4.476  13.587 -0.1401  0.1569  0.0707
10118TIP3    H151769   1.497   4.482  13.669  0.8270 -0.9105  0.7547
10118TIP3    H251770   1.637   4.482  13.612  0.1400  1.3591 -1.1152
10119TIP3   OH251771   6.066   0.810   3.565 -0.2256  0.5825 -0.4839
10119TIP3    H151772   6.090   0.902   3.553 -1.5716  1.2253  1.3100
10119TIP3    H251773   6.116   0.782   3.642 -1.0703  0.3072 -0.0291
10120TIP3   OH251774   3.951   1.296  12.154  0.2738 -0.3268 -0.2276
10120TIP3    H151775   4.000   1.303  12.073 -0.9027 -1.2117 -1.0546
10120TIP3    H251776   3.876   1.354  12.142  0.5389  0.2077  0.5910
10121TIP3   OH251777   2.902   2.523   2.567 -0.3596 -0.8045  0.0125
10121TIP3    H151778   2.808   2.539   2.560 -0.0445  0.4964 -2.7024
10121TIP3    H251779   2.936   2.600   2.613 -0.3067  0.5609 -2.1410
10122TIP3   OH251780   4.055   2.374  15.265  0.2242  0.4690  0.7752
10122TIP3    H151781   4.025   2.453  15.310  0.2627  1.3124 -0.6301
10122TIP3    H251782   4.136   2.401  15.221  0.6403 -0.5661  0.8689
10123TIP3   OH251783   3.952   5.011  14.888 -0.0829  0.7864 -0.2909
10123TIP3    H151784   3.879   5.019  14.827 -1.3233 -0.1890  0.9996
10123TIP3    H251785   3.934   4.931  14.936  0.9046  1.4681  1.2898
10124TIP3   OH251786   4.658   5.923   1.047 -0.3978 -0.3027  0.7881
10124TIP3    H151787   4.661   6.019   1.048 -1.8838 -0.2314  1.2864
10124TIP3    H251788   4.631   5.901   0.958  1.5365 -0.3686  0.1709
10125TIP3   OH251789   2.886   0.193  16.916  0.0400  0.2625 -0.0683
10125TIP3    H151790   2.829   0.135  16.965  0.2738  0.8461  0.9116
10125TIP3    H251791   2.884   0.159  16.826 -1.7615  0.2123 -0.0379
10126TIP3   OH251792   1.852   2.705   6.580  0.5520 -0.4540  0.4260
10126TIP3    H151793   1.773   2.674   6.625  0.1944 -1.1476 -0.6499
10126TIP3    H251794   1.920   2.644   6.607  0.3041 -0.9599 -0.0919
10127TIP3   OH251795   6.282   5.400   5.801  0.1738  0.1344  0.7057
10127TIP3    H151796   6.218   5.338   5.837  0.4566  0.2455  1.4211
10127TIP3    H251797   6.357   5.393   5.859  0.5007  0.5983  0.3416
10128TIP3   OH251798   3.836   5.882  11.327 -0.2067 -0.1640 -0.5231
10128TIP3    H151799   3.798   5.970  11.337  0.5701  0.1547 -0.3374
10128TIP3    H251800   3.924   5.897  11.292  0.1540 -0.8323  0.0668
10129TIP3   OH251801   1.527   5.955  15.397 -0.1624  0.5313 -0.4878
10129TIP3    H151802   1.490   6.008  15.327  2.9190  1.2583 -1.7303
10129TIP3    H251803   1.519   6.010  15.475 -0.5179  1.2048 -0.9906
10130TIP3   OH251804   1.055   3.217   5.185  0.0371  0.3904  0.4031
10130TIP3    H151805   0.973   3.251   5.219  0.4084  1.2395  0.4724
10130TIP3    H251806   1.082   3.151   5.248 -0.8473 -0.2770  0.1048
10131TIP3   OH251807   4.474   5.686   1.455 -0.5541 -0.8075  0.4726
10131TIP3    H151808   4.531   5.702   1.530 -1.1126  0.7247  0.6048
10131TIP3    H251809   4.386   5.697   1.489 -0.8156 -0.0704 -0.3832
10132TIP3   OH251810   2.702   3.532  14.607 -0.7290 -0.4345  0.5163
10132TIP3    H151811   2.649   3.454  14.621 -1.5414 -0.1761 -0.9696
10132TIP3    H251812   2.783   3.514  14.654 -0.9376 -2.1424  0.2888
10133TIP3   OH251813   4.171   1.678  14.000  0.4780  0.2911 -0.0695
10133TIP3    H151814   4.165   1.766  13.964  1.7912  0.4609  0.0547
10133TIP3    H251815   4.096   1.631  13.964  1.7210  0.4335 -3.1616
10134TIP3   OH251816   6.770   0.964   3.621  0.2938 -0.0598  0.3256
10134TIP3    H151817   6.715   0.910   3.563 -0.4119 -0.4706  1.3479
10134TIP3    H251818   6.730   1.051   3.616 -0.8765 -0.4877  1.5285
10135TIP3   OH251819   4.279   2.154  14.402  0.2967  0.4131  0.0680
10135TIP3    H151820   4.357   2.156  14.346  1.0043  0.0416  1.0110
10135TIP3    H251821   4.307   2.198  14.482 -0.9452  1.6523 -0.1464
10136TIP3   OH251822   4.479   6.575   5.002 -0.0810  0.2500 -0.0516
10136TIP3    H151823   4.522   6.634   4.940  0.6614  1.4056  1.4929
10136TIP3    H251824   4.527   6.588   5.084 -2.7674  0.9184  1.5317
10137TIP3   OH251825   6.011   1.916   0.113 -0.0171 -0.3697  0.0286
10137TIP3    H151826   6.039   1.844   0.057  2.4445 -0.2093  0.9080
10137TIP3    H251827   6.077   1.985   0.099 -0.0598  0.1801  2.0742
10138TIP3   OH251828   1.806   1.443  12.710  0.4369  0.3410 -0.2059
10138TIP3    H151829   1.844   1.435  12.798  0.1319 -0.7428 -0.1477
10138TIP3    H251830   1.870   1.402  12.653 -0.6603 -1.6979 -0.0812
10139TIP3   OH251831   5.132   6.602  14.016  0.4657 -0.0704  0.1287
10139TIP3    H151832   5.063   6.600  13.949  2.1117 -2.0777 -1.6451
10139TIP3    H251833   5.187   6.676  13.991  1.0083 -0.7414 -0.7087
10140TIP3   OH251834   6.185   2.938   0.131  0.3555  0.2247 -0.1797
10140TIP3    H151835   6.097   2.927   0.094  0.6886 -2.2310 -0.4601
10140TIP3    H251836   6.240   2.961   0.056  0.3152 -0.5631 -0.4635
10141TIP3   OH251837   6.556   4.541   3.191  0.9161  0.1540 -0.1247
10141TIP3    H151838   6.646   4.517   3.169  0.6629  0.1210 -1.1942
10141TIP3    H251839   6.515   4.561   3.107 -0.7305 -2.0631  0.0313
10142TIP3   OH251840   3.393   1.139  14.167  0.0654  0.2524 -0.4273
10142TIP3    H151841   3.309   1.106  14.199  0.2491 -1.9287 -1.9558
10142TIP3    H251842   3.369   1.199  14.096 -0.2393 -0.5033 -0.9826
10143TIP3   OH251843   5.082   0.144  10.659 -0.3239 -0.2691 -0.4622
10143TIP3    H151844   5.106   0.064  10.612  1.1022 -1.8798  2.6770
10143TIP3    H251845   5.163   0.197  10.658 -0.4846 -0.0212 -0.3492
10144TIP3   OH251846   0.354   3.060  14.075 -0.1545 -0.0499  0.7144
10144TIP3    H151847   0.334   2.968  14.060  2.9604 -0.8460  0.6447
10144TIP3    H251848   0.348   3.071  14.170  1.0921 -0.8331  0.9091
10145TIP3   OH251849   4.343   6.377   1.059  0.0155  0.2840  0.2576
10145TIP3    H151850   4.340   6.318   0.984  2.3903  0.8443 -0.3569
10145TIP3    H251851   4.378   6.323   1.130  0.9042  0.5937  0.0592
10146TIP3   OH251852   3.484   3.544  17.114  0.3967  0.4226  0.0771
10146TIP3    H151853   3.407   3.500  17.077  0.4904  0.0859  0.2730
10146TIP3    H251854   3.550   3.539  17.044  1.0519 -1.4986  0.7631
10147TIP3   OH251855   1.743   6.080   5.971 -0.0570  0.0024  0.1474
10147TIP3    H151856   1.725   5.987   5.961  0.3850  0.0492 -1.3646
10147TIP3    H251857   1.720   6.119   5.886 -3.0109  1.7929  1.5920
10148TIP3   OH251858   1.250   5.591  13.171  0.1031  0.5690  0.1466
10148TIP3    H151859   1.325   5.588  13.112 -0.4449 -1.0203 -0.5034
10148TIP3    H251860   1.286   5.566  13.256  0.3209 -0.1854 -0.1585
10149TIP3   OH251861   4.578   1.384  10.719  0.2900 -0.1599 -0.0935
10149TIP3    H151862   4.530   1.377  10.637 -0.1750 -1.3807  0.2508
10149TIP3    H251863   4.669   1.399  10.693  0.1067 -0.2965 -0.8258
10150TIP3   OH251864   4.525   0.785   1.445 -0.2386 -0.5530  0.5932
10150TIP3    H151865   4.475   0.733   1.507 -2.8052  0.3557 -0.5806
10150TIP3    H251866   4.463   0.850   1.412  1.9501  1.1880 -0.3912
10151TIP3   OH251867   4.091   2.762  16.198  0.0734  0.0125  0.5043
10151TIP3    H151868   4.101   2.808  16.114  0.5211  0.3318  0.7287
10151TIP3    H251869   4.180   2.738  16.223 -0.2838 -3.3491 -0.8865
10152TIP3   OH251870   2.197   4.302   2.659  0.1985  0.6233  0.1888
10152TIP3    H151871   2.250   4.368   2.702  0.6770  0.8804 -0.7725
10152TIP3    H251872   2.119   4.293   2.715  0.9215  0.7384  1.2362
10153TIP3   OH251873   6.080   6.736  13.165 -0.5470  0.0721  0.5274
10153TIP3    H151874   6.113   6.654  13.128 -0.7349  0.7003 -1.1291
10153TIP3    H251875   6.109   6.735  13.256 -0.6223 -1.8604  0.5648
10154TIP3   OH251876   4.338   2.775   1.014 -0.5088 -1.0113 -0.2215
10154TIP3    H151877   4.428   2.763   1.046 -0.3923 -0.5793 -0.3816
10154TIP3    H251878   4.320   2.868   1.027 -0.4898 -0.8397 -1.3113
10155TIP3   OH251879   4.063   3.774  16.065 -0.1563 -0.3104 -0.2453
10155TIP3    H151880   4.145   3.729  16.046  0.0849  0.0638 -0.1040
10155TIP3    H251881   4.023   3.788  15.980 -0.4786 -1.2423 -0.2582
10156TIP3   OH251882   2.452   2.427   2.870 -0.3931 -0.0915  0.5555
10156TIP3    H151883   2.454   2.413   2.965 -1.4722 -0.1348  0.5887
10156TIP3    H251884   2.366   2.466   2.854  0.4678  1.5827 -0.1910
10157TIP3   OH251885   5.137   6.314  15.289 -0.0005 -0.3186  0.5426
10157TIP3    H151886   5.044   6.292  15.281 -0.4950  2.0235 -1.5849
10157TIP3    H251887   5.138   6.407  15.311  1.7671  0.3037 -1.7682
10158TIP3   OH251888   3.049   2.667  15.462  0.0435  0.1701  0.5370
10158TIP3    H151889   2.967   2.635  15.424  1.2321 -0.3800 -1.7479
10158TIP3    H251890   3.021   2.732  15.526 -2.2215 -1.0181  0.8868
10159TIP3   OH251891   5.815   1.148  10.793  0.2177  0.1102  0.1269
10159TIP3    H151892   5.910   1.136  10.799  0.4080  1.9725  1.5426
10159TIP3    H251893   5.783   1.064  10.760  2.2600 -0.8481  0.4151
10160TIP3   OH251894   1.750   6.745   2.454 -0.2414 -0.0732 -0.2051
10160TIP3    H151895   1.700   6.726   2.534 -1.6896 -1.2914 -1.3303
10160TIP3    H251896   1.738   6.838   2.439  1.0823  0.4607  1.6155
10161TIP3   OH251897   5.319   4.398   3.718 -0.3553  0.4918  0.1064
10161TIP3    H151898   5.359   4.358   3.641 -0.5873  1.5579 -0.5826
10161TIP3    H251899   5.338   4.491   3.710 -0.9647  0.7059  0.9845
10162TIP3   OH251900   6.101   1.321  11.126  0.0884  0.3625 -0.1299
10162TIP3    H151901   6.010   1.291  11.132 -0.0121  0.7311  0.2316
10162TIP3    H251902   6.150   1.243  11.101 -0.3194  0.1473 -0.2735
10163TIP3   OH251903   2.377   1.879  11.668  0.2307  0.0260  0.1528
10163TIP3    H151904   2.365   1.900  11.760  0.1134 -0.0652  0.1596
10163TIP3    H251905   2.380   1.783  11.665  0.6836  0.0391  0.1141
10164TIP3   OH251906   3.112   5.211  14.928  0.3646  0.0167  0.2458
10164TIP3    H151907   3.128   5.159  15.007 -0.2439 -0.1828  0.2500
10164TIP3    H251908   3.054   5.156  14.875  1.1443 -0.0488 -0.5557
10165TIP3   OH251909   0.120   3.195   1.706 -0.0144  0.4165  0.0325
10165TIP3    H151910   0.121   3.164   1.797  3.3828  0.4229  0.1170
10165TIP3    H251911   0.158   3.123   1.656 -1.0144  0.7701 -1.2816
10166TIP3   OH251912   1.324   2.794  15.734  0.0536 -0.2318  0.7016
10166TIP3    H151913   1.300   2.703  15.753 -1.1324  0.0375  0.5239
10166TIP3    H251914   1.241   2.839  15.719  0.6481  0.8102  0.4264
10167TIP3   OH251915   5.733   6.343  12.551  0.0397 -0.4994 -0.2875
10167TIP3    H151916   5.820   6.381  12.564  0.7694 -1.8241 -1.1754
10167TIP3    H251917   5.675   6.399  12.604  1.2962  0.8642 -0.2877
10168TIP3   OH251918   4.734   3.588  14.251 -0.1024  0.1637 -0.7745
10168TIP3    H151919   4.667   3.654  14.269 -0.8781 -0.3519 -1.6864
10168TIP3    H251920   4.816   3.627  14.283 -0.8033  0.8663  0.2039
10169TIP3   OH251921   1.736   4.949  16.261 -0.1812  0.2551  0.4050
10169TIP3    H151922   1.678   5.024  16.272  0.4957  0.7999  0.3492
10169TIP3    H251923   1.824   4.985  16.271  0.1412 -0.6168  0.8741
10170TIP3   OH251924   5.904   0.575  12.921  0.5225  0.3630 -1.0216
10170TIP3    H151925   5.825   0.579  12.974  0.0923  2.4046 -1.7518
10170TIP3    H251926   5.975   0.596  12.982  0.0100  2.9413 -1.1969
10171TIP3   OH251927   0.523   1.211   3.570 -0.3288 -0.0302  0.3081
10171TIP3    H151928   0.585   1.282   3.553  1.4994 -1.3429  1.0849
10171TIP3    H251929   0.557   1.138   3.519 -1.2244 -0.8124  0.8129
10172TIP3   OH251930   2.096   4.803  16.112  0.1007 -0.1887 -0.0276
10172TIP3    H151931   2.160   4.869  16.139  0.1217 -0.4920  0.6975
10172TIP3    H251932   2.145   4.743  16.057  0.3257 -0.1612  0.1426
10173TIP3   OH251933   3.511   5.630  16.661  0.4487  0.3153 -0.2622
10173TIP3    H151934   3.532   5.634  16.755 -0.9013  1.6187  0.0278
10173TIP3    H251935   3.530   5.718  16.629  0.4698  0.0045 -1.1148
10174TIP3   OH251936   0.200   0.806  16.835 -0.0341 -0.2410  0.3619
10174TIP3    H151937   0.127   0.797  16.896 -1.1641  1.4609 -0.6675
10174TIP3    H251938   0.165   0.777  16.751  1.0038 -0.9989  0.1757
10175TIP3   OH251939   2.698   3.797  16.348  0.0520 -0.2762  0.1086
10175TIP3    H151940   2.783   3.808  16.304  0.0824  0.9979  0.4474
10175TIP3    H251941   2.656   3.725  16.301  0.4730  0.4173 -1.4066
10176TIP3   OH251942   1.349   2.911   0.662  0.4823  0.4512 -0.1564
10176TIP3    H151943   1.314   2.993   0.624  1.3037  0.6514 -0.4932
10176TIP3    H251944   1.274   2.872   0.706 -0.3104  0.6363 -1.2809
10177TIP3   OH251945   4.185   6.439  11.228 -0.2010  0.4516  0.3651
10177TIP3    H151946   4.278   6.433  11.250  0.0777  0.1405 -0.8405
10177TIP3    H251947   4.147   6.494  11.297  0.6061 -0.5242  1.6220
10178TIP3   OH251948   0.589   6.440   4.962  0.2965  0.3769 -0.3440
10178TIP3    H151949   0.528   6.458   5.034  1.1286 -0.3436  0.5902
10178TIP3    H251950   0.587   6.518   4.908 -0.7437  0.7367  0.1862
10179TIP3   OH251951   3.277   1.795  16.502  0.3565 -0.4403  0.0987
10179TIP3    H151952   3.201   1.767  16.451  0.2205  0.5532 -0.2647
10179TIP3    H251953   3.346   1.809  16.437  0.6091 -0.5410  0.3402
10180TIP3   OH251954   4.579   1.041   5.278 -0.7713  0.2305  0.3469
10180TIP3    H151955   4.586   0.968   5.340 -2.1715 -1.3722 -1.2406
10180TIP3    H251956   4.486   1.061   5.275 -0.3604  2.5465  1.1553
10181TIP3   OH251957   6.421   4.394  12.203  0.1061 -0.6390 -0.4476
10181TIP3    H151958   6.435   4.457  12.133 -3.2302  1.9764  0.9670
10181TIP3    H251959   6.365   4.327  12.164  1.5469 -1.4285 -1.2523
10182TIP3   OH251960   5.853   2.778   4.628 -0.1075 -0.7053 -0.6689
10182TIP3    H151961   5.823   2.863   4.658  0.7622  0.0428 -1.8261
10182TIP3    H251962   5.948   2.786   4.625 -0.0977 -0.6234 -3.6762
10183TIP3   OH251963   4.010   0.368  12.372  0.5555 -0.8292  0.2197
10183TIP3    H151964   3.944   0.436  12.390  0.2255 -0.9324 -0.5336
10183TIP3    H251965   4.088   0.417  12.347  0.6193 -0.7116  0.6435
10184TIP3   OH251966   6.568   4.089   3.735 -0.0195 -0.0004  0.1918
10184TIP3    H151967   6.639   4.054   3.682 -0.4531 -0.1694 -0.2774
10184TIP3    H251968   6.527   4.012   3.775  1.3981  0.2173  2.2027
10185TIP3   OH251969   6.696   5.441  11.244 -0.7361 -0.8853 -0.3708
10185TIP3    H151970   6.726   5.350  11.244  0.9201 -0.3638 -0.3300
10185TIP3    H251971   6.762   5.488  11.194 -1.2976  0.3967  0.0625
10186TIP3   OH251972   5.405   1.881  15.442  0.1435  0.0575  0.7992
10186TIP3    H151973   5.390   1.961  15.494 -2.8907  0.2872 -0.2080
10186TIP3    H251974   5.396   1.910  15.351 -1.9636 -1.4934  0.4329
10187TIP3   OH251975   6.397   0.102  14.922  0.5848  0.0367 -0.3422
10187TIP3    H151976   6.446   0.091  14.840 -0.6287 -0.3687 -1.0459
10187TIP3    H251977   6.315   0.054  14.907 -0.2238  1.0645  0.6127
10188TIP3   OH251978   5.487   5.656   4.267 -0.4005 -0.1368  0.5580
10188TIP3    H151979   5.471   5.736   4.219 -0.0403 -0.6110 -0.3767
10188TIP3    H251980   5.400   5.618   4.281 -0.4050 -0.9483 -1.4154
10189TIP3   OH251981   1.151   2.474   5.426 -0.0041  0.4816 -0.0366
10189TIP3    H151982   1.097   2.430   5.490  0.8616  1.9591  1.8035
10189TIP3    H251983   1.176   2.406   5.363 -1.0200 -0.9643  1.0891
10190TIP3   OH251984   3.595   6.537   4.529  0.0573  0.5448 -0.4544
10190TIP3    H151985   3.685   6.515   4.502 -0.4113 -0.4995 -1.2288
10190TIP3    H251986   3.603   6.622   4.573  1.8638 -0.7104  1.8999
10191TIP3   OH251987   0.451   5.239   2.317 -0.2483 -0.0383 -0.7994
10191TIP3    H151988   0.523   5.185   2.349 -1.2460 -0.8448  0.1578
10191TIP3    H251989   0.400   5.181   2.261  0.0276  0.6385 -1.7895
10192TIP3   OH251990   1.822   4.185   2.695  0.5608 -0.1942  0.3041
10192TIP3    H151991   1.789   4.114   2.641 -1.4419  0.0105  1.1647
10192TIP3    H251992   1.836   4.257   2.634  1.1762 -0.8598 -0.3547
10193TIP3   OH251993   6.510   6.384   1.134  0.2517  0.7256  0.4827
10193TIP3    H151994   6.582   6.375   1.197  1.1508 -1.0579 -0.7045
10193TIP3    H251995   6.552   6.374   1.049 -1.1811  1.4313 -0.3430
10194TIP3   OH251996   1.723   3.360  11.123  0.0450 -0.4400  0.3739
10194TIP3    H151997   1.655   3.414  11.084  1.3412 -0.9675 -2.9447
10194TIP3    H251998   1.689   3.271  11.117  0.2825 -0.5307  0.3634
10195TIP3   OH251999   4.315   3.251   2.895 -0.1467  0.0817 -0.2747
10195TIP3    H152000   4.317   3.225   2.803  0.0448  1.9988 -0.8367
10195TIP3    H252001   4.401   3.288   2.912 -0.7040  1.2044  0.2158
10196TIP3   OH252002   6.038   1.924   4.832 -0.6015  0.3693  0.5800
10196TIP3    H152003   5.969   1.904   4.769  0.9712 -1.5594 -0.6211
10196TIP3    H252004   6.032   1.854   4.897  0.8220 -0.4163 -0.0930
10197TIP3   OH252005   5.496   0.577  13.325  0.1823  0.2176  0.2621
10197TIP3    H152006   5.423   0.537  13.372 -1.3662 -0.1954 -2.3186
10197TIP3    H252007   5.557   0.504  13.310 -0.4230 -0.1681 -0.3696
10198TIP3   OH252008   2.165   5.054   6.033  0.1395  0.0490 -0.4780
10198TIP3    H152009   2.081   5.023   6.067  1.4757 -0.8946  2.2751
10198TIP3    H252010   2.155   5.051   5.938 -2.1543 -2.2737 -0.2779
10199TIP3   OH252011   4.745   6.159  14.202  0.0384  0.3497  0.1430
10199TIP3    H152012   4.802   6.103  14.255 -0.6306  0.1336  0.6489
10199TIP3    H252013   4.709   6.223  14.263 -0.0313  0.6680 -0.2261
10200TIP3   OH252014   2.704   3.098   1.685  0.4509  0.3762  0.3862
10200TIP3    H152015   2.617   3.059   1.673  0.7503  0.2033 -1.3557
10200TIP3    H252016   2.685   3.185   1.720 -0.3414 -0.1931  1.4670
10201TIP3   OH252017   3.805   2.394  13.425  0.7048  0.5306 -0.0017
10201TIP3    H152018   3.720   2.405  13.384  0.4037  3.2835  1.1959
10201TIP3    H252019   3.867   2.398  13.352 -0.0320 -5.7866 -1.6113
10202TIP3   OH252020   5.013   5.494   1.009 -0.1642 -0.2729 -0.1544
10202TIP3    H152021   5.024   5.399   1.011 -1.8510 -0.4966  1.2955
10202TIP3    H252022   4.954   5.512   1.082  0.1396  1.9029 -0.3978
10203TIP3   OH252023   0.623   5.001   5.686 -0.3813  0.0520  0.1265
10203TIP3    H152024   0.619   5.085   5.641 -0.3995 -0.7282 -1.3737
10203TIP3    H252025   0.696   5.010   5.747 -0.6374  1.2795  0.2828
10204TIP3   OH252026   3.191   4.053   5.306 -0.4999  0.5087 -0.2041
10204TIP3    H152027   3.171   3.959   5.312 -1.2869  0.7061  0.4982
10204TIP3    H252028   3.113   4.091   5.267 -0.5759  0.9908  0.3978
10205TIP3   OH252029   1.206   2.366   1.379 -0.2540 -0.2030 -0.6220
10205TIP3    H152030   1.295   2.336   1.394 -0.4248 -0.6297 -0.4327
10205TIP3    H252031   1.177   2.398   1.464  0.1682  1.1802 -0.9780
10206TIP3   OH252032   3.925   4.555  14.706 -0.4247 -0.1836  0.2879
10206TIP3    H152033   3.847   4.575  14.758 -1.2686  1.7083 -1.6027
10206TIP3    H252034   3.891   4.524  14.622  0.9184 -2.1062  0.3865
10207TIP3   OH252035   4.712   4.004   3.111  0.1268 -0.0824 -0.6627
10207TIP3    H152036   4.735   4.001   3.018  0.3879 -0.5991 -0.5831
10207TIP3    H252037   4.658   3.926   3.125 -0.8492  0.5820 -0.6220
10208TIP3   OH252038   0.681   5.342   6.261 -0.5064  0.2326  0.7481
10208TIP3    H152039   0.645   5.310   6.343 -0.5697 -0.0808  0.5974
10208TIP3    H252040   0.724   5.424   6.285 -0.9115  0.3743  1.0126
10209TIP3   OH252041   2.038   4.774  11.217  0.6125  0.1203 -0.0917
10209TIP3    H152042   2.025   4.719  11.294  0.0987  0.3110 -0.0365
10209TIP3    H252043   1.970   4.745  11.156  1.3838 -0.4293 -0.7034
10210TIP3   OH252044   5.060   3.259  14.807 -0.5568  0.2363  0.6443
10210TIP3    H152045   4.981   3.209  14.787  0.1273 -0.4707 -0.3702
10210TIP3    H252046   5.128   3.193  14.818  0.6348  0.9286 -1.9181
10211TIP3   OH252047   4.433   5.719  11.050 -0.1336  0.4589 -0.2043
10211TIP3    H152048   4.365   5.715  10.983  2.1977 -0.3173 -2.6680
10211TIP3    H252049   4.516   5.722  11.002  1.6584  3.6140  2.5531
10212TIP3   OH252050   5.270   4.224  14.116 -0.3522 -0.4863 -0.2027
10212TIP3    H152051   5.255   4.251  14.025  0.1707  0.7706  0.0661
10212TIP3    H252052   5.311   4.138  14.109 -0.4245 -0.4528 -1.1478
10213TIP3   OH252053   4.007   4.877   1.457  0.5592 -0.1943 -0.1269
10213TIP3    H152054   3.943   4.943   1.484 -1.8607 -1.4350 -2.3525
10213TIP3    H252055   4.017   4.820   1.533 -0.3511  0.4891  0.5280
10214TIP3   OH252056   4.332   4.381   0.734  0.3313 -0.1674  0.3632
10214TIP3    H152057   4.253   4.397   0.787 -0.5375 -0.9120 -0.6745
10214TIP3    H252058   4.301   4.382   0.644  1.4452 -0.8699 -0.0423
10215TIP3   OH252059   6.282   2.771  11.171  0.6768 -0.3045  0.0598
10215TIP3    H152060   6.285   2.688  11.125 -0.5052 -0.7584  0.7762
10215TIP3    H252061   6.194   2.805  11.155  0.8016  0.3134  0.6283
10216TIP3   OH252062   2.542   1.789  10.487 -0.0299 -0.5502 -0.1535
10216TIP3    H152063   2.566   1.878  10.514 -1.7458 -0.1783  0.3389
10216TIP3    H252064   2.625   1.744  10.475  0.8819  1.0547 -0.1811
10217TIP3   OH252065   5.670   0.654  14.813 -0.7182 -0.1709  0.3119
10217TIP3    H152066   5.653   0.706  14.735 -0.1702  1.0864  0.9969
10217TIP3    H252067   5.751   0.690  14.849 -0.6992 -1.0487  1.1965
10218TIP3   OH252068   2.425   0.989  16.039 -0.9515 -0.3241 -0.1242
10218TIP3    H152069   2.404   0.897  16.022 -1.3306 -0.2969  0.1663
10218TIP3    H252070   2.459   0.990  16.128 -0.4903 -0.2499 -0.3031
10219TIP3   OH252071   1.983   2.914   0.286 -0.6284 -0.2008  0.0363
10219TIP3    H152072   1.923   2.893   0.215 -0.3952 -0.8837  0.0338
10219TIP3    H252073   2.063   2.943   0.243 -0.6671 -0.0993  0.0312
10220TIP3   OH252074   2.974   5.893   0.229 -0.2463 -0.0200  0.1897
10220TIP3    H152075   2.997   5.977   0.269 -1.8371  0.0890  0.9396
10220TIP3    H252076   2.988   5.907   0.136  0.6464  0.6859  0.4119
10221TIP3   OH252077   6.590   3.029   5.323 -0.3977  0.1651 -0.4476
10221TIP3    H152078   6.598   3.119   5.356 -0.4547  0.9176 -2.3643
10221TIP3    H252079   6.654   3.023   5.252  0.4858 -1.7414  0.4507
10222TIP3   OH252080   6.044   2.985  15.552  0.4341  0.2366 -0.3405
10222TIP3    H152081   6.099   3.042  15.498  1.0266 -0.5858 -0.6272
10222TIP3    H252082   6.009   2.920  15.491  1.5280 -1.0205  0.3082
10223TIP3   OH252083   3.000   5.728   1.324  0.2721 -0.3548  0.4689
10223TIP3    H152084   3.035   5.802   1.275  1.9020 -0.6503  1.1317
10223TIP3    H252085   3.071   5.701   1.382 -0.4413 -2.1563  0.5718
10224TIP3   OH252086   3.298   2.109  16.256 -0.4622 -0.6422  0.2926
10224TIP3    H152087   3.268   2.075  16.172 -1.4772 -0.3854  0.5309
10224TIP3    H252088   3.226   2.165  16.286 -0.2897 -1.0478  1.5175
10225TIP3   OH252089   5.839   3.731   2.758  0.4273 -0.0215  0.3231
10225TIP3    H152090   5.803   3.707   2.843  2.3112  1.7314  1.7188
10225TIP3    H252091   5.771   3.783   2.717 -0.4482 -0.7628  0.7971
10226TIP3   OH252092   4.345   1.921  16.260 -0.1457  0.2581  0.0868
10226TIP3    H152093   4.326   1.925  16.354 -1.8560  0.2107 -0.2252
10226TIP3    H252094   4.261   1.941  16.218  1.0794  2.6916 -1.4652
10227TIP3   OH252095   5.908   5.433  13.972  0.3559 -0.0360 -0.2770
10227TIP3    H152096   5.891   5.496  13.902  1.3384  1.7981  1.0564
10227TIP3    H252097   5.992   5.395  13.949  0.9927  1.0428  0.2148
10228TIP3   OH252098   2.045   4.935  13.426  0.6332 -0.3517 -0.2255
10228TIP3    H152099   2.125   4.882  13.424  0.4322 -0.6521 -0.3384
10228TIP3    H252100   2.076   5.024  13.445  0.9011 -0.6503  0.8055
10229TIP3   OH252101   1.811   6.167  10.336 -0.1748  0.1631 -0.4820
10229TIP3    H152102   1.895   6.161  10.381  0.4980 -2.4404 -1.8810
10229TIP3    H252103   1.786   6.259  10.343  2.2216  0.7833  0.9444
10230TIP3   OH252104   5.175   3.417  15.404 -0.1001  0.2555  0.0632
10230TIP3    H152105   5.122   3.470  15.344  0.8081 -1.3623 -2.3222
10230TIP3    H252106   5.262   3.414  15.363  0.5374 -1.0248  1.4144
10231TIP3   OH252107   6.029   6.750   1.648 -0.7432  0.3852  0.1176
10231TIP3    H152108   5.957   6.710   1.599  2.9039 -3.8626 -2.5543
10231TIP3    H252109   6.073   6.806   1.584 -0.1765  0.8729  0.9128
10232TIP3   OH252110   2.811   4.661   1.982  0.1919 -0.1960 -0.2837
10232TIP3    H152111   2.814   4.729   1.915 -1.6256 -0.6328 -0.8806
10232TIP3    H252112   2.746   4.598   1.949  1.7129 -2.1788  0.3100
10233TIP3   OH252113   1.630   1.478   1.514  0.2147  0.2517  0.1357
10233TIP3    H152114   1.534   1.479   1.516  0.2247 -0.0934  1.5403
10233TIP3    H252115   1.657   1.543   1.579  0.9295 -0.2864  0.3929
10234TIP3   OH252116   6.762   0.507  17.112  0.4889 -0.0662 -0.1193
10234TIP3    H152117   6.673   0.541  17.120  0.4959 -0.2045  0.6237
10234TIP3    H252118   6.784   0.518  17.019  0.2397  1.3026 -0.0309
10235TIP3   OH252119   0.834   4.584   3.661  0.0934 -0.3380  0.0007
10235TIP3    H152120   0.880   4.664   3.686 -2.6581  0.8023  1.8138
10235TIP3    H252121   0.795   4.552   3.742 -0.6064 -2.3934 -1.0663
10236TIP3   OH252122   0.372   5.327  14.870 -0.3442  0.2324  0.4780
10236TIP3    H152123   0.412   5.411  14.893 -1.3129  0.5963  0.8811
10236TIP3    H252124   0.446   5.269  14.852  0.3331  1.4746 -0.9394
10237TIP3   OH252125   6.685   3.322   2.144  0.2917  0.4314 -0.1733
10237TIP3    H152126   6.631   3.334   2.066  0.0621 -0.9889 -0.2725
10237TIP3    H252127   6.701   3.410   2.177 -0.0621  1.0176 -1.5158
10238TIP3   OH252128   6.764   1.336  16.652  0.4847 -0.0191  0.1078
10238TIP3    H152129   6.760   1.427  16.680 -0.0781 -0.0456  0.1222
10238TIP3    H252130   6.755   1.285  16.732  1.0561 -0.0962  0.1334
10239TIP3   OH252131   0.340   4.729   4.560  0.2545  0.0161 -0.1695
10239TIP3    H152132   0.385   4.689   4.635 -1.0207 -0.2616  0.4689
10239TIP3    H252133   0.386   4.812   4.547  0.3029  0.2152  1.1151
10240TIP3   OH252134   0.601   0.030  15.861 -0.3203  0.5073  0.4172
10240TIP3    H152135   0.570   0.003  15.947  0.2927  0.6758  0.7020
10240TIP3    H252136   0.641   0.115  15.876  0.6983  0.0906  0.1720
10241TIP3   OH252137   6.354   2.874   1.571  0.1204 -0.2150 -0.0332
10241TIP3    H152138   6.386   2.894   1.659  1.9713  0.0930 -0.7288
10241TIP3    H252139   6.261   2.895   1.574  0.0785 -0.5115  1.9346
10242TIP3   OH252140   5.030   4.680   4.642  1.0092  0.2764 -0.2405
10242TIP3    H152141   5.080   4.741   4.696 -0.2121 -0.0321  1.3172
10242TIP3    H252142   5.086   4.664   4.566  2.9301  0.5007  1.0524
10243TIP3   OH252143   2.624   3.978   2.256 -0.2669 -0.2531 -0.8759
10243TIP3    H152144   2.576   3.956   2.176  1.7380 -3.6043 -1.3381
10243TIP3    H252145   2.574   3.937   2.326 -0.6015  0.4213 -0.7062
10244TIP3   OH252146   0.387   3.919  12.261  0.2484  0.4428  0.2136
10244TIP3    H152147   0.466   3.926  12.316  1.0654  0.1251 -0.8742
10244TIP3    H252148   0.357   3.829  12.276  0.7312  0.2075 -0.1792
10245TIP3   OH252149   4.027   1.721  13.390  0.3192 -0.2108  0.1327
10245TIP3    H152150   4.030   1.712  13.486  0.4926  1.3958  0.2955
10245TIP3    H252151   3.955   1.781  13.373  0.3762 -0.3786 -0.7451
10246TIP3   OH252152   4.333   2.062   0.493  0.1488 -0.3387  0.1999
10246TIP3    H152153   4.291   2.037   0.576  0.8353 -1.7678  0.1615
10246TIP3    H252154   4.407   2.001   0.486  0.0613 -0.2786 -1.4938
10247TIP3   OH252155   5.789   3.563   1.708 -0.5699 -0.3847 -0.1637
10247TIP3    H152156   5.833   3.586   1.790 -1.7197  1.8069 -0.0577
10247TIP3    H252157   5.697   3.549   1.734 -0.6838 -1.0506 -0.8940
10248TIP3   OH252158   6.545   2.398   0.735 -0.0880 -0.3479 -0.4587
10248TIP3    H152159   6.533   2.406   0.640  0.4669 -2.7009 -0.8086
10248TIP3    H252160   6.628   2.441   0.753 -0.3351  0.3655 -0.9908
10249TIP3   OH252161   6.618   5.688  14.130 -0.2603 -0.2128  0.1401
10249TIP3    H152162   6.632   5.745  14.205  1.3620 -0.6361  0.1795
10249TIP3    H252163   6.647   5.740  14.054 -0.5260 -0.3224 -0.0409
10250TIP3   OH252164   3.894   5.709   2.927  0.0413  0.1596  0.3778
10250TIP3    H152165   3.811   5.722   2.973 -0.6595 -2.9267  0.1832
10250TIP3    H252166   3.952   5.775   2.964 -2.1186  1.6074  1.4165
10251TIP3   OH252167   5.531   0.810   3.599  0.8997  0.4471  0.1256
10251TIP3    H152168   5.626   0.813   3.587  0.9842  0.4361  0.7220
10251TIP3    H252169   5.520   0.808   3.695  0.2243  3.9576  0.2387
10252TIP3   OH252170   5.821   5.426  11.530 -0.1176 -0.5656  0.6678
10252TIP3    H152171   5.847   5.472  11.450  0.2286 -0.9767  0.5367
10252TIP3    H252172   5.828   5.492  11.599 -1.9772  0.2395  0.1372
10253TIP3   OH252173   6.278   2.011  13.722  0.2385  0.6657  0.0287
10253TIP3    H152174   6.239   2.056  13.647 -1.0543 -1.9999 -1.0280
10253TIP3    H252175   6.372   2.010  13.704  0.3277  2.9093  0.1447
10254TIP3   OH252176   4.071   0.482  15.316 -0.3488  0.1474 -0.1736
10254TIP3    H152177   4.029   0.513  15.235  0.4553  1.8836  0.0412
10254TIP3    H252178   4.057   0.553  15.379  0.2382 -0.5959  0.8237
10255TIP3   OH252179   2.138   5.766   2.999  0.6101  0.0908 -0.0033
10255TIP3    H152180   2.070   5.832   3.014  1.4521  0.7065  1.2803
10255TIP3    H252181   2.112   5.693   3.055  1.5178  0.7390  1.3234
10256TIP3   OH252182   0.681   0.514  13.742  0.4746  0.2694  0.4941
10256TIP3    H152183   0.600   0.528  13.694  0.6856  0.4059  0.1748
10256TIP3    H252184   0.708   0.601  13.771 -1.2157 -0.0656  3.4750
10257TIP3   OH252185   2.617   6.573  15.732  0.4915  0.4313 -0.2467
10257TIP3    H152186   2.566   6.502  15.769  1.0238  0.6930  1.0418
10257TIP3    H252187   2.574   6.653  15.763  0.7672  0.6658 -0.4529
10258TIP3   OH252188   2.509   2.173  15.760 -0.2198 -0.1174  0.3605
10258TIP3    H152189   2.474   2.170  15.670 -0.2683 -2.1516  0.3918
10258TIP3    H252190   2.514   2.266  15.780  0.2327  0.4292 -1.9254
10259TIP3   OH252191   0.017   4.103   1.330 -0.1669 -0.0813  0.0673
10259TIP3    H152192   0.100   4.145   1.352 -0.5689  0.5687  0.3754
10259TIP3    H252193  -0.032   4.171   1.283 -0.8189 -0.2071  0.5472
10260TIP3   OH252194   3.912   5.382  12.024 -0.3929  0.6443  0.5016
10260TIP3    H152195   3.893   5.315  11.959  1.3831  0.7830 -0.2023
10260TIP3    H252196   3.861   5.458  11.996 -1.4130  0.0104  0.5873
10261TIP3   OH252197   3.300   2.283   3.994 -0.0893 -0.3964 -0.5927
10261TIP3    H152198   3.351   2.340   4.051 -0.9874 -0.4892  0.3191
10261TIP3    H252199   3.212   2.285   4.030 -0.8536  0.0851 -2.3868
10262TIP3   OH252200   6.376   5.445   4.980  0.2245  0.5419 -0.1200
10262TIP3    H152201   6.444   5.444   5.047  1.3895  0.2851 -1.2599
10262TIP3    H252202   6.424   5.445   4.897 -1.1736 -0.7793 -0.9783
10263TIP3   OH252203   1.643   3.548  13.807  0.0106  0.2247  0.2945
10263TIP3    H152204   1.668   3.456  13.806 -0.2871  0.0784  2.6318
10263TIP3    H252205   1.723   3.595  13.783  0.0933 -0.6077 -1.1875
10264TIP3   OH252206   3.236   6.049  16.075  0.0556  0.0017 -0.1105
10264TIP3    H152207   3.179   6.107  16.127  0.7298  0.3675  0.2291
10264TIP3    H252208   3.314   6.102  16.058  0.6081 -0.7542  0.0538
10265TIP3   OH252209   6.483   1.966  11.990 -0.5838 -0.0491  0.1692
10265TIP3    H152210   6.530   1.910  12.051 -1.0813 -1.8424 -0.9823
10265TIP3    H252211   6.441   2.032  12.044 -0.1178 -0.9145  1.6307
10266TIP3   OH252212   2.692   2.040  15.906 -0.4591 -0.4420 -0.2880
10266TIP3    H152213   2.627   2.088  15.855 -0.5527  0.4071  0.6035
10266TIP3    H252214   2.673   2.063  15.997  0.4590 -0.9817  0.0554
10267TIP3   OH252215   2.143   5.967  15.646 -0.1439 -0.3595 -0.0133
10267TIP3    H152216   2.081   5.905  15.608 -0.0477 -0.7217  0.4022
10267TIP3    H252217   2.213   5.912  15.681  0.3289  0.0376 -0.3279
10268TIP3   OH252218   1.485   3.244   0.365 -0.1431  0.3777 -0.5922
10268TIP3    H152219   1.414   3.302   0.390 -0.3553  0.0035 -0.3050
10268TIP3    H252220   1.565   3.290   0.390 -0.2239  1.2687 -1.8895
10269TIP3   OH252221   1.480   1.348  13.192 -0.4584  0.0405 -0.2495
10269TIP3    H152222   1.481   1.253  13.176 -0.5948 -0.1253  0.6733
10269TIP3    H252223   1.540   1.361  13.265 -1.0750  0.5538  0.1837
10270TIP3   OH252224   1.459   4.138   2.531  0.6726  0.3607  0.7282
10270TIP3    H152225   1.526   4.070   2.538  0.3814  0.1534  1.5807
10270TIP3    H252226   1.394   4.114   2.597 -0.5329  0.2375 -0.4490
10271TIP3   OH252227   3.092   5.647  15.925  0.5013 -0.0999 -0.2693
10271TIP3    H152228   3.063   5.714  15.987  0.7962 -0.0892 -0.1459
10271TIP3    H252229   3.184   5.667  15.909  0.4986 -0.2716 -0.4938
10272TIP3   OH252230   5.496   2.424  15.313  0.4368 -0.9612 -0.5942
10272TIP3    H152231   5.403   2.402  15.306  0.6737 -2.2600 -0.0095
10272TIP3    H252232   5.535   2.393  15.232  0.1659  0.9093 -1.5076
10273TIP3   OH252233   2.620   1.038  12.705 -0.1762  0.0816  0.0937
10273TIP3    H152234   2.622   1.133  12.689  1.2460 -0.2355 -1.9989
10273TIP3    H252235   2.569   1.003  12.632 -1.6617 -0.7223  1.4485
10274TIP3   OH252236   0.776   6.548   4.398 -0.6106  0.4891 -0.2283
10274TIP3    H152237   0.832   6.505   4.334 -1.6693 -0.0698 -0.7784
10274TIP3    H252238   0.739   6.477   4.450  1.0247  0.9644  1.7148
10275TIP3   OH252239   2.060   4.759  12.590  0.2455  0.2117 -0.2437
10275TIP3    H152240   2.010   4.816  12.532  1.4273  0.6690 -0.8575
10275TIP3    H252241   2.144   4.804  12.602 -0.0945  0.3411  2.1866
10276TIP3   OH252242   4.276   4.609   2.981 -0.3067  0.1276  0.4749
10276TIP3    H152243   4.276   4.598   2.886 -1.5148  0.3294  0.4457
10276TIP3    H252244   4.303   4.524   3.015  0.5057  0.1670 -0.0521
10277TIP3   OH252245   6.397   5.126  13.270  0.0788 -0.5316  0.9684
10277TIP3    H152246   6.346   5.184  13.214  0.8028 -1.1368 -0.3649
10277TIP3    H252247   6.415   5.049  13.216  1.0795 -1.0013  1.9183
10278TIP3   OH252248   3.818   3.536  10.581  0.6546  0.4065  0.4140
10278TIP3    H152249   3.802   3.572  10.494 -0.8697  0.2647  0.6133
10278TIP3    H252250   3.900   3.577  10.609  0.9106  0.8235 -0.8787
10279TIP3   OH252251   1.686   2.222   5.992 -0.1975  0.9439  0.5456
10279TIP3    H152252   1.754   2.286   5.970 -1.0379  1.5154 -0.5191
10279TIP3    H252253   1.714   2.185   6.076  1.6078  0.8778 -0.0394
10280TIP3   OH252254   2.856   2.448   0.362 -0.2282  0.1662  0.0896
10280TIP3    H152255   2.850   2.386   0.289 -0.7446  0.4138 -0.0837
10280TIP3    H252256   2.779   2.504   0.352 -0.0538  0.4942  0.5589
10281TIP3   OH252257   4.299   5.601  12.730  0.7000 -0.0360  0.2997
10281TIP3    H152258   4.388   5.578  12.756  0.2353 -2.1718  0.1766
10281TIP3    H252259   4.244   5.538  12.777 -1.0191  2.8175  2.4122
10282TIP3   OH252260   5.282   5.477  13.692 -0.3386  0.1424 -0.3625
10282TIP3    H152261   5.347   5.450  13.757  0.1487  0.3848 -0.7489
10282TIP3    H252262   5.323   5.549  13.645 -0.7917  0.1365 -0.7765
10283TIP3   OH252263   4.902   1.697   5.506 -0.0123 -0.4111 -0.3783
10283TIP3    H152264   4.823   1.742   5.479 -0.1954 -0.4467  0.0874
10283TIP3    H252265   4.915   1.629   5.440  0.6952  0.7934 -1.5151
10284TIP3   OH252266   1.302   3.168  16.672 -0.1060 -0.0534  0.3312
10284TIP3    H152267   1.345   3.154  16.588 -2.0247  0.9131 -0.8989
10284TIP3    H252268   1.290   3.263  16.678 -1.3352 -0.2140  0.9502
10285TIP3   OH252269   2.462   3.107   1.975 -0.4745  0.2273 -0.0638
10285TIP3    H152270   2.492   3.188   2.016 -0.2824 -0.8018  1.9378
10285TIP3    H252271   2.517   3.039   2.012 -1.2736 -0.9558 -0.9634
10286TIP3   OH252272   5.219   6.601  12.636  0.5007 -0.0099  0.1816
10286TIP3    H152273   5.166   6.653  12.696  1.9694  1.9407 -0.1298
10286TIP3    H252274   5.262   6.536  12.691 -2.8152 -2.3562  0.3374
10287TIP3   OH252275   1.708   2.235  12.465  0.0766 -0.2901 -0.3199
10287TIP3    H152276   1.624   2.270  12.435 -1.2481 -2.1238  1.0534
10287TIP3    H252277   1.706   2.244  12.560  1.8105  0.3653 -0.3140
10288TIP3   OH252278   5.671   0.320   3.834 -0.2330  0.0268 -0.1643
10288TIP3    H152279   5.611   0.389   3.805 -1.0039 -0.7054 -0.3639
10288TIP3    H252280   5.660   0.250   3.769  0.3965 -0.3542  0.1362
10289TIP3   OH252281   2.926   1.702  13.846 -0.6562  0.9781 -0.3910
10289TIP3    H152282   2.975   1.765  13.794  2.5754 -0.6768  0.4376
10289TIP3    H252283   2.927   1.622  13.794  1.3830 -0.2911  1.4671
10290TIP3   OH252284   4.160   0.463  12.934  0.5242  0.3885 -0.3138
10290TIP3    H152285   4.113   0.474  13.016 -1.5688 -0.5102 -1.3008
10290TIP3    H252286   4.250   0.441  12.959  0.6322  2.7155  1.6630
10291TIP3   OH252287   3.149   0.814  14.450  0.1037 -0.9836  0.1703
10291TIP3    H152288   3.067   0.844  14.490  0.0817  0.2516 -0.7609
10291TIP3    H252289   3.139   0.718  14.445 -0.1167 -1.1517  2.5716
10292TIP3   OH252290   2.603   2.897  12.406  0.0591 -0.3974 -0.0340
10292TIP3    H152291   2.638   2.860  12.486  2.3289 -0.4560 -0.9692
10292TIP3    H252292   2.664   2.968  12.383 -1.5311  0.8143 -0.7778
10293TIP3   OH252293   6.728   0.045   1.205  0.0091 -0.0002  0.1856
10293TIP3    H152294   6.648  -0.004   1.187  1.0353 -1.4554 -0.5516
10293TIP3    H252295   6.750   0.021   1.295  0.3201 -0.6282 -0.0554
10294TIP3   OH252296   3.987   0.851   3.296 -0.2203 -0.0551  0.4768
10294TIP3    H152297   3.939   0.827   3.217  0.0270  0.0220  0.2993
10294TIP3    H252298   3.930   0.912   3.342 -0.3699 -0.1070  0.3609
10295TIP3   OH252299   1.449   4.735   0.038 -0.1836 -0.2403  0.5633
10295TIP3    H152300   1.500   4.654   0.030 -0.9762 -0.5723 -1.7489
10295TIP3    H252301   1.494   4.798  -0.017  1.4238  1.5646  3.6486
10296TIP3   OH252302   2.831   2.423  13.660  0.1649 -0.0763  0.2960
10296TIP3    H152303   2.855   2.498  13.715 -1.4446 -0.2792  1.3458
10296TIP3    H252304   2.863   2.347  13.707  3.1096 -0.0602 -1.4826
10297TIP3   OH252305   5.567   6.484   2.023  0.0556 -0.3647 -1.0015
10297TIP3    H152306   5.490   6.470   1.967  1.1766 -2.2716 -2.1766
10297TIP3    H252307   5.638   6.499   1.961  1.0093 -0.7714 -0.0243
10298TIP3   OH252308   4.426   6.425   5.530 -0.3554  0.3592 -0.5408
10298TIP3    H152309   4.466   6.509   5.551 -0.1337 -0.1670  1.3792
10298TIP3    H252310   4.491   6.360   5.556 -0.4051 -0.4319 -2.2614
10299TIP3   OH252311   3.240   3.551   0.857 -0.1174  0.6516 -0.5516
10299TIP3    H152312   3.253   3.496   0.780  1.7523  0.3303 -0.0594
10299TIP3    H252313   3.155   3.526   0.891  0.3948 -1.4723 -0.7319
10300TIP3   OH252314   1.355   4.377   6.003 -0.2150  0.0718  0.1575
10300TIP3    H152315   1.298   4.337   6.069 -0.1623  1.7759  1.3218
10300TIP3    H252316   1.309   4.457   5.977  1.7077  1.7080  1.4192
10301TIP3   OH252317   5.125   1.746   5.000 -0.2743  0.0704 -0.2663
10301TIP3    H152318   5.081   1.794   4.930 -1.2896 -0.2371  0.1420
10301TIP3    H252319   5.079   1.772   5.080  0.1103 -0.4627  0.1388
10302TIP3   OH252320   5.861   0.347   0.771 -0.0858  0.1515 -0.2922
10302TIP3    H152321   5.777   0.331   0.728 -0.6610 -1.1740  1.2545
10302TIP3    H252322   5.843   0.416   0.834 -0.1542 -0.5104  0.4201
10303TIP3   OH252323   0.704   5.957  11.689 -0.2943 -0.2750 -0.4644
10303TIP3    H152324   0.668   5.920  11.770 -2.3025  0.3994 -0.9856
10303TIP3    H252325   0.718   6.050  11.709 -1.9692  0.1778 -1.1857
10304TIP3   OH252326   4.430   1.048  14.112  0.2061  0.2477 -0.3000
10304TIP3    H152327   4.496   0.981  14.091 -0.1679 -0.3719  0.4422
10304TIP3    H252328   4.355   0.998  14.146 -1.5021  0.7654 -3.0638
10305TIP3   OH252329   4.654   5.895  17.153 -0.0198  0.4897 -0.3619
10305TIP3    H152330   4.715   5.885  17.226  0.9899  1.6730 -1.0110
10305TIP3    H252331   4.585   5.952  17.187  0.1152  0.5155 -0.1268
10306TIP3   OH252332   5.617   3.681   0.986 -0.0976 -0.2945 -0.3418
10306TIP3    H152333   5.608   3.601   1.038 -0.1117  0.3301  0.6361
10306TIP3    H252334   5.685   3.731   1.030 -0.4607  0.4767 -0.6356
10307TIP3   OH252335   5.625   1.296   5.132  0.0870  0.3186  0.1387
10307TIP3    H152336   5.668   1.235   5.071 -3.2302 -1.5714 -0.5830
10307TIP3    H252337   5.549   1.327   5.084 -2.1561 -0.4867  2.8977
10308TIP3   OH252338   6.679   3.376   1.395 -1.2601 -0.6601  0.2057
10308TIP3    H152339   6.634   3.457   1.373  0.6410  0.4169  0.0418
10308TIP3    H252340   6.745   3.366   1.327 -1.9824 -2.8344 -0.2572
10309TIP3   OH252341   4.319   2.544   4.149 -0.0706  0.1849  1.0131
10309TIP3    H152342   4.365   2.464   4.123  1.4293  0.8393  1.5571
10309TIP3    H252343   4.388   2.604   4.175 -1.2590  1.1026  2.1897
10310TIP3   OH252344   3.668   3.449   0.991 -0.2603  0.0214  0.0556
10310TIP3    H152345   3.640   3.411   1.075 -2.4306  1.6564  0.1347
10310TIP3    H252346   3.654   3.380   0.927  0.4212 -0.8910  0.8588
10311TIP3   OH252347   1.210   1.421  12.571  0.0335  0.2201  0.7290
10311TIP3    H152348   1.272   1.348  12.567 -0.1024  0.1291  0.2123
10311TIP3    H252349   1.212   1.450  12.663  0.5569 -0.0243  0.7945
10312TIP3   OH252350   1.807   4.403   3.306  0.0110 -0.1190  0.0281
10312TIP3    H152351   1.870   4.410   3.377 -0.2899 -0.7955  0.3750
10312TIP3    H252352   1.753   4.482   3.314  0.8541  0.5051 -0.3262
10313TIP3   OH252353   3.899   5.238  12.853  0.4789 -0.0809  0.1834
10313TIP3    H152354   3.836   5.306  12.877 -0.2070 -0.8188  0.5248
10313TIP3    H252355   3.980   5.285  12.834 -0.2137  0.8901 -0.3882
10314TIP3   OH252356   4.302   2.776   5.413 -0.1748 -0.0201  0.4172
10314TIP3    H152357   4.336   2.720   5.484 -3.7200 -0.6813  1.7944
10314TIP3    H252358   4.308   2.865   5.448  0.1054 -0.1283  0.6536
10315TIP3   OH252359   4.416   5.016   4.945 -0.3067 -0.1002 -0.4976
10315TIP3    H152360   4.438   5.019   4.852 -0.4397 -1.1107 -0.5757
10315TIP3    H252361   4.466   4.941   4.979 -0.4367  0.1181  0.1887
10316TIP3   OH252362   4.044   0.101   2.900 -0.2348 -0.1200 -0.0365
10316TIP3    H152363   4.019   0.193   2.885  0.6538 -0.1098 -1.6750
10316TIP3    H252364   4.140   0.101   2.892 -0.0582 -0.9468  1.5721
10317TIP3   OH252365   6.396   5.993  12.497  0.8243 -0.3794 -0.4953
10317TIP3    H152366   6.478   5.987  12.448  0.7978  0.7314 -0.6947
10317TIP3    H252367   6.331   6.020  12.433  1.0687  2.5317  0.3353
10318TIP3   OH252368   3.339   1.582  13.800 -0.4915  0.3984  0.5328
10318TIP3    H152369   3.387   1.664  13.811 -0.8146  0.8969 -1.3996
10318TIP3    H252370   3.360   1.553  13.711 -1.3819 -0.9558  0.7248
10319TIP3   OH252371   0.441   2.119   3.980 -0.3574 -0.0785  0.3103
10319TIP3    H152372   0.446   2.205   3.938  0.2864 -0.2559  0.0164
10319TIP3    H252373   0.358   2.121   4.027 -0.3995  0.6668  0.2223
10320TIP3   OH252374   4.852   4.294   4.608 -0.2740  0.1002 -0.1451
10320TIP3    H152375   4.903   4.373   4.627 -0.6015 -0.1831  2.1933
10320TIP3    H252376   4.850   4.290   4.513  2.2981  1.2532 -0.3489
10321TIP3   OH252377   5.316   0.444  16.994  1.1112 -0.1141 -0.0093
10321TIP3    H152378   5.292   0.352  16.980 -1.4598  0.5506 -0.4315
10321TIP3    H252379   5.260   0.473  17.066 -0.1442  1.7865 -1.6403
10322TIP3   OH252380   3.282   2.821   3.286 -0.7665  0.1945 -0.4110
10322TIP3    H152381   3.221   2.752   3.262  1.3222 -1.9677  0.1245
10322TIP3    H252382   3.258   2.846   3.375 -1.3183 -0.1015 -0.4765
10323TIP3   OH252383   6.088   6.618  13.548 -0.2565 -0.1316 -0.1329
10323TIP3    H152384   6.096   6.554  13.477  1.7221  1.0582 -1.0766
10323TIP3    H252385   6.142   6.583  13.618  1.2938  0.7010 -0.8599
10324TIP3   OH252386   2.323   4.904  12.226 -0.2065 -0.0792  0.1909
10324TIP3    H152387   2.275   4.956  12.162  0.1540 -0.5244 -0.4515
10324TIP3    H252388   2.408   4.886  12.184  0.4760  0.5659  1.2396
10325TIP3   OH252389   3.164   3.854  16.548 -0.3116 -0.0467 -0.1895
10325TIP3    H152390   3.087   3.833  16.601  0.1407 -2.1391 -0.2757
10325TIP3    H252391   3.231   3.792  16.577  0.4473 -0.1969 -2.0881
10326TIP3   OH252392   0.840   5.164   2.189 -0.1778 -0.5132 -0.2070
10326TIP3    H152393   0.857   5.258   2.195 -0.1989 -0.5417  0.4495
10326TIP3    H252394   0.911   5.130   2.135  0.1037 -0.1812 -0.0500
10327TIP3   OH252395   3.296   6.140  16.554  0.4454  0.3032 -0.5056
10327TIP3    H152396   3.257   6.128  16.640  1.4449 -0.4367 -0.1414
10327TIP3    H252397   3.250   6.217  16.518 -3.0481 -1.8500 -1.1191
10328TIP3   OH252398   2.282   4.702   3.755 -0.3720  0.3539  0.1163
10328TIP3    H152399   2.252   4.612   3.765 -1.2796  0.5815 -0.4007
10328TIP3    H252400   2.372   4.701   3.785 -0.6227 -0.5539  0.8759
10329TIP3   OH252401   1.061   4.808  16.795  0.0832  0.3027  0.3054
10329TIP3    H152402   1.075   4.748  16.868  0.0092  0.3002  0.3173
10329TIP3    H252403   1.056   4.751  16.718  1.0836  0.3676  0.1747
10330TIP3   OH252404   5.714   1.367  16.513 -0.2353 -0.1107 -0.0383
10330TIP3    H152405   5.666   1.449  16.525 -2.1211 -1.0436 -0.8570
10330TIP3    H252406   5.724   1.332  16.602  1.1870  1.2899  0.3916
10331TIP3   OH252407   2.873   3.929  13.625  0.3785 -0.6598  0.0057
10331TIP3    H152408   2.849   3.904  13.715  0.4363  1.9149  0.8227
10331TIP3    H252409   2.895   3.847  13.583 -1.3267 -2.1830  1.8328
10332TIP3   OH252410   2.410   6.136  15.430 -0.1621  0.2394 -0.4374
10332TIP3    H152411   2.436   6.216  15.475 -0.9581  0.2258  0.0778
10332TIP3    H252412   2.326   6.112  15.470 -0.4843 -0.2358 -1.3503
10333TIP3   OH252413   1.616   5.293   1.390  0.0143 -0.1029 -0.3322
10333TIP3    H152414   1.562   5.365   1.357 -0.9363  0.2918  1.9124
10333TIP3    H252415   1.553   5.230   1.424  0.9179 -0.2487  1.1360
10334TIP3   OH252416   4.422   1.739  15.172  0.2186  0.4612 -0.1657
10334TIP3    H152417   4.414   1.713  15.263  0.6723 -2.7518 -0.9114
10334TIP3    H252418   4.512   1.770  15.163  0.3981  0.1021  0.3536
10335TIP3   OH252419   4.051   5.674   3.293  0.1785 -0.8940  0.0574
10335TIP3    H152420   4.007   5.710   3.370  0.3804  0.7041 -0.5511
10335TIP3    H252421   4.014   5.586   3.283 -1.8541 -0.1163  0.3679
10336TIP3   OH252422   4.892   1.663   3.537  0.6569  0.0585 -0.3078
10336TIP3    H152423   4.879   1.757   3.548 -1.5392 -0.2508  0.1700
10336TIP3    H252424   4.937   1.636   3.618  0.3669  0.5313  0.0160
10337TIP3   OH252425   0.303   3.211  16.884  0.5708  0.3949 -0.0192
10337TIP3    H152426   0.280   3.231  16.975  0.4183  0.1685 -0.0054
10337TIP3    H252427   0.234   3.150  16.855 -0.2392  1.6158 -0.7490
10338TIP3   OH252428   5.677   4.301  11.318 -0.1465  0.2621 -0.5439
10338TIP3    H152429   5.745   4.329  11.379  0.0284  0.1693 -0.6969
10338TIP3    H252430   5.650   4.215  11.351  0.5016 -0.1374 -1.0561
10339TIP3   OH252431   4.932   5.981  13.440 -0.2444  0.0485 -0.1788
10339TIP3    H152432   4.907   5.890  13.424 -1.7980  0.6816 -1.7977
10339TIP3    H252433   4.986   5.979  13.519 -2.4909 -1.9653  1.4389
10340TIP3   OH252434   4.585   6.306  16.445 -0.1228 -0.5612 -0.1834
10340TIP3    H152435   4.546   6.269  16.524  0.0469 -1.0678 -0.3322
10340TIP3    H252436   4.604   6.230  16.390 -0.3305 -0.2091 -0.7571
10341TIP3   OH252437   5.844   1.539   6.329  0.3147 -0.5417  0.1204
10341TIP3    H152438   5.903   1.613   6.319  1.0349 -1.1310 -0.0392
10341TIP3    H252439   5.867   1.480   6.257 -0.0830 -1.0333  0.3895
10342TIP3   OH252440   6.489   2.676   1.074  0.3886 -0.3414  0.3327
10342TIP3    H152441   6.441   2.714   1.147 -2.1244  0.2345 -1.5050
10342TIP3    H252442   6.536   2.601   1.113 -0.6734  0.0630  2.5382
10343TIP3   OH252443   1.653   5.905  14.714  0.5587  0.0286  0.4281
10343TIP3    H152444   1.608   5.850  14.778 -0.2790 -0.9331 -0.9465
10343TIP3    H252445   1.710   5.846  14.666  1.2305  0.7478  0.3236
10344TIP3   OH252446   0.105   5.628  13.517 -0.0176  0.2454  0.4734
10344TIP3    H152447   0.144   5.548  13.482 -0.2436 -0.9188  2.7326
10344TIP3    H252448   0.178   5.676  13.556 -0.2385 -0.0060  1.1997
10345TIP3   OH252449   2.815   1.154  15.809 -0.1010 -0.0580  0.1247
10345TIP3    H152450   2.747   1.159  15.742  1.3373  0.5065 -1.3546
10345TIP3    H252451   2.847   1.064  15.804  1.3430  0.4831 -1.3992
10346TIP3   OH252452   0.734   4.016   3.480 -0.1369  0.1166 -0.4979
10346TIP3    H152453   0.704   4.105   3.497 -0.5029 -0.2466  0.8945
10346TIP3    H252454   0.707   3.998   3.390 -2.7035  0.3922  0.1331
10347TIP3   OH252455   2.490   5.993  12.814 -0.3552 -0.1333 -0.2520
10347TIP3    H152456   2.518   6.022  12.727  0.2214  1.0679  0.3124
10347TIP3    H252457   2.486   6.073  12.866 -3.4489 -0.4084  0.1272
10348TIP3   OH252458   2.154   5.538   4.292 -0.1607 -0.3609 -0.1449
10348TIP3    H152459   2.194   5.494   4.217  1.7948 -0.7704  1.0576
10348TIP3    H252460   2.183   5.486   4.368  0.7735  1.9643  1.1788
10349TIP3   OH252461   0.853   4.042   0.348  0.2449 -0.1453 -0.2310
10349TIP3    H152462   0.872   4.124   0.303  0.7123  0.4582  1.0324
10349TIP3    H252463   0.758   4.039   0.354  0.2551  0.8017  0.5863
10350TIP3   OH252464   1.161   4.288   6.194  0.0818  0.4098 -0.4076
10350TIP3    H152465   1.121   4.364   6.236 -0.1707  0.7566 -1.2691
10350TIP3    H252466   1.173   4.225   6.266 -1.1010  0.6717  0.0363
10351TIP3   OH252467   4.961   3.487   3.502  0.3027  0.9221 -0.2756
10351TIP3    H152468   4.998   3.462   3.417 -1.6068  0.1852 -0.9419
10351TIP3    H252469   5.036   3.520   3.551  2.0943 -1.5536 -1.1007
10352TIP3   OH252470   1.573   5.421   4.043  0.0610 -0.1664 -0.7739
10352TIP3    H152471   1.569   5.516   4.041 -1.9753 -0.2019 -0.8165
10352TIP3    H252472   1.509   5.396   4.110  0.4908 -1.5051 -0.8345
10353TIP3   OH252473   2.615   4.448   0.831 -0.8560 -0.3955 -0.5738
10353TIP3    H152474   2.658   4.367   0.859 -1.5736 -0.3070  0.8705
10353TIP3    H252475   2.657   4.470   0.747  3.0725  0.5479  1.3992
10354TIP3   OH252476   0.362   2.321  16.364  0.2651 -0.7220  0.1075
10354TIP3    H152477   0.451   2.299  16.337  0.2687 -0.2929 -0.2401
10354TIP3    H252478   0.307   2.300  16.289  0.0699 -1.0094  0.3306
10355TIP3   OH252479   2.423   6.326  11.419 -0.5781 -0.2578  0.5009
10355TIP3    H152480   2.498   6.380  11.442 -1.4223  1.0908  0.2259
10355TIP3    H252481   2.444   6.239  11.452  0.9991  0.1444  0.5983
10356TIP3   OH252482   5.817   6.644  10.433  0.3500  0.6320 -0.4383
10356TIP3    H152483   5.883   6.696  10.479  0.2827  1.5840 -1.3626
10356TIP3    H252484   5.864   6.565  10.405 -0.0990 -0.9604  2.9109
10357TIP3   OH252485   6.076   1.364  14.322 -0.0779  0.1192 -0.0596
10357TIP3    H152486   6.112   1.445  14.285 -0.6588  1.1328  1.5314
10357TIP3    H252487   6.145   1.299  14.308  0.8806  1.1631 -0.2998
10358TIP3   OH252488   0.800   1.104   3.126 -0.5273 -0.2796 -0.0107
10358TIP3    H152489   0.827   1.096   3.217 -0.8868 -1.5516  0.0118
10358TIP3    H252490   0.707   1.126   3.129 -0.4735 -0.0421 -0.0715
10359TIP3   OH252491   3.583   5.993  12.677 -0.7086  0.0766 -0.2881
10359TIP3    H152492   3.619   5.993  12.588 -1.4314 -2.3788 -0.6668
10359TIP3    H252493   3.657   5.965  12.732 -0.1904  1.8385 -0.0206
10360TIP3   OH252494   0.165   3.825   1.010  0.2306  0.3577  0.9519
10360TIP3    H152495   0.097   3.855   1.070 -1.9066 -0.4828 -0.9250
10360TIP3    H252496   0.142   3.864   0.925  2.8628  1.1154  0.4709
10361TIP3   OH252497   6.301   6.031  16.978 -0.0412  0.2769  0.2129
10361TIP3    H152498   6.301   5.936  16.991  2.4926 -0.5981 -4.1343
10361TIP3    H252499   6.394   6.054  16.971 -0.6170  2.4719 -1.6572
10362TIP3   OH252500   1.481   5.020   0.208  0.1709  0.0835 -0.1534
10362TIP3    H152501   1.511   4.938   0.246  0.2928  0.2821  0.1830
10362TIP3    H252502   1.470   5.001   0.115 -1.0152 -0.6634  0.1184
10363TIP3   OH252503   1.774   0.449   2.123 -0.4000 -0.0355 -0.1083
10363TIP3    H152504   1.846   0.467   2.062 -0.8276 -0.8511 -0.8780
10363TIP3    H252505   1.765   0.354   2.123 -1.8821  0.0641 -0.5335
10364TIP3   OH252506   2.814   6.359   4.557  0.8359 -0.2091  0.8071
10364TIP3    H152507   2.761   6.283   4.536  1.1334  0.1710 -1.6001
10364TIP3    H252508   2.752   6.423   4.591  0.2689 -0.7962  0.8983
10365TIP3   OH252509   2.671   1.353  15.126 -0.7447 -0.0663  0.3694
10365TIP3    H152510   2.659   1.443  15.156  0.0538  0.1602  0.0547
10365TIP3    H252511   2.584   1.315  15.128 -1.3129  1.0858 -0.6446
10366TIP3   OH252512   4.030   2.661   2.756  0.1807 -0.0731 -0.0885
10366TIP3    H152513   4.047   2.669   2.850 -0.7879  1.8943 -0.0221
10366TIP3    H252514   4.117   2.658   2.716  0.6217  0.1710  0.8152
10367TIP3   OH252515   5.493   4.223   3.004  0.3310 -0.7505  0.7517
10367TIP3    H152516   5.535   4.183   2.928  0.4588 -0.9784  0.9428
10367TIP3    H252517   5.442   4.152   3.043  0.7800 -0.8033  1.2516
10368TIP3   OH252518   5.181   6.579  15.389 -0.1781  0.1880 -0.2603
10368TIP3    H152519   5.111   6.626  15.435 -0.6496  1.1652 -1.8898
10368TIP3    H252520   5.258   6.591  15.444 -1.0432 -0.0058  1.0373
10369TIP3   OH252521   0.526   1.116   1.865 -0.4924  0.3306  0.1269
10369TIP3    H152522   0.521   1.023   1.843 -3.7255  0.6040 -0.7959
10369TIP3    H252523   0.538   1.160   1.781  1.1259  0.8059  0.5696
10370TIP3   OH252524   2.658   5.263  12.718  0.0676 -0.1158 -0.5112
10370TIP3    H152525   2.751   5.260  12.741  0.6233 -0.8697 -2.6239
10370TIP3    H252526   2.644   5.184  12.665 -0.8615  1.7006 -3.2065
10371TIP3   OH252527   6.481   6.112  12.738  0.1885 -0.3329  0.1392
10371TIP3    H152528   6.409   6.174  12.753  0.5836  0.2096 -0.1591
10371TIP3    H252529   6.462   6.074  12.652  0.6423  0.3665 -0.2842
10372TIP3   OH252530   3.478   2.292   6.159 -0.5206 -0.3810  0.6101
10372TIP3    H152531   3.519   2.294   6.245  3.5105 -0.1571 -1.1174
10372TIP3    H252532   3.476   2.384   6.131  0.8996 -0.6918 -0.6156
10373TIP3   OH252533   4.274   4.730  17.168  0.4859 -0.1225  0.1021
10373TIP3    H152534   4.355   4.713  17.216 -0.2807 -0.3267  1.3829
10373TIP3    H252535   4.234   4.644  17.158 -1.3858  0.2758  2.9093
10374TIP3   OH252536   5.987   6.308  15.428  0.0718  0.4119 -0.4884
10374TIP3    H152537   5.904   6.269  15.402  0.3930 -2.4788  2.1665
10374TIP3    H252538   5.965   6.363  15.503  0.3831  0.6195 -0.5491
10375TIP3   OH252539   3.224   4.124   0.718  0.2636 -0.0464 -0.0328
10375TIP3    H152540   3.294   4.112   0.782  0.1971  0.4872  0.1473
10375TIP3    H252541   3.263   4.095   0.635  1.3044  1.8069 -0.2578
10376TIP3   OH252542   2.614   6.385   3.988  0.4055  0.0068  0.1227
10376TIP3    H152543   2.615   6.451   4.058  1.6345 -0.1597  0.2950
10376TIP3    H252544   2.526   6.390   3.951 -0.0437  0.5886  1.2203
10377TIP3   OH252545   4.682   1.405   3.533  0.2306  0.5542  0.2023
10377TIP3    H152546   4.755   1.463   3.554  2.5354 -2.7953  2.5766
10377TIP3    H252547   4.604   1.455   3.555  1.8767  3.4676 -0.1051
10378TIP3   OH252548   2.618   1.276  11.305 -0.3578 -0.2758 -0.3616
10378TIP3    H152549   2.664   1.269  11.389 -1.9207  1.5774  0.7487
10378TIP3    H252550   2.525   1.269  11.328 -0.9820  2.6857 -1.5168
10379TIP3   OH252551   1.101   5.436   0.059  0.1745 -0.3686 -0.6172
10379TIP3    H152552   1.149   5.500   0.007  0.4552  0.4570  0.6085
10379TIP3    H252553   1.101   5.356   0.006  0.7580  0.3310 -1.7013
10380TIP3   OH252554   3.488   1.938  17.087  0.0752  0.5401 -0.8930
10380TIP3    H152555   3.424   1.916  17.155 -0.2559 -0.8972 -1.6481
10380TIP3    H252556   3.435   1.973  17.015  0.3927  1.7139 -0.5792
10381TIP3   OH252557   1.693   3.252   4.557 -0.1009  0.0308  0.2835
10381TIP3    H152558   1.629   3.185   4.584 -1.1376  1.4148  1.4209
10381TIP3    H252559   1.764   3.244   4.621 -0.3337  0.1631  0.5625
10382TIP3   OH252560   0.131   3.771   3.049 -0.3560 -0.2948 -0.5242
10382TIP3    H152561   0.150   3.837   3.115  0.2796 -0.9943  0.0099
10382TIP3    H252562   0.158   3.688   3.089 -0.0375 -0.7449 -1.6208
10383TIP3   OH252563   2.072   5.291   5.751  0.2076  0.5039  0.5589
10383TIP3    H152564   2.040   5.296   5.661 -0.1573 -0.2404  0.6427
10383TIP3    H252565   2.038   5.208   5.784 -0.2196  1.0709  1.5981
10384TIP3   OH252566   5.709   1.514   0.232 -0.4677 -0.3753  0.4528
10384TIP3    H152567   5.731   1.608   0.227 -1.1806 -0.2581 -1.0866
10384TIP3    H252568   5.794   1.470   0.236 -0.0530  0.2758 -0.6067
10385TIP3   OH252569   5.152   0.669  13.917 -0.6478  0.1795  0.2510
10385TIP3    H152570   5.103   0.691  13.838  0.3079  2.0084  0.1107
10385TIP3    H252571   5.113   0.723  13.986 -0.9352 -0.7947  0.8815
10386TIP3   OH252572   5.548   6.107   1.423 -0.2493  0.1240 -0.4607
10386TIP3    H152573   5.584   6.080   1.339  0.5183 -2.0304  0.4964
10386TIP3    H252574   5.624   6.116   1.481 -0.9190 -0.4762  0.5376
10387TIP3   OH252575   2.523   4.261   3.680 -0.0541  0.7088 -0.5249
10387TIP3    H152576   2.582   4.224   3.745 -0.3645  1.5648  0.2722
10387TIP3    H252577   2.562   4.346   3.657 -0.4788  0.8690 -0.6778
10388TIP3   OH252578   4.583   4.348   0.532  0.3380  0.0170  0.2664
10388TIP3    H152579   4.500   4.388   0.505 -0.1473 -1.2242 -0.1387
10388TIP3    H252580   4.558   4.263   0.569  1.1187  0.9396  3.2047
10389TIP3   OH252581   5.834   1.932   1.141 -0.1538 -0.2875 -0.0390
10389TIP3    H152582   5.881   1.912   1.060  0.6636  1.0537  0.0589
10389TIP3    H252583   5.846   2.027   1.153 -0.9486 -0.3150  1.2211
10390TIP3   OH252584   5.259   2.106  16.115  0.2068 -0.3432  0.6560
10390TIP3    H152585   5.192   2.088  16.048 -0.4385 -0.3020  1.2706
10390TIP3    H252586   5.312   2.176  16.078 -0.0876 -0.3729  0.1563
10391TIP3   OH252587   2.800   0.859   3.298 -0.0162  0.8488  0.8667
10391TIP3    H152588   2.885   0.897   3.320  1.5434 -1.6205 -0.4634
10391TIP3    H252589   2.797   0.777   3.348 -1.7110  0.9376  0.9712
10392TIP3   OH252590   5.141   1.823  14.587 -0.3218  0.1064  0.3769
10392TIP3    H152591   5.100   1.737  14.595  1.4672 -0.8206  0.0701
10392TIP3    H252592   5.213   1.810  14.525  0.9213  1.4507  1.4631
10393TIP3   OH252593   3.536   4.466   2.724 -0.1804  0.1573  0.2342
10393TIP3    H152594   3.485   4.538   2.761 -0.4249 -0.1613  0.5218
10393TIP3    H252595   3.503   4.388   2.768  1.4249  0.0756  1.3727
10394TIP3   OH252596   1.470   3.340  13.436  1.0104  0.5503 -0.5923
10394TIP3    H152597   1.452   3.251  13.406  0.5768 -1.2629  4.1413
10394TIP3    H252598   1.413   3.395  13.383 -2.0694 -2.5694 -0.8834
10395TIP3   OH252599   3.420   1.650   5.284 -0.0524  0.0226  0.0480
10395TIP3    H152600   3.500   1.667   5.334 -0.6190  0.7611  0.7413
10395TIP3    H252601   3.349   1.673   5.345 -0.7667  2.0121 -1.4284
10396TIP3   OH252602   0.309   4.138  15.363 -0.5756 -0.1256 -0.0052
10396TIP3    H152603   0.404   4.130  15.375 -0.5530 -2.0584 -1.0435
10396TIP3    H252604   0.275   4.054  15.392 -1.8829  0.2221 -0.4897
10397TIP3   OH252605   1.798   0.138   3.679 -0.1350 -0.2008 -0.3910
10397TIP3    H152606   1.850   0.061   3.655 -1.4606 -0.6618 -1.8778
10397TIP3    H252607   1.858   0.212   3.666  0.2827 -0.7437 -1.7143
10398TIP3   OH252608   5.956   4.155  17.034 -0.3311  0.2401 -0.1551
10398TIP3    H152609   5.927   4.113  16.953 -0.6262  1.2810 -0.6046
10398TIP3    H252610   6.046   4.182  17.016 -1.0021  2.1596 -0.8461
10399TIP3   OH252611   3.383   0.707   0.809 -0.0701 -0.0637  0.0093
10399TIP3    H152612   3.420   0.673   0.728  0.1657  0.4634 -0.1065
10399TIP3    H252613   3.294   0.671   0.812 -1.5646  2.9203 -2.4497
10400TIP3   OH252614   4.237   5.007   0.857  0.7625 -0.3498  0.6295
10400TIP3    H152615   4.314   5.046   0.899  0.4089  1.9121 -0.6393
10400TIP3    H252616   4.242   5.036   0.766 -1.1477 -0.8290  0.3195
10401TIP3   OH252617   1.213   1.534   4.144 -0.0155  0.3416  0.4387
10401TIP3    H152618   1.288   1.515   4.088 -0.4250  0.5094 -0.1825
10401TIP3    H252619   1.233   1.491   4.227  2.2672  3.0347  1.4438
10402TIP3   OH252620   2.973   3.935   3.306  0.0453 -0.0279 -0.6302
10402TIP3    H152621   3.035   4.003   3.279  0.7332  0.0935  1.1337
10402TIP3    H252622   2.887   3.974   3.291  0.3383 -0.0754 -2.8115
10403TIP3   OH252623   1.763   5.185  13.997 -0.1345  0.1011 -0.6076
10403TIP3    H152624   1.730   5.191  13.907  0.5354 -0.2208 -0.8797
10403TIP3    H252625   1.853   5.153  13.988  0.1140  0.5568  0.1489
10404TIP3   OH252626   6.432   3.698   5.337 -0.6241  0.1008  0.2975
10404TIP3    H152627   6.483   3.694   5.417  0.6224  0.6998 -0.4385
10404TIP3    H252628   6.495   3.723   5.269 -1.7215  0.0034 -0.7992
10405TIP3   OH252629   1.910   5.872   1.730 -0.2401 -0.2289 -0.1931
10405TIP3    H152630   1.846   5.867   1.801 -0.7051  0.2820 -0.5618
10405TIP3    H252631   1.858   5.858   1.650 -0.1741  1.6755 -0.6089
10406TIP3   OH252632   1.082   1.305  15.592  0.2826 -0.2829 -0.1535
10406TIP3    H152633   1.126   1.295  15.507  0.0768  0.5476 -0.3619
10406TIP3    H252634   0.989   1.305  15.571  0.2419  1.5178 -0.1314
10407TIP3   OH252635   0.246   1.590  12.927 -0.1028 -0.1045  0.1185
10407TIP3    H152636   0.160   1.624  12.902  1.0184  2.1893 -1.0274
10407TIP3    H252637   0.282   1.658  12.984  0.3436 -1.8084  1.9622
10408TIP3   OH252638   4.577   6.458  12.433 -0.6388 -0.2627  0.1239
10408TIP3    H152639   4.540   6.451  12.345  0.4649  0.9524 -0.4874
10408TIP3    H252640   4.647   6.392  12.435 -0.7802 -0.4118  0.1552
10409TIP3   OH252641   2.174   1.606   1.246 -0.6454  0.0570 -0.1836
10409TIP3    H152642   2.185   1.701   1.257  1.0051 -0.1292 -0.0246
10409TIP3    H252643   2.255   1.577   1.203 -0.4942 -1.4911  1.0618
10410TIP3   OH252644   6.274   6.239  13.990 -0.1152 -0.2134  0.1305
10410TIP3    H152645   6.272   6.179  14.064  0.4917 -0.0185  0.3062
10410TIP3    H252646   6.362   6.231  13.953 -0.1646  0.2476 -0.1034
10411TIP3   OH252647   6.447   6.260  16.781 -0.3398 -0.7286  0.3007
10411TIP3    H152648   6.489   6.202  16.845 -2.0169  0.2683  2.4359
10411TIP3    H252649   6.436   6.342  16.828 -1.7647  0.0146 -1.2448
10412TIP3   OH252650   3.967   1.973   3.560  0.2949 -0.0465  0.1176
10412TIP3    H152651   3.989   1.880   3.547 -0.5195 -0.1931 -0.2985
10412TIP3    H252652   3.970   2.010   3.471 -0.1801  0.1362  0.1754
10413TIP3   OH252653   4.054   0.176   5.775 -0.0267 -0.0658 -0.5999
10413TIP3    H152654   3.997   0.144   5.705 -0.5447  1.8079 -1.0848
10413TIP3    H252655   4.002   0.243   5.819  1.5944  1.2873 -0.6809
10414TIP3   OH252656   5.118   4.527  13.021  0.3609 -0.0932  0.2898
10414TIP3    H152657   5.041   4.581  13.038  0.4646 -0.4134  1.9323
10414TIP3    H252658   5.191   4.588  13.022  0.1865  0.1790 -1.0632
10415TIP3   OH252659   4.900   4.068  16.077 -0.4029 -0.4919  0.3931
10415TIP3    H152660   4.806   4.053  16.090 -0.7886  1.2199 -0.1236
10415TIP3    H252661   4.915   4.157  16.109  0.7773 -0.2496 -0.7271
10416TIP3   OH252662   6.107   5.362   2.464  0.5070  0.3805  0.2375
10416TIP3    H152663   6.039   5.340   2.399 -1.0784  2.9803  0.8443
10416TIP3    H252664   6.175   5.406   2.413  2.2671 -2.9656 -0.5076
10417TIP3   OH252665   1.054   4.294  14.799 -0.0780  0.0837 -0.4164
10417TIP3    H152666   1.099   4.215  14.768  1.4371 -0.8083  3.4282
10417TIP3    H252667   0.990   4.261  14.862 -1.7677  1.8121 -1.1180
10418TIP3   OH252668   2.828   0.291   0.176 -0.2205 -0.0865 -0.5499
10418TIP3    H152669   2.809   0.379   0.142 -1.5054 -0.2192 -0.2429
10418TIP3    H252670   2.839   0.303   0.270 -2.9112 -0.5457 -0.0945
10419TIP3   OH252671   4.223   3.882   5.242  0.1604  0.4790  0.0416
10419TIP3    H152672   4.264   3.799   5.215 -0.3660  0.4078 -0.5606
10419TIP3    H252673   4.257   3.946   5.180  0.0812  0.5949  0.1184
10420TIP3   OH252674   2.682   0.765  12.424  0.0390  0.2821 -0.2224
10420TIP3    H152675   2.635   0.769  12.341  0.5810 -1.2928 -0.6356
10420TIP3    H252676   2.774   0.772  12.399  0.1610  0.8409  0.3557
10421TIP3   OH252677   5.849   4.703   0.842  0.6880  0.3319  0.1605
10421TIP3    H152678   5.819   4.618   0.875 -0.3733  0.8687  0.6359
10421TIP3    H252679   5.918   4.682   0.779  0.5442 -0.8693  0.3842
10422TIP3   OH252680   2.444   6.492   2.092  0.2774 -0.1117 -0.4830
10422TIP3    H152681   2.421   6.557   2.025  0.1191  0.1114 -0.2125
10422TIP3    H252682   2.539   6.484   2.086  0.8444  2.9736  2.0380
10423TIP3   OH252683   4.680   1.268   2.076 -0.0433 -0.1176 -0.1613
10423TIP3    H152684   4.604   1.211   2.090 -1.0031  0.7853 -1.4562
10423TIP3    H252685   4.744   1.239   2.141 -1.0893 -1.6160  0.2522
10424TIP3   OH252686   4.330   2.472  15.600  0.5444  0.3875 -0.2577
10424TIP3    H152687   4.272   2.523  15.657  0.8049  0.1267  0.2418
10424TIP3    H252688   4.290   2.479  15.513 -1.0986 -1.0574  0.3364
10425TIP3   OH252689   2.482   0.855  16.961  0.2278 -0.1660  0.0259
10425TIP3    H152690   2.539   0.811  16.898 -0.6398 -1.8615  0.3711
10425TIP3    H252691   2.504   0.948  16.952  3.3855 -0.7507  0.5080
10426TIP3   OH252692   1.534   0.586   3.646 -0.4151  0.1729  0.0270
10426TIP3    H152693   1.514   0.570   3.738 -2.5236 -0.1173 -0.4498
10426TIP3    H252694   1.532   0.500   3.606  1.0059  0.2366 -0.2366
10427TIP3   OH252695   0.298   6.238  10.640 -0.1349  0.2660  0.6738
10427TIP3    H152696   0.270   6.263  10.552  0.8454 -1.1757 -0.0967
10427TIP3    H252697   0.283   6.316  10.694 -0.4635  1.2741 -0.8254
10428TIP3   OH252698   0.918   5.155  17.084  0.6475 -0.5558  0.1646
10428TIP3    H152699   0.962   5.074  17.058  0.3982 -0.7958  0.4824
10428TIP3    H252700   0.876   5.187  17.003  0.0905 -1.1600  0.2114
10429TIP3   OH252701   3.749   6.512   4.848  0.3856 -0.1460  0.3967
10429TIP3    H152702   3.792   6.434   4.813  1.3448 -0.1812  1.5967
10429TIP3    H252703   3.770   6.511   4.941 -1.1396  0.5539  0.7762
10430TIP3   OH252704   3.396   0.410  13.233 -0.1122  0.0102  0.2466
10430TIP3    H152705   3.443   0.349  13.291 -0.5801 -0.8798 -0.2811
10430TIP3    H252706   3.462   0.473  13.206  2.0570 -3.4681 -3.7754
10431TIP3   OH252707   2.972   3.031   1.608  0.2300  0.7392  0.2463
10431TIP3    H152708   2.878   3.045   1.596  0.1064  0.8936  1.3573
10431TIP3    H252709   2.982   2.936   1.614  0.0028  0.7715  1.2160
10432TIP3   OH252710   2.825   4.846  12.639  0.1856 -0.0430 -0.2505
10432TIP3    H152711   2.856   4.756  12.649  1.0463  0.2521 -0.1803
10432TIP3    H252712   2.903   4.896  12.617 -0.1266  0.8465  0.5880
10433TIP3   OH252713   1.778   0.643   4.960 -0.3127 -0.3668 -0.0094
10433TIP3    H152714   1.792   0.608   5.048  2.0317 -0.9110 -0.5517
10433TIP3    H252715   1.718   0.580   4.919  1.0306 -1.8545  0.2083
10434TIP3   OH252716   2.073   1.670  17.068 -0.4727 -0.1976 -0.1611
10434TIP3    H152717   2.032   1.588  17.096  2.2368 -0.8466  2.4349
10434TIP3    H252718   2.136   1.644  17.001 -1.3477  0.1759 -1.1467
10435TIP3   OH252719   4.453   4.113   0.211  0.7658  0.0247  0.2745
10435TIP3    H152720   4.480   4.204   0.212  2.3681 -0.4309  1.2884
10435TIP3    H252721   4.410   4.099   0.295  0.7079 -0.2191  0.2071
10436TIP3   OH252722   2.479   2.479   5.732 -0.6977 -0.0967 -0.0192
10436TIP3    H152723   2.437   2.393   5.727 -2.1746  0.4342  1.9961
10436TIP3    H252724   2.449   2.516   5.815  1.2758  1.6771 -0.0112
10437TIP3   OH252725   6.397   0.501  10.975  0.4670  0.1262  0.0649
10437TIP3    H152726   6.372   0.418  10.935 -0.4717  0.5397 -0.2171
10437TIP3    H252727   6.434   0.476  11.060 -0.0340 -0.5591  0.0877
10438TIP3   OH252728   4.372   6.185  10.462 -1.3059 -0.2544 -0.0122
10438TIP3    H152729   4.454   6.190  10.512 -2.7694  3.7401  2.5151
10438TIP3    H252730   4.395   6.135  10.384  2.3575 -3.0172  2.4765
10439TIP3   OH252731   1.877   0.934   0.769 -0.1672 -0.3959 -0.1169
10439TIP3    H152732   1.950   0.910   0.826 -1.5298 -1.5318  1.2308
10439TIP3    H252733   1.845   1.017   0.804 -1.1860 -1.2327  1.0468
10440TIP3   OH252734   3.326   0.081   5.899 -0.0285  0.2346 -0.3817
10440TIP3    H152735   3.359   0.159   5.943 -0.1404  0.1122 -0.0804
10440TIP3    H252736   3.400   0.020   5.899  0.1614  0.4545 -0.9045
10441TIP3   OH252737   4.870   0.913  11.025  0.8069  0.0020  0.5714
10441TIP3    H152738   4.869   0.903  10.929  2.0552 -1.0846  0.6297
10441TIP3    H252739   4.939   0.978  11.041  0.0192  0.8151  0.7060
10442TIP3   OH252740   3.306   4.413   3.901 -0.6076 -0.2451  0.0176
10442TIP3    H152741   3.312   4.375   3.813 -0.0908 -2.6571  1.0335
10442TIP3    H252742   3.388   4.462   3.911 -1.7978  2.3214 -1.7506
10443TIP3   OH252743   1.656   2.982  14.862 -0.1194  0.2400 -0.5179
10443TIP3    H152744   1.738   2.958  14.905 -0.2249 -0.0886 -0.4989
10443TIP3    H252745   1.678   3.059  14.810 -0.0194  0.7228  0.2228
10444TIP3   OH252746   5.104   4.835   2.060 -0.4538  0.6486 -0.2275
10444TIP3    H152747   5.030   4.892   2.082 -1.0822 -0.6644  1.3017
10444TIP3    H252748   5.159   4.836   2.139  0.0573 -0.0578 -0.5638
10445TIP3   OH252749   4.904   4.047   2.172 -0.2704  0.8647  0.1417
10445TIP3    H152750   4.999   4.050   2.159  0.0494 -0.4760  1.7974
10445TIP3    H252751   4.878   3.961   2.138 -0.2381 -0.3734  2.9574
10446TIP3   OH252752   1.557   6.112  13.217  0.4811  0.0634  0.5625
10446TIP3    H152753   1.471   6.128  13.256  0.3111  1.4966 -0.3349
10446TIP3    H252754   1.538   6.086  13.127  0.9491 -1.4151  0.8557
10447TIP3   OH252755   1.652   5.343  11.888  0.6838 -0.0344  0.0593
10447TIP3    H152756   1.636   5.364  11.796 -0.5584 -0.4227  0.1669
10447TIP3    H252757   1.712   5.269  11.885  0.0828 -0.5111 -0.4618
10448TIP3   OH252758   3.877   2.239   5.786  0.2383 -0.1717  0.0282
10448TIP3    H152759   3.910   2.183   5.716  1.0126  0.0473  0.2058
10448TIP3    H252760   3.944   2.307   5.796  0.5399 -0.6553  1.5326
10449TIP3   OH252761   5.800   1.258  15.576  0.5247  0.0549 -0.2782
10449TIP3    H152762   5.749   1.294  15.504  0.1748 -0.5379 -0.3373
10449TIP3    H252763   5.848   1.185  15.538  0.0278 -0.5173  0.1717
10450TIP3   OH252764   5.572   4.859   4.853 -0.7219 -0.4989 -0.1741
10450TIP3    H152765   5.615   4.909   4.783 -1.2035 -0.4821 -0.4600
10450TIP3    H252766   5.559   4.923   4.923  1.3848 -0.9149  0.6668
10451TIP3   OH252767   6.255   6.599  15.775  0.6264 -0.0416 -0.0884
10451TIP3    H152768   6.180   6.598  15.717  0.9968  0.9783 -0.6212
10451TIP3    H252769   6.300   6.681  15.754  2.4289 -1.0788 -0.4804
10452TIP3   OH252770   1.832   0.723   4.212  0.1814 -0.3630  0.0293
10452TIP3    H152771   1.917   0.686   4.188  0.7080  0.0088  1.2085
10452TIP3    H252772   1.852   0.783   4.284 -1.1159 -0.4265  0.4663
10453TIP3   OH252773   5.112   1.769   2.607 -0.1296  0.1504  0.2813
10453TIP3    H152774   5.160   1.688   2.625  1.1690  1.2316  2.0922
10453TIP3    H252775   5.157   1.807   2.532 -0.4344 -0.5605 -0.2674
10454TIP3   OH252776   2.254   1.708  13.719  0.2133 -0.5535  0.8729
10454TIP3    H152777   2.167   1.724  13.754 -0.9948 -0.6335 -1.8464
10454TIP3    H252778   2.240   1.688  13.626  3.1677 -0.0489  0.2003
10455TIP3   OH252779   2.385   3.007   6.150 -0.1913  0.2869  0.0795
10455TIP3    H152780   2.449   3.075   6.128 -0.2065  1.3982  2.9749
10455TIP3    H252781   2.435   2.943   6.201 -0.7105 -0.5952 -0.4973
10456TIP3   OH252782   5.013   3.905  12.504 -0.2521 -0.0835  0.1118
10456TIP3    H152783   4.981   3.912  12.594  0.1022  1.0801  0.1753
10456TIP3    H252784   4.936   3.922  12.449 -0.0487  1.4315  0.2461
10457TIP3   OH252785   3.168   4.355   4.535 -0.1803  0.4844 -0.0605
10457TIP3    H152786   3.211   4.351   4.621  0.3497  3.8585 -0.0160
10457TIP3    H252787   3.224   4.303   4.478  0.2052 -0.7085  1.3625
10458TIP3   OH252788   0.754   1.041   4.533  0.3932 -0.0512 -0.5248
10458TIP3    H152789   0.758   1.132   4.562  2.6802  0.0929 -1.0966
10458TIP3    H252790   0.843   1.021   4.503  0.2366 -2.7848  0.4921
10459TIP3   OH252791   6.179   2.300  16.516  0.2715 -0.0226 -0.3185
10459TIP3    H152792   6.098   2.261  16.549  0.9016 -1.0474  0.0648
10459TIP3    H252793   6.160   2.322  16.425  0.2332 -2.3182 -0.9257
10460TIP3   OH252794   2.901   5.260   2.567  0.2475 -0.3132  0.2169
10460TIP3    H152795   2.912   5.294   2.655 -4.3776 -1.7414  1.6192
10460TIP3    H252796   2.907   5.165   2.577  0.2646 -0.4806 -1.1595
10461TIP3   OH252797   0.198   6.541  11.508  0.2117  0.3554 -0.0745
10461TIP3    H152798   0.218   6.633  11.495 -1.1785  0.6366 -0.3872
10461TIP3    H252799   0.150   6.515  11.430 -0.1398 -0.4162  0.3821
10462TIP3   OH252800   2.025   5.798  11.473 -0.5635  0.3661 -0.1658
10462TIP3    H152801   1.945   5.847  11.492 -0.6229  1.1746 -2.2063
10462TIP3    H252802   2.021   5.783  11.378  0.6415 -1.5196  0.0373
10463TIP3   OH252803   1.865   0.979  12.188  0.2462 -0.7863  0.5266
10463TIP3    H152804   1.786   0.928  12.168 -1.7334  2.2584 -0.0719
10463TIP3    H252805   1.853   1.007  12.278  1.1296 -1.0639  0.7348
10464TIP3   OH252806   0.030   5.283  13.097  0.0363  0.9378  0.0364
10464TIP3    H152807  -0.010   5.223  13.160 -0.5706 -0.7536 -1.8505
10464TIP3    H252808   0.111   5.311  13.139 -0.3350 -0.1503  1.5516
10465TIP3   OH252809   0.802   3.759   5.210  0.4713 -0.0178 -0.0118
10465TIP3    H152810   0.712   3.768   5.178  0.7673  0.0748 -0.8384
10465TIP3    H252811   0.797   3.688   5.274 -0.2118  0.0674  0.0369
10466TIP3   OH252812   3.159   2.905   2.882 -0.3999 -0.6013  0.0301
10466TIP3    H152813   3.102   2.935   2.952  0.9746  0.6297  0.6916
10466TIP3    H252814   3.144   2.967   2.811  0.4288  0.0142  0.3794
10467TIP3   OH252815   6.553   5.581  14.980  0.1214  0.8126 -0.3705
10467TIP3    H152816   6.630   5.545  15.023  0.2060  0.6512 -0.6552
10467TIP3    H252817   6.480   5.529  15.013  0.2042  0.5900 -0.5292
10468TIP3   OH252818   0.424   6.049  11.156 -0.5079  0.4581 -0.2235
10468TIP3    H152819   0.460   6.131  11.191  0.0943 -0.6955  2.0286
10468TIP3    H252820   0.499   5.991  11.146 -1.2582 -0.8637  1.3002
10469TIP3   OH252821   3.946   0.716   1.567  0.0578  0.3793  0.3274
10469TIP3    H152822   3.851   0.707   1.570  0.0185  0.0881 -1.1713
10469TIP3    H252823   3.970   0.744   1.655 -1.4279  0.6095  0.6854
10470TIP3   OH252824   5.304   1.030  13.650  0.3413  0.2734  0.6138
10470TIP3    H152825   5.354   0.981  13.585  0.2157  0.2392  0.5424
10470TIP3    H252826   5.226   1.060  13.603  1.7566  3.0191 -0.1731
10471TIP3   OH252827   3.141   3.444  16.592 -0.4824 -0.0873 -0.2266
10471TIP3    H152828   3.192   3.524  16.601 -0.6188  0.0979 -1.0012
10471TIP3    H252829   3.052   3.474  16.572 -0.9194 -0.4081  1.1804
10472TIP3   OH252830   3.636   4.861  16.308 -0.2515 -0.4563 -0.3473
10472TIP3    H152831   3.642   4.766  16.310  1.5301 -0.3622  0.4194
10472TIP3    H252832   3.621   4.886  16.400 -2.2986 -0.0417 -0.7460
10473TIP3   OH252833   3.556   0.541  11.671 -0.1047 -0.0423 -0.5478
10473TIP3    H152834   3.608   0.540  11.591 -1.7224 -0.3874 -1.6250
10473TIP3    H252835   3.473   0.581  11.646 -0.6960 -0.2775  0.9358
10474TIP3   OH252836   2.513   5.717  14.328 -1.0541  0.6114  0.4770
10474TIP3    H152837   2.509   5.782  14.258  2.8097 -0.6504 -1.1783
10474TIP3    H252838   2.438   5.660  14.312 -1.7733  1.8889 -0.9851
10475TIP3   OH252839   0.931   3.844  13.911  0.2571 -0.1051 -0.0651
10475TIP3    H152840   0.946   3.750  13.913  2.6137  0.1814 -1.1506
10475TIP3    H252841   1.005   3.879  13.862 -0.5815  2.3195  0.2775
10476TIP3   OH252842   4.453   0.992   3.653  0.2207 -0.6020 -0.6400
10476TIP3    H152843   4.530   1.048   3.657 -1.4292  1.7672  0.8137
10476TIP3    H252844   4.455   0.942   3.734  1.0841 -1.8387 -1.3999
10477TIP3   OH252845   1.936   0.376   0.036 -0.2948  0.2240 -0.0126
10477TIP3    H152846   1.953   0.383   0.130  0.9186  1.3573 -0.2886
10477TIP3    H252847   2.021   0.392  -0.004 -1.0602  1.0387 -1.3475
10478TIP3   OH252848   2.105   2.264   0.929 -0.7708  0.4368 -0.0825
10478TIP3    H152849   2.046   2.198   0.891 -1.3400  1.0092 -0.2157
10478TIP3    H252850   2.146   2.220   1.003  1.1488 -1.0691 -1.9203
10479TIP3   OH252851   0.172   4.159  14.932  0.3252  0.0674 -0.2226
10479TIP3    H152852   0.136   4.246  14.914  0.4887  0.0807 -0.4794
10479TIP3    H252853   0.244   4.149  14.870  1.0341  0.2032  0.5606
10480TIP3   OH252854   4.304   2.912   4.362 -0.0602 -0.4710 -0.2811
10480TIP3    H152855   4.363   2.939   4.292  0.5232 -1.2441 -0.1014
10480TIP3    H252856   4.248   2.845   4.323 -1.4548  0.8972 -0.7042
10481TIP3   OH252857   6.104   1.417   5.872  0.2320 -0.2555 -0.1238
10481TIP3    H152858   6.123   1.487   5.934  2.7797 -0.2344 -0.8360
10481TIP3    H252859   6.044   1.457   5.808  0.2475  0.7138  0.4570
10482TIP3   OH252860   5.856   1.860  14.911 -0.0705 -0.2409 -0.4409
10482TIP3    H152861   5.944   1.875  14.944 -0.7260 -0.0586  1.3023
10482TIP3    H252862   5.867   1.856  14.816  1.7526  0.1313 -0.2853
10483TIP3   OH252863   6.553   2.276   1.415 -0.0922 -0.3507 -0.2344
10483TIP3    H152864   6.569   2.190   1.377  1.0784 -0.4232  0.3698
10483TIP3    H252865   6.627   2.290   1.474 -2.7902 -1.2105  3.7407
10484TIP3   OH252866   2.117   4.362  15.632  0.0208  0.2820  0.2918
10484TIP3    H152867   2.167   4.281  15.633 -0.6201 -0.2691 -3.1243
10484TIP3    H252868   2.032   4.338  15.668  0.3800 -0.0937  0.9192
10485TIP3   OH252869   0.855   2.900   2.017 -0.2181  0.3970  0.1398
10485TIP3    H152870   0.921   2.968   2.025 -0.7498  1.4651 -3.0018
10485TIP3    H252871   0.904   2.823   1.987 -0.2999  1.3888 -2.9197
10486TIP3   OH252872   3.077   2.094  14.902 -0.4525  0.3807 -0.1045
10486TIP3    H152873   3.086   2.090  14.807  1.4107  1.9961 -0.0467
10486TIP3    H252874   3.152   2.045  14.936 -0.3728  0.9117  0.5153
10487TIP3   OH252875   6.054   3.351   5.533  0.1250  0.0626 -0.3327
10487TIP3    H152876   6.028   3.354   5.625 -0.0119 -0.3586 -0.3545
10487TIP3    H252877   6.005   3.422   5.492  0.4371  0.4672 -0.0209
10488TIP3   OH252878   2.531   0.518  16.554 -0.0551 -0.3675  0.1778
10488TIP3    H152879   2.448   0.471  16.556  0.0416 -0.5158  0.9856
10488TIP3    H252880   2.507   0.611  16.557 -0.1955 -0.4129  0.5625
10489TIP3   OH252881   1.402   5.524  13.413  0.1475 -0.0568 -0.3343
10489TIP3    H152882   1.496   5.523  13.394 -0.1408  1.3655 -2.0063
10489TIP3    H252883   1.386   5.610  13.451 -0.4706 -0.3584  0.1134
10490TIP3   OH252884   4.832   4.581   2.764 -0.6396  0.2097 -0.0135
10490TIP3    H152885   4.770   4.535   2.708 -1.0085 -1.4307  1.6362
10490TIP3    H252886   4.832   4.671   2.732 -1.6036 -0.4299 -1.9351
10491TIP3   OH252887   1.697   3.385  15.969  0.6903  0.0355  0.0301
10491TIP3    H152888   1.681   3.419  16.057  3.0980  0.4728  0.3764
10491TIP3    H252889   1.750   3.306  15.984  1.0258  0.0538 -1.0146
10492TIP3   OH252890   2.522   0.787   3.679  0.5034 -0.2697 -0.4454
10492TIP3    H152891   2.510   0.877   3.649 -1.8108 -0.9966 -2.0043
10492TIP3    H252892   2.529   0.794   3.774  0.1222  1.5256 -0.5078
10493TIP3   OH252893   3.494   1.426  16.053  0.0283  0.4202  0.3339
10493TIP3    H152894   3.559   1.496  16.054  1.4084 -0.8250  1.2188
10493TIP3    H252895   3.411   1.471  16.070  0.8562  1.8543  0.7642
10494TIP3   OH252896   5.966   4.909  12.793 -0.0874  0.2621  0.4177
10494TIP3    H152897   5.881   4.866  12.782  0.6012 -0.5568 -2.1246
10494TIP3    H252898   5.992   4.886  12.883 -0.8869 -2.5610  0.0232
10495TIP3   OH252899   3.056   3.015  17.113  0.5303  0.4920  0.9281
10495TIP3    H152900   3.116   3.089  17.103  0.6910  0.3343  0.6989
10495TIP3    H252901   3.075   2.959  17.037 -0.5008  0.8672  0.3617
10496TIP3   OH252902   1.832   2.508   2.679  0.6632 -0.8344 -0.7468
10496TIP3    H152903   1.922   2.492   2.707  1.0299  1.7339 -0.2083
10496TIP3    H252904   1.840   2.547   2.591  0.2098  0.6265 -0.1720
10497TIP3   OH252905   2.599   2.785  14.707  0.0540 -0.0457 -0.2962
10497TIP3    H152906   2.555   2.731  14.642  0.4832 -0.1717 -0.4913
10497TIP3    H252907   2.529   2.832  14.752 -1.1106 -4.8999  3.8592
10498TIP3   OH252908   6.331   6.488  14.220 -0.1724 -0.2293 -0.3094
10498TIP3    H152909   6.351   6.581  14.207 -1.9077  0.8300  3.3505
10498TIP3    H252910   6.253   6.472  14.168  0.5018  0.1411 -1.4686
10499TIP3   OH252911   5.651   3.312  15.819  0.2526  0.1108 -0.0071
10499TIP3    H152912   5.570   3.362  15.832  1.3004  1.5925  1.2850
10499TIP3    H252913   5.624   3.235  15.769 -1.6158  1.5101 -1.3049
10500TIP3   OH252914   0.327   3.533   5.180  0.2285 -0.1055 -0.4275
10500TIP3    H152915   0.309   3.445   5.146  0.3282 -0.1142 -0.4580
10500TIP3    H252916   0.299   3.530   5.271  0.6312 -0.2984 -0.3057
10501TIP3   OH252917   3.698   6.495  12.087  0.1662  0.7473  0.8195
10501TIP3    H152918   3.767   6.485  12.022 -0.1342  1.7546  0.3361
10501TIP3    H252919   3.666   6.584  12.075 -0.2894  0.7542  1.9607
10502TIP3   OH252920   2.897   4.626  14.168  0.0824  0.2289  0.1466
10502TIP3    H152921   2.900   4.716  14.137  0.6343  0.4091  0.6746
10502TIP3    H252922   2.980   4.615  14.216  0.5436 -0.9098 -0.8640
10503TIP3   OH252923   1.749   1.372   5.154  0.1858  0.5066  0.6345
10503TIP3    H152924   1.799   1.398   5.077 -1.4213 -0.4381 -0.7941
10503TIP3    H252925   1.814   1.340   5.216  1.2979 -1.8825 -1.6117
10504TIP3   OH252926   2.121   4.074   5.365 -0.3227  0.3016  0.8392
10504TIP3    H152927   2.034   4.053   5.399  0.0028 -1.2297  0.8269
10504TIP3    H252928   2.126   4.169   5.367 -2.7134  0.5518 -0.9375
10505TIP3   OH252929   1.799   5.662  16.330  0.2001 -0.2490  0.5188
10505TIP3    H152930   1.750   5.699  16.257  0.9741  2.7503  1.3774
10505TIP3    H252931   1.756   5.696  16.408  0.7629 -1.5468  1.4370
10506TIP3   OH252932   4.566   1.277   4.613  0.0202  0.1329  0.7737
10506TIP3    H152933   4.520   1.311   4.690 -0.9960 -1.4825  0.9331
10506TIP3    H252934   4.504   1.288   4.541 -1.0403 -2.6674  1.1110
10507TIP3   OH252935   2.495   2.226  17.194 -0.0990  0.2976  0.0664
10507TIP3    H152936   2.581   2.241  17.156  0.6759 -2.0944  0.6908
10507TIP3    H252937   2.475   2.306  17.242  3.1590 -0.0661  2.3266
10508TIP3   OH252938   2.284   1.259  14.243  0.0544  0.2357  0.6341
10508TIP3    H152939   2.367   1.265  14.196 -0.6986  1.9671 -0.5737
10508TIP3    H252940   2.242   1.180  14.208  0.7143 -0.0378  0.4491
10509TIP3   OH252941   4.240   3.405  15.917 -0.3124  0.0356  0.6065
10509TIP3    H152942   4.302   3.415  15.845 -0.7476  1.9675  0.4438
10509TIP3    H252943   4.270   3.468  15.983 -0.3812 -1.1362  1.7997
10510TIP3   OH252944   5.540   1.100   3.532  0.0582  0.5107 -0.0791
10510TIP3    H152945   5.488   1.043   3.476  1.2204 -1.0544  0.3672
10510TIP3    H252946   5.482   1.122   3.606 -0.1281 -0.8484  0.1991
10511TIP3   OH252947   5.574   1.588  14.133  0.1150 -0.0057 -0.2500
10511TIP3    H152948   5.508   1.567  14.066 -0.1825 -0.8337  0.2931
10511TIP3    H252949   5.594   1.504  14.174 -0.4455  0.6061  1.3827
10512TIP3   OH252950   5.295   6.527   4.465 -0.0713  0.0693 -0.2310
10512TIP3    H152951   5.388   6.529   4.486 -0.5400 -0.4057  2.0696
10512TIP3    H252952   5.259   6.604   4.508 -1.1555 -1.1932  1.2051
10513TIP3   OH252953   1.734   1.392  11.560 -0.3601  0.3602 -0.1680
10513TIP3    H152954   1.710   1.471  11.510 -0.2628  1.9572  2.1702
10513TIP3    H252955   1.830   1.393  11.559 -0.3439  1.0729  1.0094
10514TIP3   OH252956   3.446   2.353   1.399  0.1599 -0.2983  0.0960
10514TIP3    H152957   3.444   2.307   1.315  1.4957 -0.6567  0.2294
10514TIP3    H252958   3.386   2.304   1.455 -0.0219 -0.6229 -0.3795
10515TIP3   OH252959   2.859   1.548  16.903 -0.1731  0.2192  0.3648
10515TIP3    H152960   2.948   1.527  16.933  0.6237  0.6710 -1.5304
10515TIP3    H252961   2.811   1.466  16.911  0.8590 -0.4452 -0.0518
10516TIP3   OH252962   3.431   6.531   5.462  0.2109  0.0900 -0.2521
10516TIP3    H152963   3.481   6.492   5.534 -2.9309 -1.7194  1.1541
10516TIP3    H252964   3.419   6.622   5.489 -0.3233 -0.3905  1.2327
10517TIP3   OH252965   2.496   6.099  16.163  0.1491 -0.3347  0.1119
10517TIP3    H152966   2.435   6.084  16.235 -0.0973 -1.9693 -0.3921
10517TIP3    H252967   2.511   6.193  16.163 -0.4792 -0.2062  1.7799
10518TIP3   OH252968   2.207   1.762  16.335  0.3637 -0.0809 -0.4975
10518TIP3    H152969   2.264   1.817  16.388  1.0480  0.2761 -1.5764
10518TIP3    H252970   2.246   1.763  16.248 -2.3693  1.8516 -1.8574
10519TIP3   OH252971   1.185   0.457  17.197  0.0752 -0.6427  0.2056
10519TIP3    H152972   1.168   0.438  17.290 -0.3192 -0.1778  0.2285
10519TIP3    H252973   1.106   0.499  17.166  0.5825  0.1093 -0.0939
10520TIP3   OH252974   4.689   3.886  16.998  0.1556  0.1418  0.3124
10520TIP3    H152975   4.761   3.929  17.045 -0.2513 -1.0397  2.1124
10520TIP3    H252976   4.619   3.952  16.995 -0.0780  0.0155  2.0860
10521TIP3   OH252977   0.560   2.454   0.918 -0.1498 -0.0593  0.2879
10521TIP3    H152978   0.543   2.507   0.996 -2.5524  1.5256 -1.1349
10521TIP3    H252979   0.487   2.476   0.859  1.4681 -1.2617 -2.3409
10522TIP3   OH252980   1.952   6.370   2.053  0.1118  0.5830  0.4333
10522TIP3    H152981   2.036   6.342   2.016 -0.4900 -0.5325 -0.1154
10522TIP3    H252982   1.914   6.290   2.089 -1.2976  0.8221 -0.4773
10523TIP3   OH252983   2.985   4.398   6.408 -0.0407 -0.1008  0.0824
10523TIP3    H152984   2.976   4.389   6.313 -0.0143  0.7371 -0.0052
10523TIP3    H252985   3.077   4.419   6.423 -0.3641  1.4337  0.1354
10524TIP3   OH252986   2.529   1.485   4.357 -0.5064 -0.5383 -0.0213
10524TIP3    H152987   2.527   1.575   4.392  2.6308 -0.6916  0.8211
10524TIP3    H252988   2.527   1.497   4.262  1.9082  0.6655 -0.0128
10525TIP3   OH252989   1.298   2.850   2.862 -0.1778  0.3345  0.3177
10525TIP3    H152990   1.272   2.912   2.794  0.9998 -0.1670 -0.6031
10525TIP3    H252991   1.330   2.774   2.815 -0.2479 -0.4131  1.4435
10526TIP3   OH252992   4.089   4.766  15.735  0.7014  0.6287  0.5753
10526TIP3    H152993   4.101   4.711  15.658 -1.3677  0.9115  0.0125
10526TIP3    H252994   4.100   4.706  15.809 -0.8283 -0.4340 -0.0154
10527TIP3   OH252995   0.111   4.080   4.664  0.7144  0.1414 -0.0080
10527TIP3    H152996   0.105   3.984   4.658 -0.1544  0.2480 -1.1178
10527TIP3    H252997   0.042   4.105   4.725 -0.0613  0.1559 -0.8660
10528TIP3   OH252998   1.554   5.340   3.504 -0.4928 -0.2539  0.8452
10528TIP3    H152999   1.482   5.400   3.523  0.0223  0.6793 -0.0296
10528TIP3    H253000   1.624   5.365   3.564 -0.3442 -0.1004  0.6105
10529TIP3   OH253001   5.753   3.807  11.903  0.4968 -0.4794 -0.1365
10529TIP3    H153002   5.775   3.721  11.939  3.2840 -0.1254 -0.7890
10529TIP3    H253003   5.736   3.790  11.810 -3.4269 -0.8818  0.4624
10530TIP3   OH253004   1.809   3.920  16.968 -0.3264 -0.5170 -0.0881
10530TIP3    H153005   1.841   3.907  17.057 -1.1320 -1.5009  0.0798
10530TIP3    H253006   1.876   3.880  16.912  1.6400  2.5812 -0.1895
10531TIP3   OH253007   2.395   5.691   2.324  0.1850  0.3750  1.0516
10531TIP3    H153008   2.375   5.728   2.238  1.6736  1.9210  1.3173
10531TIP3    H253009   2.460   5.622   2.306 -0.0514  0.1990  0.8694
10532TIP3   OH253010   1.917   1.021   5.897 -0.2737  1.1390  0.0210
10532TIP3    H153011   1.842   0.998   5.951  0.6355 -1.3193  0.3688
10532TIP3    H253012   1.987   0.961   5.925  1.2893  2.1384 -1.4858
10533TIP3   OH253013   3.925   5.047   0.328  0.3936  0.2750 -0.3092
10533TIP3    H153014   3.922   4.951   0.323  0.7891  0.2346  0.1045
10533TIP3    H253015   3.835   5.073   0.346  0.2349 -0.0019 -0.6786
10534TIP3   OH253016   0.335   4.631  14.567 -0.5702  0.4685  0.1686
10534TIP3    H153017   0.382   4.713  14.582 -0.2745  0.1517  0.9664
10534TIP3    H253018   0.333   4.587  14.652 -0.0389 -0.7235 -0.4063
10535TIP3   OH253019   3.868   2.704   4.791  0.4514  0.1249 -0.0576
10535TIP3    H153020   3.939   2.767   4.779  1.8887 -1.2469  0.8499
10535TIP3    H253021   3.857   2.698   4.886  0.8386 -1.4844 -0.0832
10536TIP3   OH253022   5.321   1.081  15.023 -0.1943  0.5165 -0.6532
10536TIP3    H153023   5.249   1.134  15.059 -0.4866  0.1807 -0.7397
10536TIP3    H253024   5.361   1.137  14.957  0.4307  1.1999  0.2681
10537TIP3   OH253025   2.530   0.852   0.937 -0.3957  0.7720 -0.3445
10537TIP3    H153026   2.623   0.872   0.943 -0.5543  1.2363  1.2041
10537TIP3    H253027   2.517   0.817   0.849  1.2776  0.4703 -0.4851
10538TIP3   OH253028   1.970   2.328  15.750  0.7841  0.8120 -0.0380
10538TIP3    H153029   1.876   2.333  15.771  0.3068 -0.7449 -1.6570
10538TIP3    H253030   1.998   2.243  15.783  1.4009  0.8517 -0.4409
10539TIP3   OH253031   5.820   1.520   1.415  0.4398  0.3573  0.4781
10539TIP3    H153032   5.847   1.429   1.405  0.6690  0.5701 -1.2697
10539TIP3    H253033   5.897   1.571   1.390  0.6539  1.0725  2.4749
10540TIP3   OH253034   1.050   4.484   6.336  0.3065 -0.3002 -0.4023
10540TIP3    H153035   1.115   4.551   6.319 -0.7751  1.1590  0.9994
10540TIP3    H253036   0.966   4.530   6.333 -0.3901 -1.2770  1.8797
10541TIP3   OH253037   3.621   6.579   3.723  0.4243  0.2341 -0.5469
10541TIP3    H153038   3.586   6.495   3.754 -0.4979  0.4064 -1.0810
10541TIP3    H253039   3.685   6.604   3.789 -0.2158 -0.2674  0.2884
10542TIP3   OH253040   3.463   4.075  17.020  0.7417  0.3952 -0.6553
10542TIP3    H153041   3.539   4.068  16.962 -0.1802  0.1610 -1.8815
10542TIP3    H253042   3.409   4.143  16.980  0.6146  1.0490  0.5866
10543TIP3   OH253043   2.447   0.776  16.239 -0.3384 -0.1039 -0.2050
10543TIP3    H153044   2.447   0.774  16.335  1.2869  0.3879 -0.1732
10543TIP3    H253045   2.521   0.832  16.216  1.3967 -2.8319 -1.7822
10544TIP3   OH253046   2.847   0.668  14.124 -0.1027 -0.4673  0.5659
10544TIP3    H153047   2.764   0.685  14.169 -0.8791 -1.0877 -0.5897
10544TIP3    H253048   2.851   0.573  14.117  0.9919 -0.4730  1.1109
10545TIP3   OH253049   6.723   5.013  12.113  0.9809  0.4114 -0.1493
10545TIP3    H153050   6.677   4.934  12.084 -0.9463  0.8934  1.4162
10545TIP3    H253051   6.794   4.980  12.169 -0.0488 -0.2324  0.8157
10546TIP3   OH253052   3.106   5.042  16.091 -0.8707  0.0628  0.6443
10546TIP3    H153053   3.031   5.086  16.052 -0.3079 -0.1692 -0.7584
10546TIP3    H253054   3.179   5.062  16.033  0.0831 -0.0446  1.7600
10547TIP3   OH253055   3.600   2.134  13.829  0.1841 -0.6923 -0.0493
10547TIP3    H153056   3.592   2.124  13.924  1.4312 -2.6563 -0.0959
10547TIP3    H253057   3.631   2.224  13.817 -1.8833  0.2703  1.2320
10548TIP3   OH253058   0.335   1.167   5.415  0.3140  0.2315 -0.5259
10548TIP3    H153059   0.310   1.127   5.332 -0.6242 -1.4882  0.5243
10548TIP3    H253060   0.377   1.096   5.464  1.7424  1.4726  0.1076
10549TIP3   OH253061   3.968   4.329   0.729  0.1945  0.2217  0.1162
10549TIP3    H153062   3.876   4.331   0.705  0.3678  1.7759 -0.5612
10549TIP3    H253063   3.976   4.389   0.803  0.6957  0.2582  0.0391
10550TIP3   OH253064   0.695   4.874   1.190  0.6032 -0.2839 -0.2074
10550TIP3    H153065   0.756   4.858   1.118 -0.1840  0.6349 -1.1084
10550TIP3    H253066   0.620   4.917   1.148  0.9088  2.0003  1.4266
10551TIP3   OH253067   0.641   5.375   2.581  0.1389 -0.4054 -0.1376
10551TIP3    H153068   0.736   5.367   2.590  0.2564  0.4726 -0.5596
10551TIP3    H253069   0.625   5.469   2.571 -0.7793 -0.5400 -0.0428
10552TIP3   OH253070   2.191   5.181  14.238 -0.4904  0.3100  0.1283
10552TIP3    H153071   2.219   5.131  14.162 -0.9276  0.9028 -0.4398
10552TIP3    H253072   2.123   5.239  14.205 -1.7031 -0.3962  1.2569
10553TIP3   OH253073   1.455   0.408   1.153  0.2932 -0.3778  0.5909
10553TIP3    H153074   1.459   0.316   1.127 -0.0036 -0.1696 -0.2040
10553TIP3    H253075   1.545   0.439   1.150  0.4797 -0.7895  1.4472
10554TIP3   OH253076   4.432   6.287   5.128  0.4235  0.8649 -0.2227
10554TIP3    H153077   4.491   6.287   5.202 -0.6969  1.2847  0.7012
10554TIP3    H253078   4.480   6.241   5.058  1.7582  1.0986  0.5232
10555TIP3   OH253079   2.209   2.804  12.591 -0.0691  0.6567 -0.2840
10555TIP3    H153080   2.227   2.897  12.577  1.5315  0.3017 -0.8814
10555TIP3    H253081   2.246   2.761  12.513 -1.6146 -0.4103 -0.4649
10556TIP3   OH253082   5.000   4.099   5.611  0.1970  0.1555 -0.0884
10556TIP3    H153083   5.087   4.138   5.605 -0.9840  2.9454 -0.9123
10556TIP3    H253084   4.981   4.094   5.704 -0.2548  3.4601  0.1151
10557TIP3   OH253085   5.013   0.267   0.508 -0.1351 -0.2197  0.5276
10557TIP3    H153086   4.968   0.190   0.544 -1.7585  0.1805 -0.5526
10557TIP3    H253087   5.040   0.317   0.585 -1.0078 -0.7870  1.2297
10558TIP3   OH253088   0.290   0.260   0.790  0.0823 -0.1901  0.4727
10558TIP3    H153089   0.251   0.253   0.877  0.6214  0.8217  0.8142
10558TIP3    H253090   0.261   0.181   0.744 -1.3100 -0.0799  1.1231
10559TIP3   OH253091   6.604   5.469  15.376 -0.0733 -0.4650  0.4536
10559TIP3    H153092   6.678   5.528  15.387 -1.1850  1.0439  0.0870
10559TIP3    H253093   6.536   5.504  15.433 -1.1478 -0.7018 -0.6453
10560TIP3   OH253094   5.845   3.788   1.070 -0.4271  0.4630  0.2410
10560TIP3    H153095   5.865   3.836   1.150 -1.3341 -2.2286  2.2658
10560TIP3    H253096   5.930   3.766   1.033  0.0121  1.7472  0.4245
10561TIP3   OH253097   1.771   0.271  11.827 -0.0435 -0.1138 -0.3308
10561TIP3    H153098   1.727   0.189  11.806 -0.3602  0.2307 -1.0252
10561TIP3    H253099   1.766   0.277  11.922 -0.5842 -0.5872 -0.3239
10562TIP3   OH253100   1.834   1.709   6.101  0.0192  0.4231  0.2059
10562TIP3    H153101   1.829   1.624   6.144 -0.4967  0.3472  0.0077
10562TIP3    H253102   1.927   1.722   6.083  0.4722  1.1068  2.6341
10563TIP3   OH253103   2.608   5.874   0.194 -0.1886 -0.4332 -0.1623
10563TIP3    H153104   2.677   5.865   0.127  0.7825  0.5273  0.6676
10563TIP3    H253105   2.642   5.827   0.270 -0.3320  0.2771  0.3443
10564TIP3   OH253106   5.351   2.444  12.951 -0.0794  0.4236 -0.2452
10564TIP3    H153107   5.422   2.386  12.924  0.0444  0.3450  0.2509
10564TIP3    H253108   5.395   2.516  12.997 -0.0989  1.5957 -1.9579
10565TIP3   OH253109   3.032   0.704  14.683 -0.1794  0.3149 -0.0315
10565TIP3    H153110   2.970   0.776  14.672  0.5343  1.1812  1.2584
10565TIP3    H253111   2.985   0.626  14.651 -2.0821  0.8663  1.1964
10566TIP3   OH253112   2.654   5.453   2.581 -0.6737 -0.0557 -0.3759
10566TIP3    H153113   2.631   5.495   2.498 -0.7688 -1.7069 -1.2125
10566TIP3    H253114   2.728   5.396   2.560  1.5569  1.9525  1.3876
10567TIP3   OH253115   0.909   0.523   1.806  0.0239  0.2665 -0.3572
10567TIP3    H153116   0.888   0.616   1.801  2.4559  0.8253 -2.1593
10567TIP3    H253117   0.908   0.494   1.714 -0.4511 -1.4463  0.1522
10568TIP3   OH253118   5.739   1.697  14.300  0.6068  0.1297 -0.1611
10568TIP3    H153119   5.688   1.673  14.223 -0.5812 -1.9889  1.1810
10568TIP3    H253120   5.691   1.770  14.340 -0.6309 -0.9215  0.3206
10569TIP3   OH253121   2.540   3.287  17.006  0.4264  0.5267  0.1851
10569TIP3    H153122   2.615   3.266  17.062  0.1857 -0.0070  0.3115
10569TIP3    H253123   2.580   3.319  16.925  0.7797  2.6271  1.1215
10570TIP3   OH253124   6.064   1.557  11.283  0.1314  0.3047 -0.2435
10570TIP3    H153125   6.153   1.593  11.287  0.0616  0.5354 -0.6455
10570TIP3    H253126   6.073   1.479  11.228 -0.0228  0.6906 -0.8335
10571TIP3   OH253127   1.377   5.113   1.406  0.5428 -0.1961 -0.2541
10571TIP3    H153128   1.370   5.017   1.402 -1.6447 -0.0548 -2.4696
10571TIP3    H253129   1.331   5.143   1.328 -0.0145  2.7400  1.0903
10572TIP3   OH253130   2.141   6.167   0.600 -0.2989  0.6573  0.5524
10572TIP3    H153131   2.233   6.141   0.610 -0.3384 -1.6071 -2.9630
10572TIP3    H253132   2.145   6.251   0.555  0.1579 -0.0259 -0.7487
10573TIP3   OH253133   2.308   2.762  11.294  0.3519 -0.0571  0.2053
10573TIP3    H153134   2.328   2.848  11.330  0.1201  0.8050 -1.5806
10573TIP3    H253135   2.221   2.741  11.328 -1.0140  1.9067 -1.7099
10574TIP3   OH253136   4.188   3.706  11.260  0.0587 -0.1647 -0.5481
10574TIP3    H153137   4.262   3.650  11.284  1.4171  1.6354 -0.3060
10574TIP3    H253138   4.131   3.703  11.336 -1.1066 -2.9595 -1.3855
10575TIP3   OH253139   0.224   4.690   4.875 -0.3694 -0.4391 -0.5338
10575TIP3    H153140   0.309   4.675   4.835 -0.6375  0.0392 -1.2961
10575TIP3    H253141   0.206   4.783   4.860 -1.3508 -0.6908 -1.0134
10576TIP3   OH253142   0.593   4.092  15.350  0.7197 -0.0786  0.3614
10576TIP3    H153143   0.563   4.107  15.260 -0.9100 -2.1458  0.4848
10576TIP3    H253144   0.687   4.077  15.341  1.1124  2.4969 -0.5953
10577TIP3   OH253145   5.176   5.325   4.128 -0.1392 -0.1730  0.0522
10577TIP3    H153146   5.087   5.360   4.121 -0.1315  0.2669  1.6860
10577TIP3    H253147   5.169   5.252   4.189  0.7701  0.5444  1.0587
10578TIP3   OH253148   2.173   3.694  16.346 -0.2688  0.4989 -0.4803
10578TIP3    H153149   2.174   3.635  16.271  2.2911 -0.2981  0.1007
10578TIP3    H253150   2.080   3.705  16.366 -0.9126 -1.7680 -1.8232
10579TIP3   OH253151   5.916   5.542   5.997 -0.1581 -0.0754  0.9667
10579TIP3    H153152   5.917   5.523   6.091  0.1899 -1.5984  0.6825
10579TIP3    H253153   5.897   5.457   5.956 -1.1994  0.7492 -0.3061
10580TIP3   OH253154   2.868   5.462   1.341  0.6418 -0.4580  0.3234
10580TIP3    H153155   2.871   5.480   1.435 -2.5010  0.3763  0.3497
10580TIP3    H253156   2.882   5.548   1.301  0.5303 -0.5686  0.0495
10581TIP3   OH253157   1.293   1.926  11.664 -0.0442  0.1546  0.0113
10581TIP3    H153158   1.205   1.916  11.628  0.1335 -0.5246 -0.2488
10581TIP3    H253159   1.342   1.852  11.629  0.4705  0.1846  0.6413
10582TIP3   OH253160   5.177   4.834  11.473  0.1723  0.1315 -0.2245
10582TIP3    H153161   5.167   4.857  11.381  0.1565  0.2190 -0.2006
10582TIP3    H253162   5.092   4.797  11.498  0.1094  0.2993 -0.1891
10583TIP3   OH253163   0.195   6.539  12.044  0.3595  0.6512  0.2402
10583TIP3    H153164   0.224   6.459  12.088 -0.7500  0.4162  0.5642
10583TIP3    H253165   0.274   6.571  12.000  0.5528 -1.2869 -0.9477
10584TIP3   OH253166   5.186   1.524   3.122  0.1086 -0.1738 -0.6374
10584TIP3    H153167   5.142   1.528   3.207 -1.3977  3.7564 -1.3788
10584TIP3    H253168   5.162   1.438   3.087 -1.8016 -0.6725  1.6027
10585TIP3   OH253169   3.940   5.526   0.361  0.0859 -0.1654 -0.0825
10585TIP3    H153170   4.027   5.488   0.372  0.5489  0.9949  0.4761
10585TIP3    H253171   3.917   5.507   0.270  1.2892  0.2344 -0.4902
10586TIP3   OH253172   3.737   3.115  16.447  0.1369  0.1582 -0.5138
10586TIP3    H153173   3.716   3.034  16.495  0.3094 -0.2196 -1.0729
10586TIP3    H253174   3.658   3.169  16.456  0.4449  0.4220  0.8531
10587TIP3   OH253175   1.942   6.158   3.744 -0.2806  0.0412 -0.4582
10587TIP3    H153176   1.962   6.172   3.652  1.2578 -0.0834 -0.1640
10587TIP3    H253177   1.933   6.246   3.781  3.9588  0.3907  0.2397
10588TIP3   OH253178   5.401   6.704  14.056  0.1553  0.4987 -0.1766
10588TIP3    H153179   5.367   6.752  13.980 -1.2337  0.5015  0.4138
10588TIP3    H253180   5.419   6.773  14.121 -1.4385  0.3245  0.5171
10589TIP3   OH253181   1.877   4.700   1.203 -0.4408 -0.0080 -0.1159
10589TIP3    H153182   1.821   4.733   1.273  0.2356  1.3792 -0.1958
10589TIP3    H253183   1.965   4.729   1.226  0.0373 -0.9162 -0.7318
10590TIP3   OH253184   2.052   2.043  11.750  0.7270  0.2002  0.0087
10590TIP3    H153185   2.043   1.963  11.802  0.4270  1.0906  1.3504
10590TIP3    H253186   1.984   2.034  11.682 -1.1664  0.5152  1.7679
10591TIP3   OH253187   2.976   0.356  14.212 -0.7412  0.4541  0.1463
10591TIP3    H153188   3.065   0.380  14.240 -0.2612 -2.3581  1.4205
10591TIP3    H253189   2.983   0.347  14.117 -0.1576  2.0331  0.0184
10592TIP3   OH253190   1.198   2.453  12.409 -0.2429 -0.1896  0.0857
10592TIP3    H153191   1.229   2.518  12.346 -0.9186  0.1300  0.0737
10592TIP3    H253192   1.121   2.493  12.450  0.6162 -0.0748  1.6789
10593TIP3   OH253193   5.681   4.272   2.213 -0.3822 -0.3887  0.2200
10593TIP3    H153194   5.685   4.274   2.309 -1.3629  0.0481  0.2615
10593TIP3    H253195   5.763   4.229   2.187 -0.4883 -1.2899  1.2850
10594TIP3   OH253196   2.719   6.298  11.870  0.0711  0.4602 -0.1722
10594TIP3    H153197   2.644   6.354  11.891  1.1696  1.8815  0.1165
10594TIP3    H253198   2.750   6.331  11.785 -0.1954 -0.7651 -0.7725
10595TIP3   OH253199   6.571   2.035   3.429  0.8240  0.6354 -0.2922
10595TIP3    H153200   6.519   2.107   3.394 -2.6602 -1.3591  0.3302
10595TIP3    H253201   6.591   2.062   3.518  0.8548  1.4096 -0.5178
10596TIP3   OH253202   0.385   5.653  14.924  0.5331 -0.0774 -0.1381
10596TIP3    H153203   0.359   5.736  14.963  1.4387  0.7063 -1.1375
10596TIP3    H253204   0.310   5.628  14.869 -0.3260 -0.6765  1.2603
10597TIP3   OH253205   1.583   2.439   4.406 -0.0628  0.1003 -0.5007
10597TIP3    H153206   1.649   2.465   4.342  0.3364 -0.3720 -0.2900
10597TIP3    H253207   1.628   2.441   4.490 -0.1617 -0.7268 -0.4122
10598TIP3   OH253208   3.796   1.858   4.126 -0.2360  0.0975 -0.0827
10598TIP3    H153209   3.779   1.816   4.041  0.1173 -1.0433  0.3980
10598TIP3    H253210   3.726   1.827   4.183 -0.3762  0.7280  0.1027
10599TIP3   OH253211   1.261   1.455   6.136  0.6654 -0.0347 -0.7631
10599TIP3    H153212   1.283   1.430   6.225 -0.9955 -2.1197 -0.8523
10599TIP3    H253213   1.286   1.547   6.130 -0.2358  0.5177  2.2265
10600TIP3   OH253214   2.772   2.501   3.916  0.3073 -0.1369 -0.1515
10600TIP3    H153215   2.685   2.463   3.902 -0.0762  0.9424 -0.8515
10600TIP3    H253216   2.826   2.464   3.846 -0.0421  0.5029 -0.7765
10601TIP3   OH253217   2.031   1.600   1.495 -0.1060 -0.1302 -0.2798
10601TIP3    H153218   2.016   1.590   1.401  2.8733 -2.0548 -0.6828
10601TIP3    H253219   2.048   1.693   1.507  1.1483 -0.0866 -2.0074
10602TIP3   OH253220   0.920   0.079   3.679 -0.6646 -0.2423 -0.4947
10602TIP3    H153221   0.996   0.070   3.737  0.4820 -1.0626 -2.0687
10602TIP3    H253222   0.906  -0.009   3.644 -1.1844  0.2683 -1.6133
10603TIP3   OH253223   4.007   1.979  13.594 -0.2759 -0.4389  0.1479
10603TIP3    H153224   3.983   1.986  13.686  1.5467  3.4120  0.5357
10603TIP3    H253225   4.103   1.979  13.594 -0.2356 -0.8131 -1.7603
10604TIP3   OH253226   5.363   3.080  17.184  0.2400  0.0100  0.0222
10604TIP3    H153227   5.369   2.985  17.171  1.4758 -0.3463  2.5561
10604TIP3    H253228   5.281   3.092  17.231  1.2208 -0.1684  1.8748
10605TIP3   OH253229   0.400   3.408   0.450 -0.3195  1.1274  0.6711
10605TIP3    H153230   0.310   3.412   0.483 -0.6335 -0.3068  0.0844
10605TIP3    H253231   0.404   3.324   0.403  1.2817  1.2492  0.5498
10606TIP3   OH253232   2.852   1.491   0.671  0.0369  0.4596  0.5444
10606TIP3    H153233   2.910   1.551   0.623  1.4101 -0.3656  1.1295
10606TIP3    H253234   2.858   1.520   0.762 -2.6825  2.1246  0.3294
10607TIP3   OH253235   3.168   1.320   1.667 -0.4235  0.5580  0.5357
10607TIP3    H153236   3.126   1.397   1.706  0.0241  0.6859  0.7703
10607TIP3    H253237   3.108   1.293   1.597 -0.7240  0.9474  0.6396
10608TIP3   OH253238   5.751   2.531   5.463  0.3040  0.7688 -0.2735
10608TIP3    H153239   5.830   2.526   5.517  0.6038  0.7942 -0.7050
10608TIP3    H253240   5.750   2.621   5.429  2.0722 -0.1514 -3.1745
10609TIP3   OH253241   3.809   6.323  12.391 -0.7319 -0.3519  0.3181
10609TIP3    H153242   3.782   6.253  12.452  0.0960 -1.2912 -0.3658
10609TIP3    H253243   3.764   6.301  12.309 -0.0408 -0.3913 -0.0542
10610TIP3   OH253244   1.729   1.942   6.162  0.2146  0.5468 -0.1244
10610TIP3    H153245   1.635   1.932   6.147  0.2818  0.9472 -0.8707
10610TIP3    H253246   1.766   1.860   6.131  0.1441  0.5483 -0.2163
10611TIP3   OH253247   2.820   1.489  15.767 -0.1044  0.5311 -0.1793
10611TIP3    H153248   2.842   1.416  15.709  1.2430  0.3842  0.4564
10611TIP3    H253249   2.887   1.555  15.748 -1.1735  1.5191 -0.5861
10612TIP3   OH253250   0.724   4.356  15.456 -0.2852 -0.0868 -0.6601
10612TIP3    H153251   0.773   4.283  15.420 -1.1660 -1.3636  0.6333
10612TIP3    H253252   0.634   4.324  15.464 -0.9437  1.5322 -1.1226
10613TIP3   OH253253   5.220   3.045  11.173 -0.3698 -0.8680 -0.3411
10613TIP3    H153254   5.254   3.110  11.234 -0.2793 -1.8875  0.7284
10613TIP3    H253255   5.185   3.096  11.100 -0.9226  0.4109  0.7832
10614TIP3   OH253256   3.561   0.943  16.642 -0.6674  0.1688  0.8589
10614TIP3    H153257   3.503   0.882  16.688  0.8865 -2.1336 -0.0602
10614TIP3    H253258   3.642   0.941  16.692 -1.2583  3.4215  2.1721
10615TIP3   OH253259   6.257   3.436  14.244 -0.2816  0.3421  0.0562
10615TIP3    H153260   6.212   3.393  14.316  0.1379 -0.0652  0.0784
10615TIP3    H253261   6.187   3.480  14.195 -0.4964  1.2224  1.1072
10616TIP3   OH253262   5.923   4.984   4.764 -0.3953  0.0360  0.4163
10616TIP3    H153263   5.927   5.076   4.791 -0.5152  0.3376 -0.5763
10616TIP3    H253264   5.864   4.983   4.689 -2.3716 -1.2361  1.8932
10617TIP3   OH253265   4.358   3.753  15.639  0.0141 -0.5488  0.0990
10617TIP3    H153266   4.283   3.777  15.585 -0.7103 -1.8261  0.5022
10617TIP3    H253267   4.427   3.732  15.577 -0.5318 -1.1228 -0.3279
10618TIP3   OH253268   0.603   0.028   4.966  0.0923 -0.5456  0.0204
10618TIP3    H153269   0.661  -0.029   4.916 -0.8551 -0.0549 -1.7383
10618TIP3    H253270   0.577   0.097   4.904 -1.8198 -0.3879  0.9047
10619TIP3   OH253271   6.400   5.297  14.133 -0.6949 -0.6499  0.0581
10619TIP3    H153272   6.448   5.363  14.183 -2.6671  0.8020  0.1066
10619TIP3    H253273   6.339   5.346  14.079 -1.7518 -2.4060 -0.4332
10620TIP3   OH253274   2.398   5.890  11.851  0.4712  0.0226  0.4716
10620TIP3    H153275   2.460   5.937  11.795  0.8854  0.0676  0.9657
10620TIP3    H253276   2.389   5.804  11.810 -0.3107  0.5141 -0.4567
10621TIP3   OH253277   0.517   3.162   3.648 -0.0950  1.0930  0.4973
10621TIP3    H153278   0.582   3.111   3.598 -0.9778 -1.3453  1.6443
10621TIP3    H253279   0.560   3.179   3.732 -1.5346 -2.6967  2.2556
10622TIP3   OH253280   0.972   1.121  16.602  0.5396  0.0962  0.4595
10622TIP3    H153281   1.059   1.156  16.620  1.7561 -1.0521 -2.5661
10622TIP3    H253282   0.988   1.036  16.559 -2.0779 -0.4451  0.3667
10623TIP3   OH253283   4.821   1.737  16.327  0.3098 -0.3842  0.4022
10623TIP3    H153284   4.887   1.737  16.396  0.2469  0.3551  0.4659
10623TIP3    H253285   4.826   1.824  16.288 -0.8545 -0.1983  0.6281
10624TIP3   OH253286   2.336   6.665   3.267  0.5260  1.0050  0.7209
10624TIP3    H153287   2.400   6.595   3.280  0.8807  1.1469 -0.2088
10624TIP3    H253288   2.389   6.741   3.242 -0.1083  0.6142 -2.0683
10625TIP3   OH253289   0.677   6.758   2.905  0.2522  0.4526  0.1651
10625TIP3    H153290   0.725   6.680   2.878  0.5304  0.5514  0.3803
10625TIP3    H253291   0.689   6.820   2.833  1.0458  0.7396  0.5461
10626TIP3   OH253292   4.055   1.625   1.058  0.2667 -0.5269  0.1368
10626TIP3    H153293   4.073   1.541   1.100  1.0490  0.0921  1.0922
10626TIP3    H253294   4.067   1.689   1.128  1.2830  0.5266 -0.9580
10627TIP3   OH253295   4.175   0.539   0.545 -0.6420  0.4382 -0.1864
10627TIP3    H153296   4.212   0.524   0.458 -0.6731  1.0571 -0.3086
10627TIP3    H253297   4.090   0.581   0.528 -0.2767  1.3491  0.1572
10628TIP3   OH253298   4.469   0.130  14.156  0.1049  0.1861 -0.0921
10628TIP3    H153299   4.549   0.138  14.104  0.5067  0.7838  0.5928
10628TIP3    H253300   4.459   0.216  14.197 -1.7460  0.6247 -1.3720
10629TIP3   OH253301   3.304   0.223  13.828 -0.5696  0.6466  0.0703
10629TIP3    H153302   3.362   0.295  13.802 -0.3819  0.2368 -0.6465
10629TIP3    H253303   3.276   0.247  13.917 -0.2725  1.4551 -0.0428
10630TIP3   OH253304   3.067   3.796   1.931  0.4724 -0.2057  0.9394
10630TIP3    H153305   3.114   3.728   1.882 -1.6614 -0.7042 -0.5875
10630TIP3    H253306   2.981   3.758   1.948 -0.7615  2.0116  0.1267
10631TIP3   OH253307   5.984   4.150  15.559 -0.1834 -0.3004 -0.1422
10631TIP3    H153308   5.906   4.095  15.568 -0.3333  0.1301  1.4164
10631TIP3    H253309   6.008   4.142  15.466 -0.1027 -3.1064  0.0319
10632TIP3   OH253310   4.824   2.230  16.094 -0.0470  0.5177 -0.0146
10632TIP3    H153311   4.914   2.213  16.065 -0.1193  1.0069 -0.5575
10632TIP3    H253312   4.801   2.154  16.147 -0.1426 -0.8101 -1.8394
10633TIP3   OH253313   3.935   1.104   4.295  0.3765  0.2370  0.5483
10633TIP3    H153314   3.913   1.197   4.291  1.7082  0.5213 -2.0809
10633TIP3    H253315   3.872   1.061   4.237  1.3894 -0.1158 -0.3164
10634TIP3   OH253316   4.860   0.122  13.008  0.0574 -0.5338  0.7454
10634TIP3    H153317   4.831   0.131  13.098  2.0211  2.0926  1.2306
10634TIP3    H253318   4.931   0.186  12.999  0.2114 -0.9968 -2.5495
10635TIP3   OH253319   5.313   2.703   5.713  0.1623  0.6002 -0.3818
10635TIP3    H153320   5.384   2.697   5.777 -0.4509  2.6903  0.6122
10635TIP3    H253321   5.325   2.788   5.672 -1.4332  0.7745 -0.5600
10636TIP3   OH253322   3.798   5.601  11.794 -0.3488  0.2584  0.4543
10636TIP3    H153323   3.791   5.613  11.699 -1.2343  0.6647  0.5595
10636TIP3    H253324   3.840   5.681  11.825 -0.1781  0.1818  0.4228
10637TIP3   OH253325   5.289   3.716  12.279  0.4164  0.1452  0.3138
10637TIP3    H153326   5.200   3.701  12.248 -0.2398  0.7534  1.8151
10637TIP3    H253327   5.310   3.640  12.332  1.0641 -0.3115 -0.5741
10638TIP3   OH253328   1.235   4.935  11.591 -0.6560 -0.5300 -0.5825
10638TIP3    H153329   1.278   4.925  11.505  0.4164  1.2255 -0.2908
10638TIP3    H253330   1.290   4.883  11.650 -0.1162  0.0420 -0.5759
10639TIP3   OH253331   5.633   5.294   3.387 -0.0353  0.1534  0.6882
10639TIP3    H153332   5.564   5.359   3.373 -1.6104 -1.0472  2.4138
10639TIP3    H253333   5.629   5.238   3.309  0.2060  1.1420 -0.0419
10640TIP3   OH253334   1.429   1.538   5.304  0.4039  0.0032  0.6504
10640TIP3    H153335   1.390   1.543   5.391  0.5041 -0.2266  0.7077
10640TIP3    H253336   1.396   1.616   5.259  1.3011  0.7725  1.2760
10641TIP3   OH253337   1.298   6.675   2.999 -0.6086  0.4964 -0.3013
10641TIP3    H153338   1.226   6.710   2.946 -0.3841 -0.7154 -1.4438
10641TIP3    H253339   1.289   6.580   2.991  1.6865  0.3192 -1.2308
10642TIP3   OH253340   0.256   3.541   3.177  0.4336 -0.3851 -0.2932
10642TIP3    H153341   0.266   3.452   3.143 -0.4733 -0.4031 -0.5418
10642TIP3    H253342   0.225   3.529   3.266  0.1740 -0.3161 -0.3744
10643TIP3   OH253343   3.023   1.977  13.138 -0.1314 -0.1652 -0.2723
10643TIP3    H153344   3.031   2.056  13.192 -0.4446  1.0682 -1.9561
10643TIP3    H253345   2.939   1.987  13.094 -0.2004 -1.4878 -0.4752
10644TIP3   OH253346   4.021   3.854  14.051  0.4674 -0.3151 -0.4204
10644TIP3    H153347   3.995   3.908  13.977 -0.0066 -0.0794 -0.0873
10644TIP3    H253348   3.992   3.766  14.029  0.6534 -0.3136 -0.6737
10645TIP3   OH253349   5.001   5.139  11.947  0.0948 -0.2214  0.3475
10645TIP3    H153350   5.088   5.113  11.977  0.5365  2.1370  1.3573
10645TIP3    H253351   4.975   5.070  11.886  3.1214 -0.4901 -0.8193
10646TIP3   OH253352   6.126   1.602  16.241  0.4085 -0.0901  0.2507
10646TIP3    H153353   6.092   1.526  16.193  1.6780  0.2164 -1.2176
10646TIP3    H253354   6.056   1.667  16.237 -0.3870 -0.8867  0.8430
10647TIP3   OH253355   2.126   6.563  14.358  0.1587  0.4225 -0.3512
10647TIP3    H153356   2.192   6.549  14.290 -0.8374 -0.0103 -1.2628
10647TIP3    H253357   2.053   6.606  14.312  0.1554  1.7371  0.8153
10648TIP3   OH253358   6.178   0.728  13.463  0.0008 -0.1398  0.2778
10648TIP3    H153359   6.136   0.803  13.422 -0.8529 -0.7727 -0.0242
10648TIP3    H253360   6.141   0.652  13.418  1.2842 -0.7276  0.1789
10649TIP3   OH253361   2.580   2.695   1.428 -0.1900 -0.1593  0.5675
10649TIP3    H153362   2.495   2.670   1.464 -1.2739  2.3673 -0.0148
10649TIP3    H253363   2.603   2.624   1.369 -1.2570 -1.5063  1.7116
10650TIP3   OH253364   1.428   3.569  13.290  0.9457  0.1186  0.1405
10650TIP3    H153365   1.501   3.618  13.326  1.6331  0.2379 -1.3473
10650TIP3    H253366   1.409   3.611  13.206 -3.5685  2.7902  2.1324
10651TIP3   OH253367   4.616   4.951   3.621  0.0736 -0.2004  0.2753
10651TIP3    H153368   4.688   4.892   3.644  1.2420  2.1425  3.3227
10651TIP3    H253369   4.561   4.954   3.699 -0.1098  2.3834  0.1524
10652TIP3   OH253370   5.067   6.648  15.108 -0.6344  0.0925  0.0478
10652TIP3    H153371   5.032   6.710  15.045  1.9668 -0.4725 -2.1290
10652TIP3    H253372   5.065   6.564  15.062  3.4323  0.0282 -0.3467
10653TIP3   OH253373   6.097   3.449   2.786 -0.8590  0.7052 -0.0628
10653TIP3    H153374   6.156   3.502   2.732  2.2270 -2.5479 -0.2303
10653TIP3    H253375   6.134   3.454   2.874 -0.2165 -1.4120 -0.1708
10654TIP3   OH253376   5.142   2.002   0.315 -0.3358 -0.2468 -0.0426
10654TIP3    H153377   5.163   1.928   0.372 -0.0066  0.9112  1.4191
10654TIP3    H253378   5.136   1.965   0.227  2.0711 -1.6462  0.3024
10655TIP3   OH253379   0.140   4.117   4.043  0.3727  0.0285 -0.3532
10655TIP3    H153380   0.201   4.098   4.115 -0.1893  0.0741  0.1369
10655TIP3    H253381   0.180   4.075   3.967  1.9097  1.4804 -0.4229
10656TIP3   OH253382   1.131   0.802   0.200  0.0345  0.6889 -0.1419
10656TIP3    H153383   1.072   0.727   0.210  1.5088 -0.7179 -1.4679
10656TIP3    H253384   1.136   0.816   0.105  1.3272  1.2043 -0.0145
10657TIP3   OH253385   3.306   0.555  15.013  0.0769  0.1277 -0.5942
10657TIP3    H153386   3.298   0.475  15.066  0.0218 -1.0596 -2.3125
10657TIP3    H253387   3.332   0.622  15.075 -1.0827 -0.9482  1.1353
10658TIP3   OH253388   6.229   4.696   0.188  0.0705 -0.0832 -0.2529
10658TIP3    H153389   6.204   4.677   0.098  1.3217  0.0244 -0.6336
10658TIP3    H253390   6.147   4.687   0.237 -0.3750 -1.5041 -1.1733
10659TIP3   OH253391   5.692   3.034  15.008 -1.1796  0.2936 -0.6335
10659TIP3    H153392   5.694   2.999  14.919  0.4934 -1.6357  0.0811
10659TIP3    H253393   5.617   2.989  15.049 -0.5127 -0.6683 -0.4250
10660TIP3   OH253394   4.652   4.197  16.052  0.7294 -0.3115 -0.1160
10660TIP3    H153395   4.620   4.236  15.971  0.3666 -1.5423 -0.5892
10660TIP3    H253396   4.586   4.131  16.074  1.6651 -1.1416  0.2724
10661TIP3   OH253397   1.468   4.912   4.678 -0.4501  0.1706  0.2933
10661TIP3    H153398   1.498   4.949   4.761 -0.6620  3.0079 -0.7675
10661TIP3    H253399   1.533   4.940   4.614 -1.0076 -0.7657 -0.7264
10662TIP3   OH253400   5.576   3.102   1.436  0.4844 -0.3022 -0.5739
10662TIP3    H153401   5.558   3.195   1.432  2.5281  0.1133 -1.4457
10662TIP3    H253402   5.640   3.087   1.366  2.8934 -1.6503  1.7593
10663TIP3   OH253403   6.314   5.206   0.159 -0.4132 -0.1475  0.1518
10663TIP3    H153404   6.380   5.154   0.205 -0.8287 -0.2311  0.6700
10663TIP3    H253405   6.236   5.150   0.158 -0.8540  0.4340  0.6827
10664TIP3   OH253406   4.618   6.258  14.896 -0.0351  0.3000 -0.4049
10664TIP3    H153407   4.527   6.259  14.926 -0.1253  0.5813 -0.6822
10664TIP3    H253408   4.653   6.175  14.928 -0.0445  0.7003  0.6872
10665TIP3   OH253409   0.123   5.904   5.501 -0.2867  0.1004 -0.1447
10665TIP3    H153410   0.214   5.898   5.531 -0.8125 -0.0510  1.5661
10665TIP3    H253411   0.087   5.816   5.518 -1.2535  0.7038  1.0875
10666TIP3   OH253412   0.915   1.421   3.250 -0.1031 -0.5714 -0.1886
10666TIP3    H153413   0.928   1.499   3.197  0.3262  1.2819  2.4427
10666TIP3    H253414   1.000   1.405   3.291 -0.3393 -2.1084 -0.2174
10667TIP3   OH253415   3.334   5.490  16.506  0.3127 -0.5240 -0.3034
10667TIP3    H153416   3.383   5.536  16.574 -0.6170  0.7465 -0.4549
10667TIP3    H253417   3.336   5.549  16.430  2.0787 -2.2778 -1.7515
10668TIP3   OH253418   6.239   6.686  13.934  0.5462 -0.2766  0.3956
10668TIP3    H153419   6.185   6.755  13.895  0.3522 -1.3493 -1.2909
10668TIP3    H253420   6.177   6.629  13.979  0.5120 -0.3555  0.2473
10669TIP3   OH253421   5.386   3.392  15.210 -0.6571 -0.0827 -0.1293
10669TIP3    H153422   5.370   3.378  15.116  1.4402  0.6107 -0.6567
10669TIP3    H253423   5.482   3.399  15.217 -0.8402  1.5514  1.8200
10670TIP3   OH253424   3.374   5.600   2.665  0.3251  0.2515 -0.2759
10670TIP3    H153425   3.306   5.635   2.608  0.6346  0.3935 -0.5623
10670TIP3    H253426   3.455   5.637   2.630  0.7794 -1.5212 -1.2104
10671TIP3   OH253427   0.481   5.738  13.202  0.2168 -0.0680 -0.4012
10671TIP3    H153428   0.408   5.798  13.191  0.5798  0.1995 -1.4074
10671TIP3    H253429   0.552   5.777  13.153  0.7031 -0.9080 -0.3843
10672TIP3   OH253430   0.761   0.987   1.381  0.6350 -0.2972 -1.0114
10672TIP3    H153431   0.794   1.074   1.406 -1.8415  0.2432  0.6768
10672TIP3    H253432   0.700   1.005   1.309 -0.1703 -0.5474 -0.4109
10673TIP3   OH253433   4.922   4.710  14.580 -0.3414 -0.2622  0.3916
10673TIP3    H153434   4.966   4.755  14.508  0.9910 -1.2743  0.5359
10673TIP3    H253435   4.833   4.744  14.578 -0.0719  0.4631 -1.1053
10674TIP3   OH253436   3.581   2.602  13.390 -0.2623 -0.0040 -0.2346
10674TIP3    H153437   3.550   2.587  13.301 -0.5373  0.0901 -0.1563
10674TIP3    H253438   3.636   2.681  13.384 -0.0012 -0.1966 -0.3817
10675TIP3   OH253439   5.838   6.484   0.492  0.4909 -0.0798 -0.3882
10675TIP3    H153440   5.830   6.546   0.564  0.2125  0.4403 -0.8651
10675TIP3    H253441   5.879   6.407   0.531 -2.0159 -0.8451  0.9875
10676TIP3   OH253442   1.842   6.383   2.503 -0.5391 -0.2934  0.0952
10676TIP3    H153443   1.932   6.371   2.471 -0.2982 -2.6488  1.4205
10676TIP3    H253444   1.793   6.310   2.464 -1.1127 -0.8928  1.8190
10677TIP3   OH253445   1.907   3.400  11.321 -0.1489  0.0030 -0.1974
10677TIP3    H153446   1.861   3.357  11.249  0.2152 -1.2365  0.2734
10677TIP3    H253447   1.951   3.328  11.367  1.4344  1.0191 -0.0461
10678TIP3   OH253448   5.599   6.364   3.108  0.5200 -0.4962 -0.2141
10678TIP3    H153449   5.673   6.419   3.134  0.6681 -1.1088  0.7477
10678TIP3    H253450   5.639   6.281   3.083  0.2363 -0.4607 -0.8019
10679TIP3   OH253451   3.177   6.316  15.039 -0.9461  0.4313  0.1711
10679TIP3    H153452   3.227   6.235  15.046 -0.6162  0.7091  1.1055
10679TIP3    H253453   3.086   6.289  15.050 -0.7862  0.2700  1.1668
10680TIP3   OH253454   6.670   6.599   1.454  0.1277  0.4321 -0.4563
10680TIP3    H153455   6.591   6.628   1.499  0.2658  1.0572 -0.6106
10680TIP3    H253456   6.733   6.670   1.468  0.6516 -0.0491 -0.3555
10681TIP3   OH253457   5.273   4.012   0.821  0.5224 -0.3452  0.0319
10681TIP3    H153458   5.309   3.971   0.900  2.8479  0.2095 -0.6468
10681TIP3    H253459   5.329   3.979   0.750 -1.2139 -0.4644 -1.3448
10682TIP3   OH253460   2.184   5.835   0.641 -0.1703 -0.2932 -0.7588
10682TIP3    H153461   2.106   5.836   0.585 -0.0574  2.9084 -1.0125
10682TIP3    H253462   2.256   5.813   0.581 -0.4297  0.2189 -1.2696
10683TIP3   OH253463   2.624   6.552   4.194 -0.2101 -0.2883  0.0314
10683TIP3    H153464   2.707   6.599   4.201 -0.3810 -0.2100  2.3633
10683TIP3    H253465   2.566   6.596   4.257 -0.8311 -2.6259  1.2146
10684TIP3   OH253466   4.225   5.817   1.594 -0.0290  0.5693 -0.0518
10684TIP3    H153467   4.252   5.787   1.681  0.1314  2.4689  0.5916
10684TIP3    H253468   4.291   5.882   1.570  0.9038 -1.0872 -2.3719
10685TIP3   OH253469   0.004   3.254  14.867 -0.3971 -0.1439 -0.5866
10685TIP3    H153470  -0.074   3.239  14.813 -2.2129  1.3381  1.4228
10685TIP3    H253471   0.007   3.179  14.926  0.6575 -0.9683 -1.6421
10686TIP3   OH253472   6.684   6.222   4.455  0.1732 -0.2336 -0.0970
10686TIP3    H153473   6.602   6.260   4.422  1.3355  1.3532 -1.3151
10686TIP3    H253474   6.679   6.235   4.550  0.0300  2.0748 -0.3578
10687TIP3   OH253475   1.414   4.531  12.852  0.1577 -0.2573 -0.3925
10687TIP3    H153476   1.481   4.492  12.907  1.7139  0.7278 -1.5191
10687TIP3    H253477   1.431   4.497  12.765 -1.8031 -1.1997 -0.4601
10688TIP3   OH253478   3.144   2.239  14.406 -0.6026 -0.6365 -0.1534
10688TIP3    H153479   3.139   2.205  14.317 -0.2881 -0.5556 -0.2031
10688TIP3    H253480   3.201   2.177  14.452 -0.1738 -0.2783 -0.1978
10689TIP3   OH253481   3.344   2.137  16.674  0.0529 -0.1773 -0.5559
10689TIP3    H153482   3.376   2.162  16.588  1.0185 -1.3114 -0.5454
10689TIP3    H253483   3.362   2.043  16.680 -1.1437 -0.3687  0.3913
10690TIP3   OH253484   3.915   0.913   2.100 -0.1951 -0.4003  0.0254
10690TIP3    H153485   3.839   0.892   2.155  1.0251 -1.2248  1.4473
10690TIP3    H253486   3.963   0.979   2.149  0.5017 -0.5793 -0.4086
10691TIP3   OH253487   3.158   3.237   2.000  0.3385 -0.2644 -0.3862
10691TIP3    H153488   3.081   3.181   2.012  0.9150 -0.9005  0.5409
10691TIP3    H253489   3.123   3.324   1.987 -0.5406 -0.2863  1.4996
10692TIP3   OH253490   1.203   0.934  12.110  0.6972 -0.2505  0.3714
10692TIP3    H153491   1.277   0.986  12.080 -0.0275  2.9208  3.4210
10692TIP3    H253492   1.126   0.978  12.073  0.1728 -1.2690  0.2050
10693TIP3   OH253493   4.231   5.375  14.856  0.5830 -0.6504 -0.0968
10693TIP3    H153494   4.159   5.429  14.823 -0.9016 -1.0369  2.2161
10693TIP3    H253495   4.188   5.313  14.915  2.6106 -2.3011 -0.2282
10694TIP3   OH253496   1.182   0.306   2.015 -0.2113 -0.5276  0.2308
10694TIP3    H153497   1.216   0.319   1.927 -1.3209 -1.7986 -0.4327
10694TIP3    H253498   1.259   0.310   2.072  0.4697  0.6588 -0.7411
10695TIP3   OH253499   3.626   4.728   5.085 -0.1925 -0.1956  0.0384
10695TIP3    H153500   3.699   4.789   5.090 -0.6483  0.3861 -0.2850
10695TIP3    H253501   3.587   4.743   4.999 -2.5129  1.6523  1.2823
10696TIP3   OH253502   1.421   0.931  15.033 -0.0184  0.1247 -0.2725
10696TIP3    H153503   1.431   0.936  15.128  0.3048  0.9968 -0.3420
10696TIP3    H253504   1.398   1.020  15.007  0.1960 -0.0371 -1.0462
10697TIP3   OH253505   3.671   2.913  11.281  0.2654  0.7223  0.0308
10697TIP3    H153506   3.611   2.985  11.266 -0.7968 -0.0576  0.3942
10697TIP3    H253507   3.671   2.900  11.376 -0.1565 -0.2443 -0.0895
10698TIP3   OH253508   6.248   5.162  14.607 -0.2763  0.3122 -0.2141
10698TIP3    H153509   6.300   5.144  14.685 -0.7478  0.6687  0.1889
10698TIP3    H253510   6.225   5.076  14.573 -2.2849  0.0950  1.5344
10699TIP3   OH253511   4.010   4.821   4.930  0.0389 -0.4358  0.0542
10699TIP3    H153512   4.040   4.906   4.963 -0.0377 -0.2826 -0.2636
10699TIP3    H253513   4.076   4.759   4.962 -0.3003 -0.3697  0.9078
10700TIP3   OH253514   3.971   6.544  14.006  0.1416  0.4523  0.2703
10700TIP3    H153515   3.951   6.637  14.000 -0.9637  0.1903 -0.6382
10700TIP3    H253516   4.066   6.539  14.017  0.3444  1.6578 -0.7563
10701TIP3   OH253517   4.933   6.687   2.788  0.2630  0.0600  0.3591
10701TIP3    H153518   4.957   6.609   2.839  0.6690 -0.5568 -0.7401
10701TIP3    H253519   4.969   6.760   2.837 -0.2192 -0.4247  1.4702
10702TIP3   OH253520   6.501   3.804   4.147  0.3024 -0.1948  0.3414
10702TIP3    H153521   6.449   3.855   4.210  1.4601  0.6531  0.6482
10702TIP3    H253522   6.582   3.854   4.138  0.6552 -0.9648 -0.8961
10703TIP3   OH253523   5.127   0.043  17.177  0.6497 -0.2699 -0.0267
10703TIP3    H153524   5.189  -0.023  17.147  0.6165 -0.4393  0.2692
10703TIP3    H253525   5.164   0.077  17.258  0.7545  0.2062 -0.2717
10704TIP3   OH253526   5.361   3.782  14.463 -0.3271 -0.1414 -0.2477
10704TIP3    H153527   5.374   3.733  14.544  0.5166  1.5163  0.6868
10704TIP3    H253528   5.437   3.760  14.409  0.0646  0.1645  0.1784
10705TIP3   OH253529   3.417   6.402  16.579 -0.0038  0.2312 -0.9160
10705TIP3    H153530   3.342   6.448  16.617  0.0444  0.0410 -0.5901
10705TIP3    H253531   3.469   6.472  16.538 -1.3191  0.1723 -2.8330
10706TIP3   OH253532   5.875   1.478  15.982 -0.3463 -0.0874  0.5776
10706TIP3    H153533   5.828   1.410  15.933  0.1948 -1.2614  1.6224
10706TIP3    H253534   5.899   1.435  16.064 -1.5939  1.9099  2.0958
10707TIP3   OH253535   4.250   0.739   2.456  0.0796 -0.6559  0.0031
10707TIP3    H153536   4.165   0.773   2.431  1.4053  0.8280 -2.9859
10707TIP3    H253537   4.304   0.817   2.471  1.5022 -1.5168 -0.4315
10708TIP3   OH253538   2.276   6.230  13.424 -0.0397 -0.2148 -0.2813
10708TIP3    H153539   2.331   6.282  13.365  1.0172 -1.3372 -0.3205
10708TIP3    H253540   2.277   6.142  13.386  0.5827 -0.9515  1.3420
10709TIP3   OH253541   4.124   4.141  13.682 -0.2353 -0.4801 -0.6203
10709TIP3    H153542   4.167   4.215  13.724 -1.0751  0.5503 -1.5142
10709TIP3    H253543   4.161   4.140  13.593 -0.0197 -1.3241 -0.5278
10710TIP3   OH253544   3.200   0.763   2.061  0.4188  0.1236  0.2632
10710TIP3    H153545   3.146   0.829   2.104  0.0821 -0.1885  0.3213
10710TIP3    H253546   3.185   0.777   1.967  1.7640  1.3257  0.1896
10711TIP3   OH253547   5.980   6.576   3.967  0.3745  0.1389 -0.2376
10711TIP3    H153548   5.911   6.638   3.944  0.5212  0.1411 -0.6850
10711TIP3    H253549   5.947   6.531   4.044 -0.4887 -0.4326 -0.9241
10712TIP3   OH253550   6.780   1.919  16.078 -0.1746 -0.1456  0.1751
10712TIP3    H153551   6.798   1.832  16.043 -0.6783 -0.0523 -0.3286
10712TIP3    H253552   6.793   1.978  16.003 -1.5069  0.0296  0.0558
10713TIP3   OH253553   1.774   6.004  16.276  0.2731 -0.1103  0.0001
10713TIP3    H153554   1.758   6.061  16.201  0.4181 -0.0925 -0.0193
10713TIP3    H253555   1.698   6.016  16.333 -0.1995 -0.6899 -0.4943
10714TIP3   OH253556   5.259   1.547  12.156  0.2480  0.3756  0.3336
10714TIP3    H153557   5.351   1.524  12.171  0.1341 -0.0603  0.3860
10714TIP3    H253558   5.252   1.638  12.183  0.8706  0.6840 -0.5028
10715TIP3   OH253559   2.374   0.229   5.916 -0.1747  0.0557 -0.1383
10715TIP3    H153560   2.326   0.187   5.988 -0.9176  0.2210 -0.5265
10715TIP3    H253561   2.459   0.185   5.916  0.4901  1.1753  1.9103
10716TIP3   OH253562   1.440   2.701  17.011  0.5854 -0.2695 -0.2406
10716TIP3    H153563   1.455   2.608  17.025 -1.7482 -0.8985 -1.3712
10716TIP3    H253564   1.432   2.737  17.100  0.0049 -1.4508  0.2106
10717TIP3   OH253565   2.153   0.308   1.712 -0.1412  0.8506 -0.4854
10717TIP3    H153566   2.098   0.387   1.713  0.1090  1.0218 -0.1478
10717TIP3    H253567   2.156   0.280   1.803 -0.2948  0.4039 -0.6196
10718TIP3   OH253568   3.563   0.023  13.322 -0.6733 -0.4139  0.6620
10718TIP3    H153569   3.648  -0.008  13.291 -0.9773 -0.8205  0.2183
10718TIP3    H253570   3.521   0.060  13.244 -1.5355 -1.6423  0.5276
10719TIP3   OH253571   5.033   0.281   0.868 -0.0368 -0.5105 -0.5070
10719TIP3    H153572   4.941   0.262   0.883 -0.1502  0.3351 -0.0336
10719TIP3    H253573   5.034   0.349   0.801  0.1709  0.3123  0.3046
10720TIP3   OH253574   5.588   0.550   0.745 -0.6606 -0.1699 -0.5837
10720TIP3    H153575   5.665   0.545   0.801 -1.6266  0.4998  0.8707
10720TIP3    H253576   5.583   0.464   0.703  1.2974  0.0392 -1.3492
10721TIP3   OH253577   3.046   0.447  10.725  0.2863 -0.3785 -0.3035
10721TIP3    H153578   3.043   0.509  10.652 -0.4325  0.3054  0.2842
10721TIP3    H253579   2.955   0.438  10.753  0.6589  0.1986  1.1775
10722TIP3   OH253580   0.643   4.025   1.798  0.4659 -0.0996 -0.1903
10722TIP3    H153581   0.561   4.075   1.797  0.7538  0.4800  1.7056
10722TIP3    H253582   0.624   3.948   1.744 -0.4138  1.3595 -2.1062
10723TIP3   OH253583   4.185   1.584  15.615  1.3513  0.2418 -0.5080
10723TIP3    H153584   4.131   1.565  15.538 -0.8742  2.3960  0.3578
10723TIP3    H253585   4.178   1.505  15.669 -2.4748  0.9427  0.3051
10724TIP3   OH253586   0.127   5.131   3.091 -0.1045 -0.2974  0.2205
10724TIP3    H153587   0.179   5.174   3.023 -0.3225  0.4999  0.5425
10724TIP3    H253588   0.191   5.092   3.150  0.1931  1.3736  1.0681
10725TIP3   OH253589   6.560   3.142  16.734 -0.6186  0.0381  0.3763
10725TIP3    H153590   6.621   3.122  16.663 -1.8416  0.4834 -0.8729
10725TIP3    H253591   6.606   3.117  16.814  1.4062  0.9143 -0.4475
10726TIP3   OH253592   1.392   1.258   5.940 -0.3030 -0.0128  0.0148
10726TIP3    H153593   1.416   1.350   5.933  0.9118 -0.3006  0.2258
10726TIP3    H253594   1.369   1.246   6.032 -0.6123  0.1039 -0.0448
10727TIP3   OH253595   0.583   6.140   0.402  0.3208 -0.0671 -0.2301
10727TIP3    H153596   0.609   6.060   0.446 -0.7810 -0.6971 -0.6785
10727TIP3    H253597   0.501   6.117   0.357 -0.0329  1.3118 -0.3354
10728TIP3   OH253598   6.008   0.982   1.297 -0.1324 -0.5664  0.1684
10728TIP3    H153599   5.977   1.006   1.384 -1.1802 -0.4204 -0.2314
10728TIP3    H253600   5.949   0.913   1.268 -2.0614  1.7326 -1.8068
10729TIP3   OH253601   5.029   3.981  11.880 -0.5162  0.0850  0.7041
10729TIP3    H153602   4.998   3.891  11.894 -1.5985  0.4416  0.7001
10729TIP3    H253603   4.978   4.034  11.940 -0.6267  0.8294 -0.0227
10730TIP3   OH253604   3.796   6.252   1.663 -0.4930 -0.0267  0.4639
10730TIP3    H153605   3.770   6.166   1.698  2.2948 -1.8316 -1.5056
10730TIP3    H253606   3.840   6.295   1.736 -0.2324 -1.0984  0.9685
10731TIP3   OH253607   2.439   6.365  15.579  0.1542  0.2539 -0.1532
10731TIP3    H153608   2.508   6.406  15.527 -0.4382 -0.7137 -1.7692
10731TIP3    H253609   2.358   6.401  15.544 -0.2462 -0.0886  0.4026
10732TIP3   OH253610   2.444   2.733  12.953 -0.5062  0.3998 -0.4064
10732TIP3    H153611   2.415   2.775  12.873  0.3986 -0.1113 -1.0182
10732TIP3    H253612   2.511   2.671  12.925 -1.4568 -1.1238  0.5153
10733TIP3   OH253613   5.440   0.900  12.765  0.0061  0.6040  0.0046
10733TIP3    H153614   5.506   0.953  12.810 -0.1510  0.2687  0.6432
10733TIP3    H253615   5.477   0.812  12.763 -0.0635  0.5827 -0.3745
10734TIP3   OH253616   2.154   6.659   1.866 -0.2003  0.3484 -0.1649
10734TIP3    H153617   2.126   6.603   1.794 -0.6883 -0.2606  0.4753
10734TIP3    H253618   2.115   6.618   1.944  3.4993 -1.3544  1.0013
10735TIP3   OH253619   0.528   4.376  11.234 -0.2811  0.3440  0.1284
10735TIP3    H153620   0.549   4.446  11.172 -0.4436  0.0391 -0.2740
10735TIP3    H253621   0.593   4.386  11.304  3.1943 -2.2806 -2.3561
10736TIP3   OH253622   1.899   5.276  12.121  0.4833  0.6103  0.4140
10736TIP3    H153623   1.832   5.212  12.145 -0.7959  1.3041 -1.1120
10736TIP3    H253624   1.978   5.246  12.166  0.0005 -2.1501 -0.3951
10737TIP3   OH253625   1.710   2.472   4.654 -0.3837 -0.6276 -0.0324
10737TIP3    H153626   1.741   2.421   4.729  1.6403  0.5902  0.0617
10737TIP3    H253627   1.648   2.535   4.692 -0.8711 -1.2777  0.2727
10738TIP3   OH253628   2.063   5.115  14.928 -0.1466  0.0549 -0.1231
10738TIP3    H153629   2.074   5.188  14.867  0.5261  0.4407  0.4395
10738TIP3    H253630   1.995   5.061  14.889 -0.6857  1.0084 -0.5407
10739TIP3   OH253631   3.533   4.551   0.030 -0.1123 -0.2563 -0.4105
10739TIP3    H153632   3.494   4.604  -0.040  0.5639 -0.6768 -1.1255
10739TIP3    H253633   3.582   4.615   0.083 -0.6187  0.0655 -0.3273
10740TIP3   OH253634   0.077   0.009  15.838 -0.3469  0.3615 -0.2407
10740TIP3    H153635   0.040  -0.021  15.755  0.1707  0.9114 -0.6834
10740TIP3    H253636   0.171   0.011  15.822 -0.1470 -0.5944  0.7277
10741TIP3   OH253637   0.057   0.222  12.257 -0.4498 -0.1913 -0.0917
10741TIP3    H153638  -0.034   0.249  12.243  0.0670  1.2169 -0.8514
10741TIP3    H253639   0.057   0.128  12.236 -1.6812 -0.1665 -0.2684
10742TIP3   OH253640   2.772   1.760   4.754  0.0413 -0.8178  0.4666
10742TIP3    H153641   2.817   1.699   4.812 -0.7027 -0.8609  1.0080
10742TIP3    H253642   2.703   1.708   4.714  1.2180 -1.0866 -1.3319
10743TIP3   OH253643   1.884   4.834   4.794  0.6330 -0.0077  0.2911
10743TIP3    H153644   1.916   4.877   4.715 -0.4105 -0.4214 -0.3815
10743TIP3    H253645   1.904   4.895   4.865  1.9336  0.1956 -0.2273
10744TIP3   OH253646   5.791   5.448  17.047 -0.6146 -0.2101  0.0925
10744TIP3    H153647   5.758   5.401  16.970 -1.6091  0.1039  0.3087
10744TIP3    H253648   5.815   5.380  17.109 -1.5214 -0.4529  0.1894
10745TIP3   OH253649   3.664   3.361  15.523  0.1334 -0.0087 -0.4282
10745TIP3    H153650   3.608   3.315  15.585  0.8060  0.6803  0.7023
10745TIP3    H253651   3.627   3.449  15.518 -1.2067 -0.6144 -2.6574
10746TIP3   OH253652   0.418   5.230  11.932  0.2571  0.8031 -0.5293
10746TIP3    H153653   0.357   5.201  12.000  1.2163 -1.9123 -0.6859
10746TIP3    H253654   0.488   5.275  11.980  1.3613 -1.8225  0.5131
10747TIP3   OH253655   2.085   0.825   0.049 -0.2043  0.1893 -0.4823
10747TIP3    H153656   2.074   0.918   0.070 -1.1126  0.1487 -0.7310
10747TIP3    H253657   2.051   0.816  -0.041  1.2179 -0.1197 -1.0100
10748TIP3   OH253658   3.091   4.195   3.979 -0.3253  0.1827  0.0726
10748TIP3    H153659   3.064   4.165   4.066 -1.8924  1.6106  0.1305
10748TIP3    H253660   3.144   4.273   3.997 -1.3928  0.9982 -0.2634
10749TIP3   OH253661   3.511   1.853  11.610  0.4478  0.3480 -0.2322
10749TIP3    H153662   3.438   1.913  11.621 -0.1945 -0.8029  2.6970
10749TIP3    H253663   3.583   1.908  11.577 -1.1124  1.9117 -1.1819
10750TIP3   OH253664   1.959   2.300  15.166  0.4860 -0.0124 -0.2324
10750TIP3    H153665   1.952   2.395  15.171 -0.5428  0.0539 -2.1954
10750TIP3    H253666   2.052   2.282  15.182  1.0922  1.4971 -1.7832
10751TIP3   OH253667   3.760   3.265  11.335 -0.4178  0.2327  0.4512
10751TIP3    H153668   3.686   3.259  11.274  1.1460 -2.0439 -1.4050
10751TIP3    H253669   3.719   3.277  11.421 -2.9367 -0.6044 -0.5225
10752TIP3   OH253670   4.461   6.670   6.059 -0.3871  0.1206  0.4105
10752TIP3    H153671   4.378   6.683   6.104 -0.4072 -1.7338  0.9907
10752TIP3    H253672   4.436   6.651   5.969 -0.4763  1.1980  0.1880
10753TIP3   OH253673   3.656   0.447  13.134  0.4374 -0.0467  0.4701
10753TIP3    H153674   3.711   0.372  13.113 -0.0907 -0.1990 -0.4201
10753TIP3    H253675   3.638   0.488  13.050  0.5405  0.9594  0.9213
10754TIP3   OH253676   2.802   6.201   2.297 -0.1569  0.4875 -0.2994
10754TIP3    H153677   2.717   6.162   2.279 -0.5128  1.6829 -1.3406
10754TIP3    H253678   2.810   6.272   2.233  1.0315  1.2553  0.6543
10755TIP3   OH253679   4.292   2.797   1.682  0.1118  0.4175  0.0582
10755TIP3    H153680   4.340   2.879   1.674 -0.0892  0.4942 -0.3620
10755TIP3    H253681   4.260   2.797   1.772  0.5768  0.5399  0.2278
10756TIP3   OH253682   4.542   3.151  15.449  0.4270  0.6254 -0.6197
10756TIP3    H153683   4.575   3.089  15.514 -3.6282 -1.8350 -0.5393
10756TIP3    H253684   4.554   3.107  15.365  1.5260  1.8014 -1.1142
10757TIP3   OH253685   0.151   3.398   0.792 -0.1552 -0.0326 -0.2512
10757TIP3    H153686   0.180   3.349   0.869 -0.5177  3.0474  2.0574
10757TIP3    H253687   0.229   3.403   0.736  0.3767 -1.6083  0.3019
10758TIP3   OH253688   1.711   0.171   5.188  0.0800  0.0166  0.1209
10758TIP3    H153689   1.708   0.211   5.275  1.2240 -0.5830  0.4629
10758TIP3    H253690   1.641   0.105   5.189 -0.1217  0.2352  0.4716
10759TIP3   OH253691   6.220   1.063   1.141 -0.2523  0.2069 -0.2464
10759TIP3    H153692   6.181   1.125   1.080 -0.8490 -0.4434 -0.5456
10759TIP3    H253693   6.150   1.043   1.203 -0.1946 -0.4459 -0.3781
10760TIP3   OH253694   1.098   2.152  13.496 -0.4006 -0.7081 -0.6228
10760TIP3    H153695   1.018   2.100  13.507 -0.5037 -1.0933 -2.6453
10760TIP3    H253696   1.168   2.087  13.499  0.0467 -0.2172  2.5206
10761TIP3   OH253697   6.266   4.017  13.499  0.3734  0.5070  0.8918
10761TIP3    H153698   6.223   4.045  13.580 -0.6519  0.7406  0.2974
10761TIP3    H253699   6.338   4.079  13.488  0.8739  0.1237  1.9126
10762TIP3   OH253700   0.693   6.745  17.129  0.5563 -0.0152  0.3483
10762TIP3    H153701   0.760   6.723  17.194  0.2825  0.0179  0.6465
10762TIP3    H253702   0.741   6.759  17.048  0.8744 -0.3384  0.4802
10763TIP3   OH253703   3.067   4.453  15.589 -0.2368  0.3316 -0.0999
10763TIP3    H153704   3.150   4.484  15.624 -0.2971  0.5677 -0.1642
10763TIP3    H253705   3.005   4.523  15.608 -0.3267  0.3470 -0.4459
10764TIP3   OH253706   1.018   2.803  15.378 -0.1573 -0.0535  0.1553
10764TIP3    H153707   0.926   2.826  15.369 -0.2598  1.5005  3.6858
10764TIP3    H253708   1.065   2.874  15.335 -0.5928  0.6191  0.7800
10765TIP3   OH253709   1.639   6.139  16.094  0.5176 -0.0332  0.4386
10765TIP3    H153710   1.548   6.118  16.112  0.4209 -0.0233 -0.0271
10765TIP3    H253711   1.636   6.224  16.049  0.6981 -0.3805 -0.2493
10766TIP3   OH253712   4.274   0.298  12.188 -0.2121  0.4701  0.0382
10766TIP3    H153713   4.235   0.253  12.263  2.0480 -1.8944 -0.0631
10766TIP3    H253714   4.221   0.270  12.113 -1.4630  1.5354  0.4821
10767TIP3   OH253715   4.288   6.075   4.871  0.5230  0.1469 -0.1891
10767TIP3    H153716   4.245   6.063   4.956 -1.4124 -2.0643 -1.3685
10767TIP3    H253717   4.366   6.128   4.891  0.2157 -0.3815  2.9422
10768TIP3   OH253718   2.463   6.268   0.691  0.4377 -0.2648 -0.5768
10768TIP3    H153719   2.523   6.243   0.761 -0.9926 -1.3661  0.3044
10768TIP3    H253720   2.483   6.208   0.619 -0.8946 -2.0059  0.4324
10769TIP3   OH253721   1.213   4.615   0.906 -0.6280  0.0084  0.2524
10769TIP3    H153722   1.277   4.615   0.834 -0.4102  1.4349  0.3987
10769TIP3    H253723   1.137   4.660   0.870 -1.1259 -0.6874  0.4310
10770TIP3   OH253724   5.444   1.083   0.623 -0.1048  0.2003 -0.3286
10770TIP3    H153725   5.399   1.034   0.693 -1.0668  1.1537 -0.2473
10770TIP3    H253726   5.440   1.025   0.548 -1.0766  0.0498 -0.1844
10771TIP3   OH253727   4.140   5.538   0.131 -0.5332 -0.3426  0.3930
10771TIP3    H153728   4.141   5.605   0.062 -1.2013 -0.4840  0.2409
10771TIP3    H253729   4.211   5.478   0.107  0.9390  0.9818  1.2175
10772TIP3   OH253730   2.189   6.429   6.621  0.0674 -0.5075  0.5574
10772TIP3    H153731   2.267   6.467   6.662  0.0893 -1.7909  1.7727
10772TIP3    H253732   2.141   6.390   6.693 -1.8548  0.4564 -0.1301
10773TIP3   OH253733   4.514   6.772   3.349  0.3712 -0.3243  0.1727
10773TIP3    H153734   4.561   6.688   3.348  0.2408 -0.4402 -2.1630
10773TIP3    H253735   4.430   6.752   3.389 -0.0410 -1.5619 -1.2449
10774TIP3   OH253736   0.630   1.102   0.213 -0.1870  0.7152  0.0958
10774TIP3    H153737   0.607   1.164   0.143  0.1087 -0.0426 -0.6917
10774TIP3    H253738   0.643   1.157   0.290 -0.2249  1.6026 -0.5131
10775TIP3   OH253739   1.976   0.400   1.438  0.4166 -0.8536  0.1336
10775TIP3    H153740   1.946   0.310   1.454 -1.5287 -0.1816  0.5125
10775TIP3    H253741   1.970   0.442   1.524  2.9197 -0.7523  0.3278
10776TIP3   OH253742   1.848   0.351  14.557  0.4935  0.2960  0.0231
10776TIP3    H153743   1.758   0.346  14.524  0.4249 -0.2528  0.2827
10776TIP3    H253744   1.858   0.273  14.612  0.8359  0.8321  0.7272
10777TIP3   OH253745   1.014   4.827  15.997 -0.3409  0.5683  0.0388
10777TIP3    H153746   1.103   4.859  16.014  0.9901 -2.6866 -0.0600
10777TIP3    H253747   0.993   4.858  15.909  0.7796  1.2060 -0.0186
10778TIP3   OH253748   6.701   4.044  15.721 -0.1328  0.4945  0.0491
10778TIP3    H153749   6.762   3.989  15.771 -0.8437 -1.2358 -0.8819
10778TIP3    H253750   6.640   3.981  15.681  0.0837  1.8096 -2.5667
10779TIP3   OH253751   1.937   3.488  15.868 -0.1619  0.0009 -0.2113
10779TIP3    H153752   1.843   3.497  15.853 -0.3901 -0.2781  0.9955
10779TIP3    H253753   1.944   3.425  15.939  0.9704 -0.4492 -0.6974
10780TIP3   OH253754   3.926   3.010  14.820  0.5867 -0.3693  0.3441
10780TIP3    H153755   3.865   3.016  14.746 -0.6236 -0.8658  1.2729
10780TIP3    H253756   3.943   3.101  14.844 -1.2511 -0.2180  1.2180
10781TIP3   OH253757   1.651   1.960  16.343 -0.5112 -0.7383 -0.2613
10781TIP3    H153758   1.643   1.869  16.370 -0.0632 -0.7376 -0.1074
10781TIP3    H253759   1.637   2.010  16.423 -1.1033 -0.6570 -0.4135
10782TIP3   OH253760   0.839   6.731   3.968  0.2994 -0.0384 -0.3997
10782TIP3    H153761   0.933   6.746   3.983  0.3024  2.0678 -2.0508
10782TIP3    H253762   0.828   6.746   3.874 -1.7780  0.1186 -0.1622
10783TIP3   OH253763   5.613   3.989   2.741  0.4530 -0.1245  0.9228
10783TIP3    H153764   5.678   4.038   2.791  0.0180 -0.7729  2.1577
10783TIP3    H253765   5.531   4.035   2.755  0.2786 -0.4607  1.0334
10784TIP3   OH253766   0.308   3.574  11.396  0.6081 -0.0718  0.0365
10784TIP3    H153767   0.257   3.637  11.345  1.2202 -0.3578 -0.9417
10784TIP3    H253768   0.312   3.496  11.342  1.1920 -0.4220  0.5616
10785TIP3   OH253769   3.927   5.469   4.170  0.0450 -0.4040  0.1583
10785TIP3    H153770   3.913   5.386   4.123  0.4306 -0.9750  1.0244
10785TIP3    H253771   3.984   5.520   4.112  1.2217 -1.4391  0.3414
10786TIP3   OH253772   4.468   5.984  11.774 -0.2542 -0.1921 -0.6884
10786TIP3    H153773   4.546   5.929  11.780 -1.0004 -1.1537  0.6971
10786TIP3    H253774   4.493   6.053  11.712  1.7464 -0.3505 -0.1452
10787TIP3   OH253775   1.040   1.806   3.842 -0.2568 -0.0321 -0.4578
10787TIP3    H153776   1.114   1.745   3.844  0.1212  0.4139 -0.6952
10787TIP3    H253777   1.019   1.820   3.934  1.2820  1.4142 -0.2781
10788TIP3   OH253778   0.563   3.909  13.839  0.0478  0.2265  0.1834
10788TIP3    H153779   0.487   3.941  13.790 -0.1125 -0.3614  0.0466
10788TIP3    H253780   0.583   3.824  13.801  0.1408 -0.0812  0.9044
10789TIP3   OH253781   1.341   2.741  12.514  0.0776  0.3794  0.2533
10789TIP3    H153782   1.303   2.815  12.467  2.0298  0.2025 -1.7739
10789TIP3    H253783   1.272   2.712  12.574 -2.3177  1.1277 -1.9527
10790TIP3   OH253784   1.421   0.774  12.691  0.2281 -0.2629 -0.4169
10790TIP3    H153785   1.450   0.697  12.641  0.2935  0.0984 -0.9421
10790TIP3    H253786   1.396   0.838  12.624  1.7804  0.8028 -0.0506
10791TIP3   OH253787   3.925   3.976   3.796 -0.0503 -0.4343  0.1019
10791TIP3    H153788   3.933   4.057   3.847  0.0726 -0.1584 -0.3543
10791TIP3    H253789   3.838   3.943   3.817  0.1396 -0.5290  0.7906
10792TIP3   OH253790   5.162   1.545   5.342 -0.5582  0.1372  1.0202
10792TIP3    H153791   5.211   1.620   5.309 -0.2070  0.5115  2.3303
10792TIP3    H253792   5.071   1.564   5.319 -0.4069  0.6989  0.8719
10793TIP3   OH253793   0.515   4.464  15.827 -0.0913  0.6407  0.1840
10793TIP3    H153794   0.439   4.521  15.832 -0.5388  0.1014 -0.3630
10793TIP3    H253795   0.563   4.495  15.750  0.4134  1.1752  0.7015
10794TIP3   OH253796   3.382   2.130  14.542  0.0013  0.0283 -0.3195
10794TIP3    H153797   3.438   2.119  14.618  1.9757 -0.0242 -1.7042
10794TIP3    H253798   3.298   2.090  14.567 -0.1911  1.9778  2.5768
10795TIP3   OH253799   1.598   0.164  12.183  0.3818 -0.4605  0.8353
10795TIP3    H153800   1.657   0.138  12.253  1.0333 -0.2862  0.3554
10795TIP3    H253801   1.650   0.222  12.127  0.1276 -1.2469 -0.2412
10796TIP3   OH253802   1.636   5.094   2.813  0.0598  0.4493  0.1928
10796TIP3    H153803   1.550   5.072   2.776  0.4511 -1.7457  0.4403
10796TIP3    H253804   1.652   5.184   2.784 -0.8842 -0.1792 -2.6435
10797TIP3   OH253805   4.689   1.388   1.009  0.2132 -0.4293 -0.3591
10797TIP3    H153806   4.674   1.479   0.985  0.1446 -0.4764 -0.4953
10797TIP3    H253807   4.720   1.347   0.929 -1.5548 -0.9565 -0.8138
10798TIP3   OH253808   0.687   2.142   2.012  0.5512  0.0770  0.0640
10798TIP3    H153809   0.598   2.127   2.044  0.6807  1.6745  1.3031
10798TIP3    H253810   0.735   2.063   2.037 -0.9123 -1.7724 -2.4861
10799TIP3   OH253811   4.293   5.574  13.218 -0.5294  0.5757  0.0452
10799TIP3    H153812   4.329   5.656  13.184  1.7459 -0.8686 -1.3392
10799TIP3    H253813   4.364   5.510  13.207 -2.0651 -1.5152  1.4133
10800TIP3   OH253814   5.921   2.274  16.185  0.2270 -0.4810  0.1814
10800TIP3    H153815   5.970   2.221  16.122  1.5265 -0.3299  1.0213
10800TIP3    H253816   5.847   2.220  16.210  0.0234 -0.7814 -1.0104
10801TIP3   OH253817   2.249   0.830   2.233  0.2352  0.9794  0.7747
10801TIP3    H153818   2.175   0.884   2.208  0.0642 -0.4526 -2.2285
10801TIP3    H253819   2.316   0.847   2.167  0.4001 -1.9123  0.0548
10802TIP3   OH253820   5.179   3.498  16.588  0.0006  0.3327  0.0973
10802TIP3    H153821   5.093   3.464  16.614  0.0730  0.5208  0.5917
10802TIP3    H253822   5.160   3.555  16.513 -0.5640  1.8509  1.3476
10803TIP3   OH253823   3.935   2.449   5.522  0.6727  0.3732  0.0628
10803TIP3    H153824   4.022   2.423   5.552  1.0189  3.6719  2.4227
10803TIP3    H253825   3.951   2.510   5.450  0.2820  0.5893  0.1581
10804TIP3   OH253826   1.243   5.035  11.872  0.7359 -0.0791  0.4362
10804TIP3    H153827   1.235   5.119  11.917  2.9104  0.3553  0.1031
10804TIP3    H253828   1.215   5.054  11.783 -0.6310 -0.2026  0.8183
10805TIP3   OH253829   6.338   6.093  16.361 -0.0682 -0.3997  0.0353
10805TIP3    H153830   6.389   6.056  16.432 -0.7722 -0.0637  0.7426
10805TIP3    H253831   6.364   6.185  16.359  1.2170 -0.7677 -1.3024
10806TIP3   OH253832   3.450   2.417  12.227  0.0825 -0.0646 -0.0897
10806TIP3    H153833   3.491   2.396  12.143  0.0118  1.9054 -0.6555
10806TIP3    H253834   3.356   2.411  12.210  0.0593 -1.0390  0.2623
10807TIP3   OH253835   5.821   0.952   2.517  0.3196  0.0704 -0.0740
10807TIP3    H153836   5.732   0.940   2.484 -0.0495  1.7671  0.2019
10807TIP3    H253837   5.877   0.930   2.442 -0.3969  0.6606 -0.8047
10808TIP3   OH253838   4.878   1.147   3.858  0.7466  0.3126 -0.5425
10808TIP3    H153839   4.849   1.217   3.917  0.3063 -1.6897  1.7278
10808TIP3    H253840   4.945   1.100   3.908  1.7377 -0.3434 -2.3944
10809TIP3   OH253841   2.769   1.562  12.351  0.3570 -0.2019 -0.0384
10809TIP3    H153842   2.780   1.653  12.326 -0.5314 -0.5768 -2.0079
10809TIP3    H253843   2.851   1.538  12.394  0.1770  1.7994  1.5269
10810TIP3   OH253844   6.394   1.114  14.257  0.3269  0.1649 -0.0136
10810TIP3    H153845   6.336   1.087  14.328  0.5117 -0.0454  0.0582
10810TIP3    H253846   6.468   1.157  14.301  1.1689 -1.2635  0.0316
10811TIP3   OH253847   5.370   1.349  16.662  0.4309  0.0912  0.1736
10811TIP3    H153848   5.421   1.343  16.743  2.1055  1.3618 -0.7305
10811TIP3    H253849   5.430   1.390  16.599 -0.5608 -1.5564 -1.9403
10812TIP3   OH253850   0.043   1.911   4.024 -0.4167 -0.7735  0.4958
10812TIP3    H153851   0.020   1.825   3.989 -0.8286  0.0888 -1.4945
10812TIP3    H253852  -0.041   1.948   4.052 -0.2549 -0.9732  1.2503
10813TIP3   OH253853   5.696   5.419   2.942  0.6266 -0.6788 -0.1533
10813TIP3    H153854   5.677   5.391   2.853  1.7114 -1.5024 -0.1408
10813TIP3    H253855   5.792   5.419   2.948  0.5675 -0.9315  1.1039
10814TIP3   OH253856   6.773   5.496  14.274 -0.2113 -0.0437 -0.0303
10814TIP3    H153857   6.707   5.544  14.223  0.8432  1.0538 -0.4059
10814TIP3    H253858   6.757   5.522  14.364  0.2766  0.9795 -0.2159
10815TIP3   OH253859   3.202   4.614  13.210  0.0812 -0.0149  0.0085
10815TIP3    H153860   3.139   4.686  13.210  1.0756  0.8878 -0.3950
10815TIP3    H253861   3.281   4.652  13.249  0.5016 -1.0027  0.1436
10816TIP3   OH253862   1.855   1.560  13.511 -0.9072  0.0021 -0.1504
10816TIP3    H153863   1.940   1.568  13.555  0.7095 -1.5815 -2.7260
10816TIP3    H253864   1.830   1.650  13.491  0.6147  0.4627 -0.1069
10817TIP3   OH253865   5.571   4.049  11.061 -0.6249 -0.0987  0.6620
10817TIP3    H153866   5.568   4.067  10.967 -0.2239 -0.2734  0.6171
10817TIP3    H253867   5.505   4.108  11.098 -0.7777 -0.0206  0.2755
10818TIP3   OH253868   4.754   6.382  16.123 -0.2365 -0.8067  0.1570
10818TIP3    H153869   4.784   6.331  16.198  0.5589  1.1307  1.2111
10818TIP3    H253870   4.723   6.316  16.060  0.6049 -2.5540  1.4986
10819TIP3   OH253871   1.974   6.746   0.331  0.4562  0.1910  0.2812
10819TIP3    H153872   1.971   6.726   0.238 -2.1566  0.1419  0.3009
10819TIP3    H253873   2.059   6.789   0.344  1.6098 -1.3292 -1.7450
10820TIP3   OH253874   2.491   5.316  14.168 -0.4324  0.0154  0.2917
10820TIP3    H153875   2.543   5.344  14.093 -0.8769  0.1331  0.0245
10820TIP3    H253876   2.551   5.263  14.221 -0.7135 -1.9916 -1.2816
10821TIP3   OH253877   1.466   3.513   1.941 -0.0835 -0.1658  0.6350
10821TIP3    H153878   1.513   3.463   2.007  0.7191  1.4952  1.3986
10821TIP3    H253879   1.496   3.478   1.857  2.0764  0.3915  1.1141
10822TIP3   OH253880   3.838   0.019  14.025  0.4686  0.2207  0.1144
10822TIP3    H153881   3.815   0.078  14.096 -2.2631 -0.9239  0.2646
10822TIP3    H253882   3.814   0.067  13.945  0.0946  0.0735  0.1388
10823TIP3   OH253883   5.259   0.221   2.443 -0.4218 -0.2408  0.7454
10823TIP3    H153884   5.354   0.225   2.433 -0.4971  0.6462  0.3172
10823TIP3    H253885   5.241   0.271   2.523 -0.7356  2.0237 -0.6442
10824TIP3   OH253886   2.452   0.128   4.834  0.3499  0.2869  0.4276
10824TIP3    H153887   2.426   0.184   4.908 -0.5947 -0.5112  0.7154
10824TIP3    H253888   2.393   0.053   4.838  1.6973 -0.8350  0.1362
10825TIP3   OH253889   5.570   5.411   0.836  0.2992 -0.1865 -0.5453
10825TIP3    H153890   5.619   5.492   0.822  0.3198  0.1095  1.0279
10825TIP3    H253891   5.489   5.423   0.787  1.0372  0.0472 -1.7474
10826TIP3   OH253892   4.153   4.806  16.608  0.0703 -0.2589 -0.4387
10826TIP3    H153893   4.243   4.837  16.614  0.4688 -1.0189 -1.9570
10826TIP3    H253894   4.106   4.857  16.674  1.7398 -0.3856  0.9254
10827TIP3   OH253895   2.498   2.356   0.334 -0.8600  0.2888  0.5393
10827TIP3    H153896   2.410   2.359   0.295  0.0403  0.8718 -1.5685
10827TIP3    H253897   2.556   2.390   0.266  1.5063 -3.3479  0.4360
10828TIP3   OH253898   5.721   5.742  13.327  0.6408  0.6966  0.9199
10828TIP3    H153899   5.707   5.647  13.325  0.3071  0.6706 -3.2356
10828TIP3    H253900   5.672   5.771  13.404 -2.8666 -2.1016  0.0510
10829TIP3   OH253901   0.277   3.133  12.073 -0.0490 -0.1535  1.0784
10829TIP3    H153902   0.351   3.092  12.118 -0.0190 -1.3717 -0.0308
10829TIP3    H253903   0.222   3.060  12.046  0.7995  0.2834 -2.3888
10830TIP3   OH253904   3.282   5.836   5.733 -0.5237  1.0638  0.5095
10830TIP3    H153905   3.273   5.919   5.686  0.2059  0.8625  0.0003
10830TIP3    H253906   3.198   5.825   5.778 -1.6831  0.7629 -1.5596
10831TIP3   OH253907   3.715   5.530  15.958  0.2124 -0.6964  0.1630
10831TIP3    H153908   3.805   5.500  15.972  0.8671  1.0555 -0.0204
10831TIP3    H253909   3.676   5.530  16.046  0.5309 -1.0333  0.3076
10832TIP3   OH253910   2.717   4.688  11.555 -0.2065 -0.2656  0.5053
10832TIP3    H153911   2.770   4.612  11.580 -0.5952 -1.1485 -1.2325
10832TIP3    H253912   2.780   4.760  11.550  0.9237 -1.3170 -1.6238
10833TIP3   OH253913   4.289   4.084   3.157 -0.3614  0.0560  0.1726
10833TIP3    H153914   4.297   4.093   3.252 -0.9337 -1.7027  0.4209
10833TIP3    H253915   4.204   4.043   3.144 -0.9255  1.5572 -1.2214
10834TIP3   OH253916   5.664   4.333  14.964 -0.2074 -0.2069 -0.2752
10834TIP3    H153917   5.741   4.363  15.012 -0.0441 -1.0644  0.0219
10834TIP3    H253918   5.650   4.244  14.997 -2.7994  0.7548  1.5204
10835TIP3   OH253919   3.854   2.536   4.553 -0.2115 -0.5040  0.5507
10835TIP3    H153920   3.887   2.448   4.565 -1.6181 -1.1028  0.2333
10835TIP3    H253921   3.876   2.582   4.634  0.9086 -0.9906  0.5439
10836TIP3   OH253922   0.210   1.706   0.467  0.2471 -0.2238 -0.3038
10836TIP3    H153923   0.173   1.776   0.520  1.2671  1.1106 -1.2881
10836TIP3    H253924   0.179   1.625   0.509  0.4599  0.7596  1.9007
10837TIP3   OH253925   1.334   0.598  12.895  0.0874 -0.3753 -0.1886
10837TIP3    H153926   1.287   0.545  12.831 -1.3179  0.3522  0.1866
10837TIP3    H253927   1.362   0.676  12.846 -0.2395 -0.2139 -0.1217
10838TIP3   OH253928   3.802   3.174   1.831 -0.4394  0.5133 -0.0891
10838TIP3    H153929   3.803   3.254   1.779 -0.0030  0.6021  0.0509
10838TIP3    H253930   3.715   3.136   1.816 -0.0941  0.1765 -1.4238
10839TIP3   OH253931   0.001   5.374   3.007  0.3051 -0.2899 -0.5585
10839TIP3    H153932   0.094   5.395   3.018  0.1406  0.0852  0.2103
10839TIP3    H253933  -0.042   5.459   2.999 -0.3205 -0.2437  2.2249
10840TIP3   OH253934   5.646   3.703  10.763 -0.8376 -0.3181 -0.5046
10840TIP3    H153935   5.575   3.754  10.724 -1.4143 -1.0505 -0.4339
10840TIP3    H253936   5.602   3.638  10.818 -0.1347 -1.1164 -0.8560
10841TIP3   OH253937   1.519   4.343  14.451  0.6895  0.2122  0.2735
10841TIP3    H153938   1.457   4.414  14.469  1.7815  1.2339  0.1306
10841TIP3    H253939   1.603   4.387  14.442  1.0057 -0.7812 -2.4549
10842TIP3   OH253940   1.088   3.542  16.204 -0.7203  0.1352 -0.3837
10842TIP3    H153941   1.045   3.473  16.254 -1.2898 -0.7422 -2.0358
10842TIP3    H253942   1.017   3.592  16.164 -0.2898 -1.0804 -2.8051
10843TIP3   OH253943   2.778   0.150  13.846 -0.4093  0.4604 -0.2014
10843TIP3    H153944   2.792   0.057  13.863  1.0093  0.8050  0.6957
10843TIP3    H253945   2.697   0.153  13.794 -0.6499 -1.2319  0.0129
10844TIP3   OH253946   5.251   0.101   3.399  0.0638  0.6202 -0.2327
10844TIP3    H153947   5.202   0.076   3.477 -0.5268 -0.0386 -0.8077
10844TIP3    H253948   5.186   0.102   3.329  0.8936 -0.5274 -1.0570
10845TIP3   OH253949   4.412   2.555  12.299  0.7205 -0.5383 -0.3734
10845TIP3    H153950   4.483   2.518  12.350 -1.1866 -3.3262  0.4890
10845TIP3    H253951   4.370   2.480  12.258 -0.8394  1.1435 -2.0800
10846TIP3   OH253952   1.050   2.540  15.467  0.2628 -0.1100  0.0460
10846TIP3    H153953   1.040   2.470  15.402 -0.8553 -0.8657  0.9908
10846TIP3    H253954   1.057   2.620  15.414  0.1214 -0.7742 -1.0200
10847TIP3   OH253955   6.742   1.475   1.890  0.0725 -0.0906 -0.6653
10847TIP3    H153956   6.785   1.459   1.806  1.4880  0.2767 -0.0503
10847TIP3    H253957   6.652   1.447   1.877  0.0979  0.5690 -2.4940
10848TIP3   OH253958   5.325   1.016   5.130  0.0979 -0.4326 -0.5140
10848TIP3    H153959   5.388   1.001   5.060 -0.5538 -0.1440 -1.1767
10848TIP3    H253960   5.361   1.090   5.180 -0.7953  1.2530 -2.2384
10849TIP3   OH253961   1.341   1.993  12.178 -0.1362  0.0695  0.0275
10849TIP3    H153962   1.336   2.058  12.248  0.6448 -0.9836  1.0951
10849TIP3    H253963   1.338   1.908  12.224  0.1941 -0.6442 -1.2328
10850TIP3   OH253964   6.233   3.809   0.716  0.2005  0.0793  0.2576
10850TIP3    H153965   6.271   3.886   0.675  0.4647 -0.4456 -0.5032
10850TIP3    H253966   6.238   3.741   0.649 -1.1031 -0.2890  0.5086
10851TIP3   OH253967   5.435   4.745  10.957  0.1859  0.5046 -0.0848
10851TIP3    H153968   5.522   4.746  10.917 -0.1481 -0.4749 -0.8700
10851TIP3    H253969   5.389   4.818  10.915  0.5140  0.8206  0.0949
10852TIP3   OH253970   1.324   0.512   5.695  0.6243 -0.4211 -0.0676
10852TIP3    H153971   1.250   0.570   5.713  2.5594  2.3760 -0.5577
10852TIP3    H253972   1.342   0.524   5.602  1.6428 -1.1547  0.0175
10853TIP3   OH253973   2.257   2.534   4.564 -0.1328  0.3804  0.2322
10853TIP3    H153974   2.168   2.521   4.532 -0.2473  3.2901 -0.9179
10853TIP3    H253975   2.249   2.528   4.660 -0.9651 -2.2458  0.0624
10854TIP3   OH253976   4.339   6.463  16.400  0.2266 -0.4651  0.1282
10854TIP3    H153977   4.411   6.452  16.338 -0.8991  0.1260 -1.3689
10854TIP3    H253978   4.260   6.463  16.345 -0.7709  1.1004  1.4465
10855TIP3   OH253979   5.757   5.368   4.683  0.5177  0.2864  0.1796
10855TIP3    H153980   5.734   5.460   4.696 -1.1487  0.3125 -2.2216
10855TIP3    H253981   5.674   5.324   4.666  1.4520 -1.2946 -0.5773
10856TIP3   OH253982   0.948   5.484   1.882 -0.6326  0.9650 -0.0290
10856TIP3    H153983   0.879   5.517   1.824 -1.5440 -0.4490  0.1911
10856TIP3    H253984   1.028   5.487   1.829 -1.3267  0.3109 -1.1497
10857TIP3   OH253985   5.567   0.206  12.819 -0.6066 -0.2976  0.4555
10857TIP3    H153986   5.509   0.280  12.835  2.0246  3.1344 -3.6490
10857TIP3    H253987   5.641   0.220  12.877  0.0028  0.5494 -0.4924
10858TIP3   OH253988   3.421   3.042  14.508  0.0809  0.4497  0.0667
10858TIP3    H153989   3.332   3.056  14.541 -0.3576 -1.2608 -0.2962
10858TIP3    H253990   3.448   2.959  14.548  1.1329  0.4442 -0.6279
10859TIP3   OH253991   4.946   4.774   0.154 -1.0489 -0.4664  0.1112
10859TIP3    H153992   4.953   4.794   0.247 -1.1381  0.9467 -0.1573
10859TIP3    H253993   4.940   4.678   0.150  1.0104 -0.7104  1.4027
10860TIP3   OH253994   6.648   6.175  12.299  0.8737  0.6658  0.4940
10860TIP3    H153995   6.619   6.086  12.319 -0.7974  1.4086  1.6062
10860TIP3    H253996   6.604   6.196  12.217 -0.5473  1.2162  1.3604
10861TIP3   OH253997   3.476   5.991   2.552 -0.1752 -0.7809  0.0072
10861TIP3    H153998   3.508   5.960   2.637  0.5976  0.9725  0.4046
10861TIP3    H253999   3.422   6.066   2.573 -0.6709 -0.8404 -1.0135
10862TIP3   OH254000   1.843   4.800   0.599  0.7664 -0.0906 -0.4507
10862TIP3    H154001   1.834   4.895   0.584  2.1066 -0.2373 -2.5018
10862TIP3    H254002   1.887   4.794   0.684  1.9531  1.2033 -0.9195
10863TIP3   OH254003   0.240   1.900  11.839 -0.2447  0.0037 -0.1889
10863TIP3    H154004   0.296   1.936  11.908  0.6571  1.7865 -1.7510
10863TIP3    H254005   0.297   1.839  11.791  0.2759  1.3812 -1.4197
10864TIP3   OH254006   3.319   0.136  13.170 -0.0467  0.2702  0.1260
10864TIP3    H154007   3.333   0.224  13.204  0.8374 -0.5509  2.0480
10864TIP3    H254008   3.255   0.147  13.099  0.1651  2.4473  0.2143
10865TIP3   OH254009   4.647   4.452  15.015 -0.2807  0.1368  0.2575
10865TIP3    H154010   4.579   4.386  15.027 -1.3460  0.9157 -1.1313
10865TIP3    H254011   4.658   4.458  14.920  2.6556 -0.8302  0.4528
10866TIP3   OH254012   1.622   4.759   4.941 -0.0561 -0.4365  0.9918
10866TIP3    H154013   1.701   4.789   4.897 -1.1003  0.4706 -0.3518
10866TIP3    H254014   1.650   4.685   4.995  2.1334  1.2886  2.3762
10867TIP3   OH254015   5.585   3.418   5.164  0.8279 -0.1742 -0.2294
10867TIP3    H154016   5.582   3.507   5.128  0.4393 -0.0082  0.2173
10867TIP3    H254017   5.676   3.390   5.150  1.7658  1.3505  2.1858
10868TIP3   OH254018   1.378   2.331   5.661  0.5907 -0.1667  0.3103
10868TIP3    H154019   1.325   2.408   5.685  0.1086 -0.0320 -1.0800
10868TIP3    H254020   1.318   2.276   5.611  1.2463 -0.9230  0.3450
10869TIP3   OH254021   5.325   1.322  15.667 -0.3135 -0.2590 -0.4762
10869TIP3    H154022   5.242   1.275  15.665 -1.6609  1.9710 -0.2017
10869TIP3    H254023   5.371   1.293  15.588 -1.1721 -1.7951 -0.4510
10870TIP3   OH254024   4.734   0.197   0.121 -0.0750 -0.5722  0.4893
10870TIP3    H154025   4.662   0.153   0.165  0.1785  1.3435  3.0198
10870TIP3    H254026   4.752   0.142   0.045 -1.1576 -3.6215  2.2572
10871TIP3   OH254027   2.460   4.914   3.691  0.2296  0.0509 -0.3087
10871TIP3    H154028   2.456   4.836   3.635  1.0500  1.9420 -3.2531
10871TIP3    H254029   2.396   4.974   3.653  0.9505  1.5176  0.7133
10872TIP3   OH254030   2.312   3.562   1.965 -0.3661  0.8569 -0.3561
10872TIP3    H154031   2.249   3.541   2.034  1.3898 -0.6548  0.8776
10872TIP3    H254032   2.258   3.573   1.886 -2.1768 -0.4180  0.6209
10873TIP3   OH254033   6.214   5.676   2.411  0.0729  0.2901 -0.1225
10873TIP3    H154034   6.209   5.770   2.430  3.0947  1.1547 -2.7187
10873TIP3    H254035   6.236   5.636   2.495  4.3605  2.7660  0.2158
10874TIP3   OH254036   5.217   5.104   6.077  0.0616 -0.4149  0.1075
10874TIP3    H154037   5.244   5.167   6.144 -0.4854  0.0046 -0.0567
10874TIP3    H254038   5.164   5.155   6.016  0.7068 -0.7468 -0.7551
10875TIP3   OH254039   1.541   1.999  12.787 -0.2531 -0.1864 -0.1015
10875TIP3    H154040   1.597   2.069  12.820  0.3403 -0.8025  0.2120
10875TIP3    H254041   1.539   1.934  12.858 -1.0899 -0.3271 -0.2387
10876TIP3   OH254042   0.628   2.723  12.095 -0.6926 -0.0271 -0.3497
10876TIP3    H154043   0.684   2.783  12.145  0.3270 -1.4177  0.2633
10876TIP3    H254044   0.546   2.721  12.144 -0.4137  0.1966  0.1386
10877TIP3   OH254045   0.043   6.695  15.580  0.1998  0.3451  0.4609
10877TIP3    H154046   0.006   6.714  15.494  0.3837  1.4701  0.6085
10877TIP3    H254047  -0.003   6.617  15.610 -0.7469  0.6569 -0.1350
10878TIP3   OH254048   3.135   5.351  14.286 -0.2760  0.3020 -0.2078
10878TIP3    H154049   3.154   5.286  14.354 -1.3764  1.0731  0.8733
10878TIP3    H254050   3.217   5.357  14.235  0.8702  0.3006  1.5566
10879TIP3   OH254051   5.456   5.639   1.029  0.3941  0.3756  0.2804
10879TIP3    H154052   5.482   5.707   0.967  0.9360  0.3868  0.5203
10879TIP3    H254053   5.462   5.681   1.114 -1.4770  0.7263  0.2872
10880TIP3   OH254054   2.975   2.494  10.874  0.1121  0.2610 -0.3035
10880TIP3    H154055   3.066   2.485  10.902  0.2130  1.1878 -0.2944
10880TIP3    H254056   2.960   2.589  10.871  0.3548  0.3310 -4.1792
10881TIP3   OH254057   6.168   5.163  11.740  0.0254  0.1246  0.7311
10881TIP3    H154058   6.233   5.155  11.670 -0.1390 -0.6769  0.6532
10881TIP3    H254059   6.198   5.102  11.808 -2.2447 -2.7544 -0.6073
10882TIP3   OH254060   1.206   2.539  12.891 -0.1507  0.2777  0.1153
10882TIP3    H154061   1.126   2.489  12.874 -0.4770  0.7592  0.2298
10882TIP3    H254062   1.274   2.493  12.841 -0.4294 -0.3281  0.2817
10883TIP3   OH254063   1.193   0.370   5.938  0.0320  0.0601  0.6917
10883TIP3    H154064   1.143   0.373   5.856 -2.2689 -2.1118  1.8812
10883TIP3    H254065   1.152   0.437   5.993  0.2273  0.1110  0.7743
10884TIP3   OH254066   3.136   0.968  15.898  0.6979 -0.7247  0.4102
10884TIP3    H154067   3.217   0.967  15.949 -0.2022  0.2766  1.9294
10884TIP3    H254068   3.113   0.876  15.886  1.4163 -0.9884  1.0206
10885TIP3   OH254069   0.410   5.818   2.390 -0.4772  0.0543  0.1068
10885TIP3    H154070   0.334   5.763   2.410  0.0785 -0.8013 -0.0751
10885TIP3    H254071   0.400   5.894   2.448 -2.3432  0.7916 -1.0804
10886TIP3   OH254072   6.749   2.163  17.066 -0.3296 -0.2250  0.2890
10886TIP3    H154073   6.712   2.094  17.120  0.4486 -0.7142  0.2226
10886TIP3    H254074   6.821   2.121  17.019  0.8553  0.8751  1.0441
10887TIP3   OH254075   3.959   0.777   3.774 -0.1918  0.1908 -0.2833
10887TIP3    H154076   4.046   0.749   3.746 -0.4684 -0.5916 -0.3825
10887TIP3    H254077   3.922   0.700   3.818 -0.6278  0.6861  0.2294
10888TIP3   OH254078   4.501   6.754  13.442 -0.2928 -0.5604 -0.7925
10888TIP3    H154079   4.513   6.796  13.357  0.5688  2.9658  0.8758
10888TIP3    H254080   4.406   6.754  13.455 -0.3632  0.1238 -1.2264
10889TIP3   OH254081   2.930   3.251   3.496  0.8069 -0.3747  0.3330
10889TIP3    H154082   2.975   3.331   3.468  0.5572  0.0030  0.9911
10889TIP3    H254083   2.978   3.181   3.453  0.1056  0.2065 -1.4967
10890TIP3   OH254084   2.838   5.307   2.302 -0.2051 -0.0796 -0.5043
10890TIP3    H154085   2.860   5.304   2.395  1.1370 -0.5669 -0.8124
10890TIP3    H254086   2.849   5.217   2.272  0.9558  0.3663 -1.4638
10891TIP3   OH254087   4.885   5.328   4.209 -0.4771  0.2374  0.2565
10891TIP3    H154088   4.852   5.324   4.119  1.7793 -0.1413 -0.6162
10891TIP3    H254089   4.852   5.248   4.250 -0.8081 -0.0216 -0.4931
10892TIP3   OH254090   4.432   6.342  12.192  0.2414 -0.7696  0.1559
10892TIP3    H154091   4.455   6.275  12.127 -3.1133  0.2935 -2.3862
10892TIP3    H254092   4.336   6.346  12.190  0.1682  1.8054  2.6624
10893TIP3   OH254093   4.729   5.019  16.114 -0.7150  0.3039 -0.3228
10893TIP3    H154094   4.694   5.006  16.027 -1.1552 -0.4715 -0.0327
10893TIP3    H254095   4.771   4.936  16.137  0.3567  0.8457 -0.2201
10894TIP3   OH254096   6.196   4.946   5.763 -0.0783 -0.0942 -0.6847
10894TIP3    H154097   6.180   4.993   5.681 -2.0655 -0.5580 -0.6102
10894TIP3    H254098   6.187   5.014   5.831 -0.1754 -0.0483 -0.7431
10895TIP3   OH254099   3.489   2.258  16.101  1.3434  0.0817  0.8555
10895TIP3    H154100   3.432   2.205  16.157  1.1832 -0.1159  0.5131
10895TIP3    H254101   3.577   2.243  16.135  1.1652  0.5793  1.5400
10896TIP3   OH254102   0.620   6.447  10.975  0.5366  0.5742 -0.4118
10896TIP3    H154103   0.557   6.517  10.958  1.1827  0.8849 -1.7089
10896TIP3    H254104   0.567   6.370  10.994 -0.2473  0.8402 -1.4359
10897TIP3   OH254105   5.792   2.194  11.584  0.4441  0.8460  0.2922
10897TIP3    H154106   5.849   2.262  11.620 -2.2138  2.0171  2.6416
10897TIP3    H254107   5.785   2.129  11.654 -1.4850  1.0354  0.3250
10898TIP3   OH254108   4.927   5.957   2.806 -0.7341 -0.0657  0.1349
10898TIP3    H154109   4.905   5.985   2.717  1.0050  1.3188  0.0961
10898TIP3    H254110   5.018   5.984   2.818 -0.3132 -1.9791  1.6591
10899TIP3   OH254111   4.545   5.528   4.488 -0.0794  0.6678  0.1922
10899TIP3    H154112   4.626   5.554   4.531  0.7842  0.4325 -1.2372
10899TIP3    H254113   4.503   5.611   4.463  1.1678  0.7944 -1.6331
10900TIP3   OH254114   4.929   4.433   1.467  0.0144  0.2839  0.0547
10900TIP3    H154115   4.963   4.521   1.479 -2.6811  1.7726 -2.0562
10900TIP3    H254116   4.836   4.445   1.448 -0.4977 -3.0321 -0.2271
10901TIP3   OH254117   0.784   2.212  17.110  0.0336  0.1965  0.1586
10901TIP3    H154118   0.802   2.303  17.131  0.0617  0.1419  0.3679
10901TIP3    H254119   0.850   2.162  17.158 -1.2675 -0.0743  1.7716
10902TIP3   OH254120   1.228   3.837  17.044  0.6134 -0.5921 -0.1896
10902TIP3    H154121   1.211   3.821  17.137  0.2229  0.0592 -0.1476
10902TIP3    H254122   1.310   3.886  17.042 -0.5660  1.4669 -0.0323
10903TIP3   OH254123   5.108   5.694  17.015 -0.6375 -0.3814  0.1588
10903TIP3    H154124   5.144   5.671  17.101  0.4218  0.3422 -0.0685
10903TIP3    H254125   5.063   5.778  17.030 -0.8493 -0.4815  0.0956
10904TIP3   OH254126   5.458   5.058  15.969 -0.4136 -0.0527  0.1864
10904TIP3    H154127   5.443   5.087  15.879  1.7671  0.9595  0.0984
10904TIP3    H254128   5.476   4.964  15.961 -0.7599 -0.0763 -0.3522
10905TIP3   OH254129   6.555   5.938   2.423  0.1532 -0.1510  0.4758
10905TIP3    H154130   6.520   5.904   2.340  0.6729 -0.2496  0.2918
10905TIP3    H254131   6.626   5.877   2.446  0.3717  0.1863  0.7091
10906TIP3   OH254132   2.507   0.395   0.531 -0.0258 -0.8664 -0.6445
10906TIP3    H154133   2.512   0.304   0.501  1.4395 -1.0917  0.2064
10906TIP3    H254134   2.577   0.440   0.484 -0.3656 -0.2998 -0.6208
10907TIP3   OH254135   5.121   1.232   5.435 -0.0039  0.6297  0.5835
10907TIP3    H154136   5.148   1.310   5.386  0.0549  0.2443 -0.0092
10907TIP3    H254137   5.200   1.177   5.437 -0.2765  0.2232  0.2725
10908TIP3   OH254138   1.382   5.819  12.200  0.1492  0.4080  0.4882
10908TIP3    H154139   1.387   5.725  12.182 -0.4171  0.1757  1.4721
10908TIP3    H254140   1.399   5.860  12.116 -0.4885 -0.5918 -0.1529
10909TIP3   OH254141   6.229   1.235  15.472  0.0880 -0.3314  0.3591
10909TIP3    H154142   6.175   1.303  15.512  2.9520  1.5820  1.2990
10909TIP3    H254143   6.309   1.281  15.445  1.4169 -3.0274 -0.6410
10910TIP3   OH254144   3.723   5.187   4.034 -0.1904  0.9124 -0.3260
10910TIP3    H154145   3.651   5.129   4.009 -0.6528  1.1136  0.5273
10910TIP3    H254146   3.696   5.273   4.003  0.0500  0.8527 -0.7112
10911TIP3   OH254147   2.225   3.210   6.349  0.1004 -0.4006 -0.1268
10911TIP3    H154148   2.172   3.218   6.428 -0.5972 -0.6659 -0.5545
10911TIP3    H254149   2.192   3.132   6.305  1.4778 -1.1082  0.0400
10912TIP3   OH254150   3.398   2.918  13.132 -0.0281 -0.3093  0.2583
10912TIP3    H154151   3.424   2.884  13.046  1.1844 -0.5223  0.6834
10912TIP3    H254152   3.316   2.873  13.152  0.4332 -1.3465 -0.1456
10913TIP3   OH254153   2.814   6.252   0.205  0.1763 -0.2869 -0.0352
10913TIP3    H154154   2.754   6.226   0.275  2.0724 -1.2803  1.3235
10913TIP3    H254155   2.897   6.269   0.250  2.0980 -3.0512 -2.1806
10914TIP3   OH254156   0.943   0.539  14.021  0.0503  0.2259 -0.7343
10914TIP3    H154157   0.946   0.559  13.928  0.8669 -0.0465 -0.7740
10914TIP3    H254158   1.029   0.501  14.041 -0.7603 -1.4758 -0.2731
10915TIP3   OH254159   6.355   3.226   0.081  0.5076 -0.5551 -0.4590
10915TIP3    H154160   6.286   3.222   0.147  1.5969 -0.3046  0.7414
10915TIP3    H254161   6.349   3.142   0.035 -1.9843  0.3209 -1.8871
10916TIP3   OH254162   3.820   5.631   3.701 -0.0509 -0.1327 -0.1145
10916TIP3    H154163   3.878   5.691   3.748  1.3099 -2.0949  0.8542
10916TIP3    H254164   3.771   5.586   3.770 -1.1036 -0.0829 -0.8155
10917TIP3   OH254165   1.632   0.110   2.981 -0.3595  0.1111  0.6754
10917TIP3    H154166   1.603   0.081   2.895 -0.4063  1.2912  0.2788
10917TIP3    H254167   1.725   0.133   2.969 -0.9957  2.8460  0.2058
10918TIP3   OH254168   2.212   4.354   0.611  0.1948  0.8898  0.3443
10918TIP3    H154169   2.268   4.387   0.541  1.2769  1.1878  1.3320
10918TIP3    H254170   2.244   4.396   0.690 -0.8782  0.3995  1.0667
10919TIP3   OH254171   0.534   1.073  13.423  0.8488 -0.0965  0.7853
10919TIP3    H154172   0.472   1.001  13.414  0.2988  0.4970 -0.5383
10919TIP3    H254173   0.556   1.075  13.516  0.2197 -1.4168  0.9857
10920TIP3   OH254174   2.244   6.133  15.902 -0.1243 -0.1380  0.3849
10920TIP3    H154175   2.279   6.064  15.959 -2.4969 -1.2274  0.6534
10920TIP3    H254176   2.188   6.086  15.839 -0.0865  1.3575 -0.8316
10921TIP3   OH254177   0.072   2.835  14.657 -0.7291  0.2290  0.4979
10921TIP3    H154178   0.105   2.914  14.614 -1.3288  0.2153 -0.0004
10921TIP3    H254179   0.149   2.798  14.700  0.0681 -0.1134 -1.1407
10922TIP3   OH254180   6.420   1.004  16.426  0.4104  0.0080  0.0440
10922TIP3    H154181   6.450   1.094  16.438 -1.6665  0.8148 -0.3522
10922TIP3    H254182   6.417   0.992  16.331 -0.4701 -0.0284  0.0638
10923TIP3   OH254183   4.395   4.766  14.896  0.1070  0.2202 -0.5960
10923TIP3    H154184   4.449   4.756  14.818  0.3379  1.2143 -0.5828
10923TIP3    H254185   4.305   4.760  14.864  0.1570  2.0850 -1.2047
10924TIP3   OH254186   1.111   2.534  14.913 -0.6062  0.2184 -0.0042
10924TIP3    H154187   1.088   2.443  14.931 -1.3746  0.2378 -0.8384
10924TIP3    H254188   1.037   2.585  14.946 -0.9052  0.4223 -0.9643
10925TIP3   OH254189   1.380   4.037  16.447  0.6931 -0.1441 -0.8193
10925TIP3    H154190   1.332   3.969  16.400  0.0484  0.1264 -0.5593
10925TIP3    H254191   1.458   3.992  16.481 -1.4140 -1.7179  2.4564
10926TIP3   OH254192   4.862   0.950   5.713  0.6354  0.3577 -0.1909
10926TIP3    H154193   4.878   0.929   5.621 -2.0314  0.1311 -0.6822
10926TIP3    H254194   4.916   1.028   5.729  0.6254  0.8400 -2.1681
10927TIP3   OH254195   1.852   6.061  13.824 -0.0649  0.7609  0.7033
10927TIP3    H154196   1.913   5.989  13.842 -0.1232  0.5466  0.0501
10927TIP3    H254197   1.862   6.079  13.731  0.0165  1.6665  0.8735
10928TIP3   OH254198   2.322   2.953   3.069 -0.0124  0.5288  0.0633
10928TIP3    H154199   2.329   2.961   2.973  0.6964 -0.1293  0.0487
10928TIP3    H254200   2.231   2.928   3.084  0.0018  0.1342 -0.4782
10929TIP3   OH254201   3.250   1.688   0.896 -0.1879  0.0091  0.1717
10929TIP3    H154202   3.260   1.758   0.831  1.3933 -2.4688 -2.5051
10929TIP3    H254203   3.322   1.702   0.957 -0.0842  0.8754 -0.1254
10930TIP3   OH254204   4.526   0.866  13.473 -0.6993 -0.2114 -0.1172
10930TIP3    H154205   4.607   0.819  13.489 -0.3187  0.4783  0.0288
10930TIP3    H254206   4.457   0.799  13.481 -0.1761 -0.7360  0.0708
10931TIP3   OH254207   5.731   6.381   2.725 -0.0146  0.6238  0.0020
10931TIP3    H154208   5.811   6.397   2.775  0.0081  0.8675 -0.1114
10931TIP3    H254209   5.696   6.468   2.707 -0.0078  0.5397 -0.4306
10932TIP3   OH254210   4.404   5.931  15.023  0.0234 -0.3884  0.2223
10932TIP3    H154211   4.341   5.883  14.969 -0.8267 -0.4132  1.2112
10932TIP3    H254212   4.352   5.970  15.093  0.8325  1.1830  0.0084
10933TIP3   OH254213   4.374   5.630  13.485  0.6063 -0.1895 -0.2592
10933TIP3    H154214   4.317   5.624  13.409  1.2401  0.6804 -0.8198
10933TIP3    H254215   4.332   5.574  13.551 -0.8238  0.3217 -0.6957
10934TIP3   OH254216   2.957   2.505   1.711  0.3845  0.3483  0.7483
10934TIP3    H154217   2.893   2.441   1.744  1.0155 -0.0889  1.1304
10934TIP3    H254218   3.032   2.452   1.684  0.1678  0.7506 -0.7642
10935TIP3   OH254219   1.381   0.440   1.485 -0.1269  0.2541  0.3009
10935TIP3    H154220   1.423   0.527   1.485  0.2141  0.1175 -0.9320
10935TIP3    H254221   1.364   0.421   1.577  0.7659  1.1760  0.6774
10936TIP3   OH254222   3.570   0.963  12.019  0.0517 -0.2770  0.3027
10936TIP3    H154223   3.545   1.055  12.030  1.1550  0.1175 -0.3104
10936TIP3    H254224   3.492   0.921  11.983  0.2314  0.9252 -1.6337
10937TIP3   OH254225   0.561   6.327  12.054  0.4597 -0.3629 -0.2676
10937TIP3    H154226   0.564   6.298  11.963 -1.0151  0.4027 -0.5871
10937TIP3    H254227   0.571   6.422  12.049 -2.7476  0.0879  0.0457
10938TIP3   OH254228   4.274   4.631   0.229  0.6691 -0.4063 -0.2933
10938TIP3    H154229   4.259   4.536   0.230  0.5639 -0.3872  0.5088
10938TIP3    H254230   4.358   4.641   0.185 -1.2042 -0.5635 -4.3158
10939TIP3   OH254231   4.510   6.376   2.264  0.2508 -0.2202  0.1526
10939TIP3    H154232   4.549   6.434   2.198  1.3275  0.0683  1.0138
10939TIP3    H254233   4.539   6.289   2.238 -2.2177 -0.5956 -1.7482
10940TIP3   OH254234   5.577   4.007   5.071 -0.1575 -0.5125 -0.1773
10940TIP3    H154235   5.497   3.998   5.019 -0.2472 -3.0745  0.2758
10940TIP3    H254236   5.648   3.992   5.008  0.0842  1.9374 -0.6191
10941TIP3   OH254237   6.058   1.857   1.459  0.3310 -0.1215  0.7058
10941TIP3    H154238   6.049   1.922   1.389 -0.2213 -0.7878  0.1328
10941TIP3    H254239   5.974   1.859   1.504 -0.6325 -2.1261 -0.8580
10942TIP3   OH254240   2.252   6.744   4.791 -0.3380 -0.2041 -0.4122
10942TIP3    H154241   2.223   6.675   4.850  1.2540 -0.3389  0.2497
10942TIP3    H254242   2.191   6.739   4.717 -0.3221 -2.2455 -0.3408
10943TIP3   OH254243   1.711   1.425   5.646  0.4508  0.8437  0.5453
10943TIP3    H154244   1.766   1.407   5.722  1.4657 -0.0581 -0.3569
10943TIP3    H254245   1.674   1.340   5.623 -0.4943  1.2575  0.5111
10944TIP3   OH254246   2.405   3.446  13.736 -0.4559 -0.1190  0.1759
10944TIP3    H154247   2.330   3.484  13.691 -1.0227 -1.1007  0.2502
10944TIP3    H254248   2.452   3.397  13.668 -0.2020  0.0318  0.2432
10945TIP3   OH254249   4.235   0.033  14.003  0.1204 -0.9133 -0.1581
10945TIP3    H154250   4.176   0.092  14.052 -1.2521 -0.4675 -2.2112
10945TIP3    H254251   4.319   0.040  14.049 -1.0402 -0.4767  2.0554
10946TIP3   OH254252   4.773   0.578   3.911 -0.3184  0.0955  0.5818
10946TIP3    H154253   4.752   0.642   3.979  0.1894  1.5349 -0.5580
10946TIP3    H254254   4.696   0.522   3.905 -0.8201  0.6625  1.5319
10947TIP3   OH254255   3.246   2.936   3.522 -0.3149  0.2617 -0.2399
10947TIP3    H154256   3.228   2.890   3.604 -1.7544 -0.4706 -0.9209
10947TIP3    H254257   3.335   2.970   3.532  0.6654 -2.2806  0.4909
10948TIP3   OH254258   6.068   5.431  16.817 -0.1284  0.0460  0.2526
10948TIP3    H154259   6.085   5.420  16.910  0.6260  0.9341  0.2385
10948TIP3    H254260   6.026   5.349  16.790  0.4231 -0.5646  1.1895
10949TIP3   OH254261   3.630   3.756   2.913  0.0198  0.0994  0.3706
10949TIP3    H154262   3.720   3.727   2.929  0.2182  0.2405 -0.4730
10949TIP3    H254263   3.605   3.801   2.994  0.8048  0.3197  0.4961
10950TIP3   OH254264   3.186   6.336   1.960 -0.0705  0.9079 -0.2445
10950TIP3    H154265   3.230   6.310   2.041 -0.2316  0.4561 -0.2997
10950TIP3    H254266   3.097   6.302   1.970 -0.9799  3.2978  0.6386
10951TIP3   OH254267   0.805   4.023  14.330  0.7019  0.2119  0.0695
10951TIP3    H154268   0.849   3.939  14.339 -0.6005 -0.4184  0.9194
10951TIP3    H254269   0.771   4.023  14.240 -0.3903 -0.7659  0.4538
10952TIP3   OH254270   5.734   0.185  15.590 -0.8031  0.6929 -0.3473
10952TIP3    H154271   5.669   0.130  15.546  0.0845 -0.5954 -0.1271
10952TIP3    H254272   5.775   0.236  15.519  0.7059 -1.4519 -1.1512
10953TIP3   OH254273   3.354   0.601  14.279 -0.3150  0.4980  0.4330
10953TIP3    H154274   3.403   0.682  14.268  0.7607  0.1313  2.1127
10953TIP3    H254275   3.418   0.539  14.314 -1.4470 -0.6797  0.4996
10954TIP3   OH254276   4.646   6.327   5.301  0.2818 -0.0526  0.0251
10954TIP3    H154277   4.630   6.307   5.393 -1.3080 -0.8795 -0.3909
10954TIP3    H254278   4.741   6.321   5.291  1.0303  4.1168  2.4765
10955TIP3   OH254279   4.371   4.471   5.416  0.2995 -0.3210  0.1363
10955TIP3    H154280   4.331   4.555   5.393 -1.1773 -1.2624 -0.8985
10955TIP3    H254281   4.430   4.492   5.488  0.2986  1.6762 -0.3799
10956TIP3   OH254282   5.744   6.270  13.022  0.0074 -0.4492  0.0816
10956TIP3    H154283   5.716   6.292  13.111  0.2058 -1.5436  0.4267
10956TIP3    H254284   5.667   6.289  12.968 -1.1035 -2.3864  0.8658
10957TIP3   OH254285   4.055   2.943  12.476 -0.0148  0.0012  0.5489
10957TIP3    H154286   4.005   3.021  12.449 -0.2753 -0.4521 -0.3437
10957TIP3    H254287   4.003   2.869  12.443 -0.5519 -0.6307  2.6961
10958TIP3   OH254288   3.928   5.274  13.429  0.2749  0.1118 -0.1792
10958TIP3    H154289   3.976   5.355  13.409  1.5727 -0.8569 -1.1589
10958TIP3    H254290   3.868   5.262  13.356  0.7666 -0.3066 -0.5175
10959TIP3   OH254291   4.098   4.496   4.672 -0.8662  0.3275 -0.2806
10959TIP3    H154292   4.091   4.458   4.759 -1.1060 -1.4105 -1.0299
10959TIP3    H254293   4.012   4.533   4.655 -0.5664  1.4777  0.5384
10960TIP3   OH254294   1.445   0.164  12.534 -0.5657  0.1220 -0.2205
10960TIP3    H154295   1.423   0.152  12.441 -2.1901  0.2159  0.1095
10960TIP3    H254296   1.388   0.236  12.562  0.0533  0.2233  0.8058
10961TIP3   OH254297   5.612   3.623   4.591  0.5295  0.8072  0.6536
10961TIP3    H154298   5.664   3.582   4.660  1.1573 -0.1858 -0.3831
10961TIP3    H254299   5.662   3.610   4.511 -1.6189 -0.8659 -0.5247
10962TIP3   OH254300   5.453   6.067  12.320 -0.3057  0.1244 -1.0910
10962TIP3    H154301   5.414   6.005  12.382 -0.4234 -1.4528 -2.6378
10962TIP3    H254302   5.480   6.141  12.374 -2.2833 -0.2282  0.5332
10963TIP3   OH254303   2.733   6.506  13.461  0.2945  0.4354  0.4490
10963TIP3    H154304   2.783   6.477  13.537  0.9467  1.7883  0.5576
10963TIP3    H254305   2.788   6.483  13.386  0.6435  1.0497  0.5139
10964TIP3   OH254306   4.415   0.857  15.788 -0.2911  0.1045  0.0158
10964TIP3    H154307   4.397   0.950  15.804  0.1273  0.3054 -0.6328
10964TIP3    H254308   4.409   0.848  15.693  2.2580  0.0430 -0.2113
10965TIP3   OH254309   1.506   5.534   0.241 -0.0444  0.4910  0.6579
10965TIP3    H154310   1.425   5.584   0.250 -1.0846 -1.3145  1.8717
10965TIP3    H254311   1.548   5.571   0.164 -2.1812  1.2989 -0.1961
10966TIP3   OH254312   1.584   0.755  15.770  0.1675 -0.2732  0.1002
10966TIP3    H154313   1.566   0.731  15.679 -0.3447  1.4779 -0.3042
10966TIP3    H254314   1.523   0.827  15.789  2.9717  2.2581  0.4313
10967TIP3   OH254315   5.426   5.629   5.504  0.1483  0.0649  0.0590
10967TIP3    H154316   5.412   5.640   5.598 -1.1561 -0.5690 -0.0329
10967TIP3    H254317   5.350   5.671   5.463  0.7883  0.4879 -0.7326
10968TIP3   OH254318   6.037   3.791  15.245  0.0183  0.6164  0.2894
10968TIP3    H154319   5.989   3.802  15.163  1.0996  1.5071 -0.2504
10968TIP3    H254320   5.985   3.728  15.295 -0.2283 -0.6006 -1.4149
10969TIP3   OH254321   6.546   6.696   0.864 -1.0510  0.2205 -0.2139
10969TIP3    H154322   6.501   6.654   0.790 -0.0024 -0.7218 -0.3551
10969TIP3    H254323   6.625   6.643   0.876 -1.2418  0.3080  1.6404
10970TIP3   OH254324   0.815   3.315  14.666 -0.1196  0.2107  0.0945
10970TIP3    H154325   0.779   3.232  14.698 -1.9352  0.3960 -1.2874
10970TIP3    H254326   0.836   3.298  14.574  1.2867  0.7790  0.2826
10971TIP3   OH254327   1.232   4.502   4.109  0.1944 -0.1712 -0.3271
10971TIP3    H154328   1.266   4.538   4.027  0.5925  0.9993  0.3328
10971TIP3    H254329   1.297   4.527   4.174 -0.0622 -1.1933  0.3373
10972TIP3   OH254330   5.002   3.141  15.729  0.1823 -0.7120  0.1044
10972TIP3    H154331   5.027   3.093  15.808  0.8000  0.4136  0.6129
10972TIP3    H254332   5.084   3.172  15.692 -0.2189  0.2027 -0.0531
10973TIP3   OH254333   0.385   4.776  16.214  0.1092 -1.4359  0.7788
10973TIP3    H154334   0.462   4.802  16.164 -2.0487 -1.0262 -2.6010
10973TIP3    H254335   0.380   4.841  16.284  2.3650 -1.0384  0.6559
10974TIP3   OH254336   1.726   2.508  13.575  0.1913  0.2159 -0.0108
10974TIP3    H154337   1.658   2.508  13.508 -1.2124 -0.3447  1.3658
10974TIP3    H254338   1.712   2.427  13.623 -0.5640  1.7823  2.6209
10975TIP3   OH254339   5.430   3.051  15.173 -0.0353  0.0736 -0.0698
10975TIP3    H154340   5.452   3.033  15.265 -2.2911  0.0436  0.5078
10975TIP3    H254341   5.392   3.138  15.174 -0.0086  0.1011 -1.0078
10976TIP3   OH254342   2.206   6.281  15.166  0.0852 -0.1438 -0.1626
10976TIP3    H154343   2.255   6.286  15.248  0.8486  1.8425 -0.6957
10976TIP3    H254344   2.273   6.286  15.098 -0.7426  1.1929 -0.9092
10977TIP3   OH254345   3.880   0.125  12.466 -0.1926  0.4065 -0.8295
10977TIP3    H154346   3.845   0.093  12.383  0.8762 -2.2357 -0.3636
10977TIP3    H254347   3.952   0.182  12.442 -0.7725  0.7871 -1.7113
10978TIP3   OH254348   1.633   0.147   3.306 -0.2079 -0.0772  0.1500
10978TIP3    H154349   1.627   0.088   3.381  1.3700 -0.0637  0.3310
10978TIP3    H254350   1.599   0.097   3.232  1.4213 -1.3848  0.2330
10979TIP3   OH254351   6.109   1.150   6.156 -0.2871  0.4703 -0.6191
10979TIP3    H154352   6.134   1.063   6.186 -1.6921  0.3619  0.2972
10979TIP3    H254353   6.176   1.208   6.192 -1.7558  0.3279  2.7295
10980TIP3   OH254354   6.609   2.714  11.896 -0.4552  0.5621 -0.2733
10980TIP3    H154355   6.598   2.787  11.958  0.1714  1.0481 -0.7274
10980TIP3    H254356   6.612   2.756  11.810  1.8406  0.2146 -0.4187
10981TIP3   OH254357   1.180   3.156   3.037  0.2596  0.0591 -0.0345
10981TIP3    H154358   1.175   3.247   3.011  2.0895 -0.0644 -1.0125
10981TIP3    H254359   1.231   3.157   3.118 -0.4635 -0.0353  0.4282
10982TIP3   OH254360   3.019   6.529  11.898 -0.5324 -0.8660  0.3643
10982TIP3    H154361   3.107   6.494  11.914  0.2213 -0.2002 -1.9272
10982TIP3    H254362   3.029   6.624  11.907 -0.7767 -0.7158 -0.7796
10983TIP3   OH254363   1.080   1.619  12.072  0.1220  0.3325  0.2143
10983TIP3    H154364   1.094   1.692  12.132  0.8246  0.4146 -0.0386
10983TIP3    H254365   1.094   1.540  12.126  0.8608  0.4063  0.1493
10984TIP3   OH254366   6.147   0.810   2.113 -0.9939 -0.0234  0.0971
10984TIP3    H154367   6.146   0.781   2.022 -0.6353  1.2326 -0.3214
10984TIP3    H254368   6.157   0.729   2.163  1.1297 -0.5706 -1.0798
10985TIP3   OH254369   4.179   6.095   3.776  0.3903  0.5761 -0.7718
10985TIP3    H154370   4.087   6.087   3.801  1.0175 -1.9378  1.1892
10985TIP3    H254371   4.206   6.180   3.811 -0.4575 -0.0097  1.4390
10986TIP3   OH254372   2.760   1.172   0.197  0.0125  0.1709 -0.1512
10986TIP3    H154373   2.785   1.137   0.111  0.7031  1.5118 -0.5145
10986TIP3    H254374   2.843   1.187   0.242 -0.3385 -0.3295  0.6978
10987TIP3   OH254375   3.315   2.782  14.334  0.6142  0.4461 -0.3827
10987TIP3    H154376   3.294   2.789  14.241 -0.3009  0.4681 -0.1840
10987TIP3    H254377   3.387   2.719  14.338  0.9301  0.7522 -1.1356
10988TIP3   OH254378   0.963   1.450   6.222  0.3000  0.2623 -0.4208
10988TIP3    H154379   0.910   1.490   6.153  1.0884 -0.6447 -1.5948
10988TIP3    H254380   1.043   1.501   6.225 -0.1583  0.9728  0.6201
10989TIP3   OH254381   1.552   1.904  15.806  0.3504 -0.0447  0.0595
10989TIP3    H154382   1.523   1.992  15.783  1.9653 -0.0460 -2.3103
10989TIP3    H254383   1.471   1.855  15.823 -0.5454  2.0291  2.3217
10990TIP3   OH254384   0.417   2.154  11.788  0.3452 -0.2809  0.4067
10990TIP3    H154385   0.334   2.107  11.794 -0.1639  0.5720  0.1739
10990TIP3    H254386   0.484   2.086  11.800 -0.2984 -1.5155 -2.1434
10991TIP3   OH254387   5.655   2.123  10.606 -0.5568  0.0872 -0.7320
10991TIP3    H154388   5.674   2.211  10.639  0.9812 -1.6022  3.5639
10991TIP3    H254389   5.727   2.104  10.546  0.1424  1.0681 -0.2334
10992TIP3   OH254390   3.068   0.458   1.359  0.6510 -0.3831 -0.1342
10992TIP3    H154391   3.005   0.467   1.287  0.7088  1.3896  0.0021
10992TIP3    H254392   3.015   0.465   1.438  0.8389 -0.3406 -0.0107
10993TIP3   OH254393   2.952   6.744   3.160 -0.0966 -0.8242 -0.0512
10993TIP3    H154394   3.030   6.731   3.105 -0.0626 -1.7179  0.2049
10993TIP3    H254395   2.890   6.677   3.131 -0.1748 -1.1415  0.8251
10994TIP3   OH254396   2.561   2.058   5.827 -0.0026  0.7622 -0.7543
10994TIP3    H154397   2.583   2.058   5.733  1.1606  1.3185 -0.5015
10994TIP3    H254398   2.632   2.106   5.868 -0.7225  0.8934  0.3822
10995TIP3   OH254399   6.356   1.361  16.160 -0.3011 -0.5209 -0.1687
10995TIP3    H154400   6.352   1.389  16.069 -1.0693 -0.7104 -0.2025
10995TIP3    H254401   6.433   1.305  16.165 -0.3477 -0.6443 -0.7441
10996TIP3   OH254402   3.122   2.854   2.073  0.0821  0.1712  0.2723
10996TIP3    H154403   3.093   2.920   2.135 -1.1560 -2.7068  3.0194
10996TIP3    H254404   3.047   2.839   2.016 -0.3452 -0.2222  0.9277
10997TIP3   OH254405   4.758   5.316  15.049 -0.0680 -0.0644  0.0512
10997TIP3    H154406   4.694   5.262  15.095  1.7719 -1.5511  0.9937
10997TIP3    H254407   4.772   5.391  15.108 -1.7220  0.8670 -0.6888
10998TIP3   OH254408   5.395   4.293   1.018  0.0442 -0.0167 -0.0523
10998TIP3    H154409   5.402   4.386   1.040  0.0164 -0.1479  0.5296
10998TIP3    H254410   5.318   4.287   0.961  0.9569  0.5396 -1.3949
10999TIP3   OH254411   6.533   2.829  16.718 -0.1443  0.1874  0.3300
10999TIP3    H154412   6.628   2.828  16.706 -0.0461  1.3578  0.8206
10999TIP3    H254413   6.498   2.821  16.629  0.3689 -1.5181  0.2511
11000TIP3   OH254414   6.778   4.060   6.197  0.4684  0.1488 -0.4131
11000TIP3    H154415   6.800   4.076   6.288  0.3818  1.5390 -0.6114
11000TIP3    H254416   6.709   4.124   6.177  0.7195  0.1007 -1.5329
11001TIP3   OH254417   4.253   5.282  14.329  0.7144 -0.1792 -0.1404
11001TIP3    H154418   4.216   5.271  14.416 -1.0316 -1.7188 -0.9855
11001TIP3    H254419   4.184   5.253  14.270  1.7466  1.0633 -2.0635
11002TIP3   OH254420   5.908   3.596   3.672  0.2880  0.3490 -0.2432
11002TIP3    H154421   5.859   3.593   3.755  1.2405  1.2749  0.3892
11002TIP3    H254422   5.913   3.690   3.651  1.6562  0.2791 -0.3378
11003TIP3   OH254423   4.431   1.060  15.296  0.4303 -0.2460  0.2286
11003TIP3    H154424   4.470   1.088  15.379 -3.3409  1.4473  1.6446
11003TIP3    H254425   4.476   1.113  15.230  0.2989  1.9481  1.7822
11004TIP3   OH254426   0.392   2.854  16.231 -0.0942  0.3857  0.3332
11004TIP3    H154427   0.446   2.777  16.214 -1.6859 -1.2358  2.2413
11004TIP3    H254428   0.347   2.870  16.148 -1.0956 -1.8823  0.3879
11005TIP3   OH254429   4.125   5.958  12.450  0.6666 -0.5923  0.7610
11005TIP3    H154430   4.175   5.893  12.501  2.1189 -0.9191 -0.9818
11005TIP3    H254431   4.161   5.952  12.362 -0.4591  1.2982  0.1155
11006TIP3   OH254432   2.371   4.018  15.983 -0.6880 -0.0127  0.0880
11006TIP3    H154433   2.393   4.084  16.050  0.7360  0.4987 -0.8165
11006TIP3    H254434   2.405   3.936  16.019 -0.8201  0.0781  0.4272
11007TIP3   OH254435   2.149   3.934  12.671  0.2197 -0.3725 -0.2943
11007TIP3    H154436   2.118   3.843  12.675 -0.6533 -0.1775 -1.7610
11007TIP3    H254437   2.090   3.981  12.731  1.3334 -0.9070  1.2764
11008TIP3   OH254438   6.337   2.408   6.099 -0.1246  0.1489  0.1362
11008TIP3    H154439   6.382   2.374   6.176 -2.4322 -0.7385  1.2020
11008TIP3    H254440   6.398   2.395   6.027  0.3725 -3.4589  1.0168
11009TIP3   OH254441   2.646   3.041   4.426  0.1062  0.0870 -0.2884
11009TIP3    H154442   2.715   3.105   4.407 -0.9501  0.9148 -1.5297
11009TIP3    H254443   2.686   2.956   4.405  0.9059  0.5096 -0.5171
11010TIP3   OH254444   0.033   1.200   2.323  0.0467  0.1399 -0.1908
11010TIP3    H154445  -0.038   1.214   2.386 -0.2643  0.5490 -0.6252
11010TIP3    H254446   0.043   1.285   2.280  0.8108  0.0878 -0.1290
11011TIP3   OH254447   6.297   3.450   3.901  0.5340 -0.1408  0.2501
11011TIP3    H154448   6.239   3.375   3.900 -0.6328  0.7090 -1.5742
11011TIP3    H254449   6.299   3.481   3.811  2.2215  1.0955  0.6408
11012TIP3   OH254450   1.425   2.053   2.488 -0.3043 -0.5121 -0.6413
11012TIP3    H154451   1.479   2.129   2.467  0.3314 -0.1081  2.1040
11012TIP3    H254452   1.486   1.987   2.520 -1.1908 -0.8345  0.4605
11013TIP3   OH254453   0.445   3.141   1.726  0.1961 -0.1592  0.0844
11013TIP3    H154454   0.457   3.057   1.771 -0.1714 -1.0255 -1.3532
11013TIP3    H254455   0.368   3.128   1.671  0.1606  1.1136 -0.1979
11014TIP3   OH254456   0.768   3.230   5.981  0.1052 -0.0117 -0.4670
11014TIP3    H154457   0.764   3.135   5.976 -0.3197 -0.0484  0.4679
11014TIP3    H254458   0.681   3.260   5.954  0.1665  0.0979 -0.5456
11015TIP3   OH254459   1.107   1.023   5.843  0.3508  0.0239 -0.6089
11015TIP3    H154460   1.106   0.969   5.923  2.3114  2.2148  1.0273
11015TIP3    H254461   1.061   1.103   5.869  0.3418  0.4695 -1.9476
11016TIP3   OH254462   1.184   1.959  13.290  0.4033  0.3085 -0.4717
11016TIP3    H154463   1.158   1.871  13.261  1.4136  0.1452 -0.9121
11016TIP3    H254464   1.229   1.944  13.373 -0.2470  0.5216 -0.0677
11017TIP3   OH254465   2.045   4.527  15.871  0.4503 -0.2218  0.1188
11017TIP3    H154466   2.012   4.482  15.948  0.6711  2.3731  1.8727
11017TIP3    H254467   2.101   4.462  15.827  0.0644 -1.8804  1.9502
11018TIP3   OH254468   5.174   5.810   0.632  0.2656 -0.1442  0.2570
11018TIP3    H154469   5.093   5.809   0.581 -0.5432  1.2426  1.4359
11018TIP3    H254470   5.176   5.725   0.676 -0.9745  0.0913  0.8082
11019TIP3   OH254471   4.156   4.286   2.734 -0.1962  0.5606 -0.0977
11019TIP3    H154472   4.168   4.194   2.758 -1.4639  0.9346  2.2877
11019TIP3    H254473   4.237   4.329   2.761 -0.4480  0.4629  0.8592
11020TIP3   OH254474   3.282   5.575   3.591 -0.3323  0.5701  0.5839
11020TIP3    H154475   3.198   5.529   3.598  0.0805 -0.0834  1.3277
11020TIP3    H254476   3.268   5.638   3.520 -1.8426  1.3346  1.5152
11021TIP3   OH254477   4.765   3.982   0.417 -0.4824 -0.3454 -0.1784
11021TIP3    H154478   4.681   4.015   0.385 -0.7911 -0.0711  0.8952
11021TIP3    H254479   4.751   3.888   0.429 -0.6158 -0.3083 -0.0481
11022TIP3   OH254480   5.617   6.131  16.464  0.2204 -0.0214 -0.1544
11022TIP3    H154481   5.569   6.152  16.383 -1.1692  0.0935  0.6610
11022TIP3    H254482   5.616   6.035  16.468  1.2818 -0.0751 -0.8237
11023TIP3   OH254483   1.190   4.782  14.616  0.4779 -0.3140 -0.1063
11023TIP3    H154484   1.163   4.703  14.663  0.2429 -0.1383  0.0575
11023TIP3    H254485   1.234   4.835  14.682 -1.6836  0.8729  0.4844
11024TIP3   OH254486   3.140   6.087  12.377  0.1816  0.3401  0.3277
11024TIP3    H154487   3.078   6.019  12.353  0.2743  1.1588 -2.5658
11024TIP3    H254488   3.086   6.160  12.408 -0.1366  0.2207  0.0441
11025TIP3   OH254489   4.336   1.164   1.220  0.1587  0.4469  0.2475
11025TIP3    H154490   4.393   1.240   1.232  0.6446  0.4306 -1.6380
11025TIP3    H254491   4.395   1.089   1.230  0.5214  0.4291 -1.6143
11026TIP3   OH254492   5.322   5.839   0.406  0.1756  0.5811  0.5907
11026TIP3    H154493   5.266   5.837   0.484  1.5176  0.2371  1.5739
11026TIP3    H254494   5.328   5.748   0.379 -1.0526  0.7956 -0.5243
11027TIP3   OH254495   6.378   2.828   1.280  0.1805 -0.1654 -0.1466
11027TIP3    H154496   6.303   2.879   1.250  0.7914  1.0017  0.2727
11027TIP3    H254497   6.379   2.840   1.375  0.4118 -0.8719 -0.0496
11028TIP3   OH254498   3.329   4.254  14.527 -0.3338  0.8154 -0.0438
11028TIP3    H154499   3.243   4.269  14.566  0.2820  1.1377  1.2433
11028TIP3    H254500   3.373   4.195  14.588  0.2884  0.5043 -0.7878
11029TIP3   OH254501   1.653   3.698  12.468  0.0802  0.2791  0.8816
11029TIP3    H154502   1.645   3.607  12.499  1.0621 -0.2588 -0.3552
11029TIP3    H254503   1.705   3.742  12.535 -1.6046  0.3360  2.2154
11030TIP3   OH254504   1.954   6.066  11.771  0.1605  0.0044 -0.0396
11030TIP3    H154505   2.012   6.041  11.843 -2.6940  1.5608  3.0683
11030TIP3    H254506   2.013   6.102  11.704  3.0927 -2.7821  0.7992
11031TIP3   OH254507   6.343   4.327  13.318 -0.0423  1.0936  0.0127
11031TIP3    H154508   6.386   4.333  13.232 -0.3312 -1.0230 -0.3348
11031TIP3    H254509   6.399   4.268  13.368 -1.7642 -0.6027  0.0267
11032TIP3   OH254510   3.888   0.775   4.235 -0.2384 -0.0502 -0.1844
11032TIP3    H154511   3.840   0.856   4.218  1.1584  0.5758 -1.3987
11032TIP3    H254512   3.931   0.790   4.319  0.8961  0.9540 -0.9099
11033TIP3   OH254513   6.195   3.673  13.056  0.0507 -0.1460 -0.0694
11033TIP3    H154514   6.213   3.635  12.970  1.5026  0.6533 -0.1485
11033TIP3    H254515   6.159   3.760  13.037  1.9531  0.7239  0.0851
11034TIP3   OH254516   2.342   4.275  13.590  0.4686 -0.2336 -0.0874
11034TIP3    H154517   2.293   4.246  13.667 -2.0727  2.6017 -0.4314
11034TIP3    H254518   2.307   4.223  13.518  1.5567 -1.6208  0.3441
11035TIP3   OH254519   5.512   4.055  12.510  0.4001 -0.3225 -0.2451
11035TIP3    H154520   5.574   4.105  12.457 -2.0908  0.8361 -2.3124
11035TIP3    H254521   5.537   4.074  12.600  0.8604  3.1282 -0.9389
11036TIP3   OH254522   4.018   5.557  16.616 -0.4973 -0.3497 -0.7916
11036TIP3    H154523   4.036   5.467  16.588 -0.2849 -0.7257  0.4659
11036TIP3    H254524   4.103   5.601  16.610 -0.4690 -0.4068 -0.8142
11037TIP3   OH254525   1.994   0.472  13.205  0.3542 -0.1757 -0.0163
11037TIP3    H154526   2.047   0.403  13.166 -0.8926  0.0497 -2.2461
11037TIP3    H254527   1.905   0.436  13.209 -0.0591  0.7956  0.0733
11038TIP3   OH254528   1.003   4.521   0.535 -0.3301  0.4796  0.3048
11038TIP3    H154529   1.028   4.605   0.497 -1.0514  0.5072 -0.1162
11038TIP3    H254530   1.066   4.458   0.499 -0.6837  0.5939 -0.5228
11039TIP3   OH254531   5.888   5.466  11.991  0.3273 -0.1019 -0.3194
11039TIP3    H154532   5.910   5.382  11.951 -0.9785 -1.2969  1.3083
11039TIP3    H254533   5.817   5.445  12.053  0.0984  2.1693  0.2721
11040TIP3   OH254534   5.468   4.598   1.417 -0.5409  0.4206 -0.0681
11040TIP3    H154535   5.491   4.683   1.381  0.4659  0.3881  0.4533
11040TIP3    H254536   5.456   4.542   1.340  1.2587  0.4281 -0.4130
11041TIP3   OH254537   6.425   4.174  16.529 -0.5133  0.1156  0.6091
11041TIP3    H154538   6.411   4.109  16.460 -2.9545  0.8851  0.2871
11041TIP3    H254539   6.489   4.235  16.493  1.0434 -1.4696  0.5250
11042TIP3   OH254540   2.214   5.269   2.992  0.1944 -0.1788 -0.4044
11042TIP3    H154541   2.233   5.348   2.941  2.0140  0.7819  1.5548
11042TIP3    H254542   2.128   5.285   3.030 -0.0270  0.2848 -1.0904
11043TIP3   OH254543   4.236   1.315   6.035 -0.3184 -0.3049  0.4313
11043TIP3    H154544   4.242   1.410   6.022  1.7730 -0.6176 -1.4977
11043TIP3    H254545   4.206   1.305   6.125 -1.8557  2.1636  0.2815
11044TIP3   OH254546   6.311   5.151   3.251  0.0737 -0.4457  0.4632
11044TIP3    H154547   6.258   5.226   3.223 -2.4829 -1.3523  2.4765
11044TIP3    H254548   6.392   5.189   3.283 -0.5814  1.3472  0.0953
11045TIP3   OH254549   2.401   0.262  16.333 -0.6296 -0.3291  0.2131
11045TIP3    H154550   2.380   0.331  16.396  0.5108  0.5446 -0.3232
11045TIP3    H254551   2.347   0.282  16.257  0.2468  0.4434 -0.2265
11046TIP3   OH254552   2.103   5.894   5.890 -0.5557 -0.4215  0.0605
11046TIP3    H154553   2.095   5.933   5.803  0.3466 -0.9684 -0.2902
11046TIP3    H254554   2.191   5.856   5.891  0.8356  2.4888  2.4325
11047TIP3   OH254555   6.108   0.653  13.931  0.2315 -0.3860  0.6755
11047TIP3    H154556   6.026   0.603  13.932  1.0887 -2.0023 -1.8232
11047TIP3    H254557   6.162   0.611  13.997 -0.0714 -0.9531  0.5750
11048TIP3   OH254558   2.571   5.834  14.572 -0.2919 -0.2343  0.9294
11048TIP3    H154559   2.555   5.803  14.483  0.9018  1.2964  0.1335
11048TIP3    H254560   2.559   5.756  14.627 -1.2045 -1.1708 -0.5383
11049TIP3   OH254561   2.632   2.840  14.049  0.7133 -0.2291  0.1418
11049TIP3    H154562   2.637   2.811  14.140  0.1045  0.3185  0.3505
11049TIP3    H254563   2.586   2.924  14.052  2.4170  0.7765 -0.4617
11050TIP3   OH254564   5.871   2.176   0.775 -0.2237  0.6227 -0.1713
11050TIP3    H154565   5.821   2.237   0.720  0.4194 -1.0078 -2.7026
11050TIP3    H254566   5.936   2.139   0.717  2.7314  1.1386  2.5040
11051TIP3   OH254567   5.600   4.954  16.215  0.2363  0.0820 -0.2031
11051TIP3    H154568   5.673   4.892  16.214 -0.6902 -1.0225 -0.6970
11051TIP3    H254569   5.582   4.970  16.122  0.3614  0.9849 -0.0812
11052TIP3   OH254570   3.207   4.064  14.237 -0.1241 -0.0537 -0.3827
11052TIP3    H154571   3.189   4.150  14.200 -0.2831  0.0508 -0.0612
11052TIP3    H254572   3.178   4.002  14.169  1.0947  0.1488 -1.1304
11053TIP3   OH254573   3.959   3.780   2.637 -0.1470  0.8510 -0.5978
11053TIP3    H154574   3.911   3.812   2.561  0.4166  0.2539 -1.2234
11053TIP3    H254575   3.979   3.688   2.616 -0.3917  0.5399  0.4752
11054TIP3   OH254576   1.237   3.835   3.549  0.1677 -0.0848 -0.0778
11054TIP3    H154577   1.200   3.861   3.633  0.2056  0.9525 -0.3647
11054TIP3    H254578   1.298   3.905   3.527 -0.3603  0.0299 -1.2931
11055TIP3   OH254579   5.302   3.435   2.989 -0.3446  0.2091  0.2053
11055TIP3    H154580   5.396   3.422   2.995 -0.5689 -0.9394  1.6580
11055TIP3    H254581   5.281   3.420   2.896  0.9474  1.0314 -0.2419
11056TIP3   OH254582   0.622   0.710  13.530  0.3709  0.1796  0.1472
11056TIP3    H154583   0.643   0.800  13.555 -1.4959  0.6646  0.1230
11056TIP3    H254584   0.608   0.714  13.435 -0.6584  0.0843  0.2840
11057TIP3   OH254585   0.756   6.282   4.530  0.3136 -0.2067  0.6245
11057TIP3    H154586   0.756   6.211   4.466 -0.7483  0.6613 -0.3748
11057TIP3    H254587   0.689   6.257   4.594 -0.2932  0.0384  0.0930
11058TIP3   OH254588   0.087   4.301   4.442  0.1850 -0.9323  0.5030
11058TIP3    H154589   0.090   4.391   4.474  2.1444  0.6262 -3.4097
11058TIP3    H254590   0.094   4.247   4.520  0.8492  2.3277  2.8880
11059TIP3   OH254591   0.037   2.236   1.252  0.2626 -0.4519  0.2204
11059TIP3    H154592   0.098   2.311   1.249 -1.7394  1.3786  1.8498
11059TIP3    H254593   0.060   2.190   1.333 -0.6065  0.4056  0.9883
11060TIP3   OH254594   4.812   5.438  11.328 -0.6167  0.1481 -0.0979
11060TIP3    H154595   4.748   5.480  11.386 -1.9430 -1.4272 -0.3347
11060TIP3    H254596   4.774   5.447  11.241  0.1937  0.4334 -0.4238
11061TIP3   OH254597   6.092   2.039  12.117 -0.3846 -0.5317  0.2664
11061TIP3    H154598   6.114   2.004  12.203  0.5052  1.5236  0.9395
11061TIP3    H254599   6.103   1.965  12.057  0.1172 -1.7027  1.7560
11062TIP3   OH254600   4.525   5.753   1.752  0.5409 -0.4505  0.6178
11062TIP3    H154601   4.494   5.833   1.795  1.6970 -0.1581  0.9515
11062TIP3    H254602   4.497   5.682   1.810  1.3165 -0.1251  1.4070
11063TIP3   OH254603   0.401   6.359  11.613 -0.1935 -0.6188 -0.7165
11063TIP3    H154604   0.342   6.433  11.595  0.0015 -0.5179 -0.9455
11063TIP3    H254605   0.468   6.365  11.546  1.9804  1.2551  1.4042
11064TIP3   OH254606   2.298   4.850  17.064 -0.7571 -0.0135  0.0452
11064TIP3    H154607   2.381   4.805  17.083  0.3296  0.6733 -2.6107
11064TIP3    H254608   2.275   4.820  16.976 -2.1456  1.5456 -0.1614
11065TIP3   OH254609   3.785   3.397   4.683 -0.3675  0.2603  0.6038
11065TIP3    H154610   3.816   3.457   4.750 -1.8103  1.4997  0.2179
11065TIP3    H254611   3.804   3.310   4.718  2.3942  0.9033  0.8741
11066TIP3   OH254612   2.094   1.579   5.238 -0.4188 -0.2587  0.1859
11066TIP3    H154613   2.079   1.558   5.330 -1.2363 -1.4482 -0.2082
11066TIP3    H254614   2.040   1.517   5.189  1.0115 -0.5265 -1.1436
11067TIP3   OH254615   4.978   0.032   2.391  0.6305 -0.4595  0.4160
11067TIP3    H154616   5.012   0.116   2.360  2.3247 -1.0674  0.5501
11067TIP3    H254617   4.922   0.055   2.466 -1.1050  0.7524 -1.1699
11068TIP3   OH254618   4.793   3.944   2.840 -0.0760  0.6579 -0.2641
11068TIP3    H154619   4.841   3.993   2.774  0.8600  0.2884  0.1261
11068TIP3    H254620   4.789   3.855   2.806  1.9233  0.0557  0.9118
11069TIP3   OH254621   0.602   0.818  16.264 -0.2125 -0.2756  0.4063
11069TIP3    H154622   0.523   0.773  16.233 -0.0596 -0.3378  0.1032
11069TIP3    H254623   0.673   0.757  16.245 -0.1921 -0.6647  1.6021
11070TIP3   OH254624   2.062   0.132   2.606 -0.1259 -0.4318 -0.0965
11070TIP3    H154625   2.068   0.056   2.662  1.5236 -1.3199 -1.4095
11070TIP3    H254626   2.020   0.100   2.526  0.1299  0.1627 -0.4783
11071TIP3   OH254627   1.199   0.068  12.718 -0.1808 -0.3340 -0.2124
11071TIP3    H154628   1.284   0.052  12.758  0.9180  0.7022 -1.9608
11071TIP3    H254629   1.184  -0.007  12.661  0.1636  0.0573 -0.8276
11072TIP3   OH254630   0.425   3.708   5.696  0.1117  0.0436 -0.6127
11072TIP3    H154631   0.390   3.630   5.739 -0.5730  0.7301  0.0974
11072TIP3    H254632   0.357   3.775   5.708  1.2402  1.1242 -0.0521
11073TIP3   OH254633   2.757   1.933   6.253  0.1448 -0.1226  0.2387
11073TIP3    H154634   2.766   2.015   6.303 -0.6828  0.2558 -0.2246
11073TIP3    H254635   2.666   1.932   6.224  0.8119  0.1237 -2.0584
11074TIP3   OH254636   0.050   2.350   3.257  0.3999 -0.1667  0.0002
11074TIP3    H154637  -0.041   2.346   3.288  0.1831 -0.4658 -0.6651
11074TIP3    H254638   0.043   2.368   3.163  1.0796  2.0668  0.3208
11075TIP3   OH254639   0.106   2.635  12.933 -0.0777  0.6908  0.8840
11075TIP3    H154640   0.175   2.573  12.956  0.0062  0.4606  0.0404
11075TIP3    H254641   0.150   2.701  12.879 -0.0768  1.7246  2.0896
11076TIP3   OH254642   4.568   2.244  11.964  0.3217  0.1884  0.2913
11076TIP3    H154643   4.578   2.336  11.987 -2.5321  0.6634  0.0387
11076TIP3    H254644   4.564   2.198  12.048  2.0088  0.2044  0.4146
11077TIP3   OH254645   0.891   4.177  15.298 -0.6246 -0.6579  0.4553
11077TIP3    H154646   0.986   4.173  15.284 -0.5390 -0.2975  0.9010
11077TIP3    H254647   0.856   4.211  15.215 -0.1317  1.3670  1.0206
11078TIP3   OH254648   3.597   3.436   5.270  0.4936  0.1635 -0.4828
11078TIP3    H154649   3.575   3.359   5.323 -0.3724  0.9911  0.3949
11078TIP3    H254650   3.572   3.511   5.324  1.2483  1.0819 -1.3470
11079TIP3   OH254651   1.914   5.593   5.563  0.0984 -0.4199 -0.3908
11079TIP3    H154652   1.991   5.650   5.555  0.4222 -0.7568  0.1722
11079TIP3    H254653   1.839   5.652   5.556  0.4260  0.3362  1.6044
11080TIP3   OH254654   2.404   5.990   0.956 -0.5397  0.4222 -0.1692
11080TIP3    H154655   2.457   6.065   0.928 -2.6109  1.9297 -0.2600
11080TIP3    H254656   2.397   5.999   1.051  0.4381 -0.5540  0.0176
11081TIP3   OH254657   4.579   4.441   4.048 -0.3104  0.2665 -0.3000
11081TIP3    H154658   4.495   4.442   4.095  0.1790  0.6126  0.5800
11081TIP3    H254659   4.627   4.516   4.082  0.2305  0.2659 -1.0449
11082TIP3   OH254660   3.172   2.246  15.962  0.5217 -0.1007  0.4071
11082TIP3    H154661   3.089   2.221  15.923  0.7066 -0.6395  0.3480
11082TIP3    H254662   3.156   2.333  16.000  0.4841  0.6873 -1.3118
11083TIP3   OH254663   1.432   0.277   2.107 -0.6772 -0.1896  0.1185
11083TIP3    H154664   1.517   0.289   2.149 -0.8748  0.7226  0.2758
11083TIP3    H254665   1.447   0.208   2.042  0.5116  0.8650 -0.7738
11084TIP3   OH254666   3.807   4.747   4.751 -0.4134 -0.2007 -0.1037
11084TIP3    H154667   3.878   4.766   4.812 -0.5866  1.4154 -0.3677
11084TIP3    H254668   3.837   4.782   4.667 -1.1477 -0.2935 -0.4183
11085TIP3   OH254669   5.587   0.145  11.721  0.3312  0.2490 -0.3683
11085TIP3    H154670   5.641   0.222  11.740 -0.7254  0.8491  0.3168
11085TIP3    H254671   5.574   0.105  11.807 -1.1055  0.6688 -0.3670
11086TIP3   OH254672   5.249   0.134  15.087 -0.1499 -0.3223  0.2814
11086TIP3    H154673   5.293   0.216  15.066  0.3806 -0.5492  0.4631
11086TIP3    H254674   5.208   0.106  15.006 -0.9179  0.4684  0.3916
11087TIP3   OH254675   3.742   3.130   2.336 -0.0262  0.0239  0.2427
11087TIP3    H154676   3.777   3.042   2.321 -1.0949 -0.3169 -0.3301
11087TIP3    H254677   3.715   3.160   2.249 -0.2815  0.6539  0.5324
11088TIP3   OH254678   3.306   6.079  13.386  0.0468  0.0515 -0.2188
11088TIP3    H154679   3.315   6.173  13.402  1.8551 -0.0977 -0.2180
11088TIP3    H254680   3.243   6.050  13.452  0.4976  1.0269  0.6705
11089TIP3   OH254681   5.252   4.386  16.881 -0.1110  0.1024  0.0688
11089TIP3    H154682   5.334   4.356  16.841 -0.8112 -0.9033 -0.6649
11089TIP3    H254683   5.187   4.377  16.811 -1.2233 -0.9805  1.2073
11090TIP3   OH254684   1.280   5.983   1.180  0.1425  0.4691 -0.8986
11090TIP3    H154685   1.278   5.892   1.150  0.3949 -0.2467  1.0897
11090TIP3    H254686   1.274   6.035   1.100  0.7111 -1.2897 -2.1510
11091TIP3   OH254687   2.548   5.424   2.323 -0.5081  0.1918 -0.1273
11091TIP3    H154688   2.556   5.328   2.324 -1.6906  0.0552 -1.2539
11091TIP3    H254689   2.626   5.454   2.276 -0.0959 -0.1981  0.2924
11092TIP3   OH254690   2.983   6.379   3.052  0.3189  0.0812 -0.0489
11092TIP3    H154691   2.996   6.466   3.013  2.0264  0.1130  0.5111
11092TIP3    H254692   3.071   6.351   3.077 -0.3264 -1.4225  0.6307
11093TIP3   OH254693   3.733   6.729  11.411  0.5831 -0.0525  0.3599
11093TIP3    H154694   3.735   6.677  11.331  0.2263 -0.0725  0.3623
11093TIP3    H254695   3.667   6.796  11.394  0.3950 -0.1524  0.6968
11094TIP3   OH254696   1.193   2.659   0.226 -0.0137 -0.2929 -0.1199
11094TIP3    H154697   1.232   2.647   0.313  1.1239  3.9043  0.1732
11094TIP3    H254698   1.265   2.646   0.165 -0.4772 -1.7892 -0.3905
11095TIP3   OH254699   3.542   3.017   2.597 -0.1023  0.3450  0.5851
11095TIP3    H154700   3.482   3.058   2.659  0.7833  1.6532  0.6122
11095TIP3    H254701   3.505   2.930   2.582 -1.0817  0.5052  1.8794
11096TIP3   OH254702   3.008   4.158   6.582  0.1359  0.5529  0.1248
11096TIP3    H154703   2.976   4.233   6.532 -0.1249  2.2386  2.6490
11096TIP3    H254704   3.104   4.165   6.577  0.1154  1.1664  0.4626
11097TIP3   OH254705   5.656   1.097  11.364 -0.1217 -0.4493  0.2115
11097TIP3    H154706   5.668   1.006  11.334  0.3721  0.2480 -1.8553
11097TIP3    H254707   5.570   1.097  11.405  0.1260 -1.9840  0.8054
11098TIP3   OH254708   1.821   2.179   5.145  0.4644  0.0263 -0.2971
11098TIP3    H154709   1.767   2.256   5.165  1.8287  0.8657  0.3552
11098TIP3    H254710   1.760   2.106   5.142 -0.4596  0.5422  2.7492
11099TIP3   OH254711   1.954   1.418   0.977 -0.6095  0.5436  0.4148
11099TIP3    H154712   1.956   1.485   1.045  1.8800  0.7068  0.2968
11099TIP3    H254713   2.046   1.396   0.963 -1.2245 -1.3713 -1.0742
11100TIP3   OH254714   5.100   2.425   3.889  0.0541 -0.0220 -0.7035
11100TIP3    H154715   5.147   2.387   3.815  0.0315  1.1888 -1.3589
11100TIP3    H254716   5.166   2.477   3.935 -0.1795  0.0636 -0.4656
11101TIP3   OH254717   2.536   6.354   0.112 -0.2643 -0.6812  0.5371
11101TIP3    H154718   2.591   6.280   0.089 -1.3554 -0.9866 -1.3487
11101TIP3    H254719   2.513   6.340   0.203 -0.8866 -2.9905  0.0900
11102TIP3   OH254720   4.069   1.127  13.575  0.4425  0.2311  0.8423
11102TIP3    H154721   4.066   1.032  13.577  3.8829 -0.0133  2.1020
11102TIP3    H254722   4.135   1.148  13.509 -1.9072  1.9342 -1.1122
11103TIP3   OH254723   3.714   0.090  16.472 -0.2271 -0.1142  0.7663
11103TIP3    H154724   3.750   0.153  16.409  1.5911 -0.0916  1.7597
11103TIP3    H254725   3.640   0.050  16.426  0.0736  1.0106 -0.7869
11104TIP3   OH254726   3.694   5.658   0.269  0.0558  0.6228 -0.3430
11104TIP3    H154727   3.759   5.685   0.204  1.0178 -0.7802 -0.0229
11104TIP3    H254728   3.744   5.641   0.349 -0.4594 -1.6195 -0.4022
11105TIP3   OH254729   6.778   4.026  12.950  0.5540  0.4475  0.0207
11105TIP3    H154730   6.693   4.024  12.995  1.3896  1.5912  1.7491
11105TIP3    H254731   6.759   4.068  12.866 -0.5311  1.0253  0.5348
11106TIP3   OH254732   5.490   0.055   2.230  0.1126  0.1727 -0.3504
11106TIP3    H154733   5.568   0.075   2.281  1.5978 -0.6373 -2.1824
11106TIP3    H254734   5.430   0.013   2.292  0.6508  1.8007  1.3400
11107TIP3   OH254735   4.088   4.631   6.447 -0.3664 -0.0378 -0.1218
11107TIP3    H154736   4.015   4.689   6.471 -0.2440 -0.1005  0.4107
11107TIP3    H254737   4.150   4.639   6.519 -0.9449 -1.8680  0.6198
11108TIP3   OH254738   4.779   5.746  13.850  0.7305  0.4996 -0.2108
11108TIP3    H154739   4.765   5.799  13.772 -3.4251  1.9626  1.2939
11108TIP3    H254740   4.800   5.809  13.919 -0.8279 -0.1361  0.8898
11109TIP3   OH254741   2.134   2.715  11.632 -0.4730 -0.2872  0.5173
11109TIP3    H154742   2.180   2.673  11.704 -1.1437 -0.6150  0.7632
11109TIP3    H254743   2.171   2.675  11.553 -1.0095 -1.2469  0.7421
11110TIP3   OH254744   2.227   5.153  15.154  0.5626  0.2528 -0.8161
11110TIP3    H154745   2.166   5.182  15.087 -1.7070  1.6236  1.6523
11110TIP3    H254746   2.201   5.200  15.233  3.4402 -0.8130  0.9528
11111TIP3   OH254747   1.129   3.819   0.696  0.0895  0.2034 -0.4355
11111TIP3    H154748   1.055   3.873   0.722 -0.4363 -0.5105 -0.4074
11111TIP3    H254749   1.200   3.844   0.755 -0.9236 -1.0100  1.3743
11112TIP3   OH254750   6.313   5.604   3.774  0.6212  0.1533  0.2448
11112TIP3    H154751   6.254   5.590   3.700  0.2556  1.8448  0.1645
11112TIP3    H254752   6.399   5.577   3.741  0.5987  1.5359 -1.0894
11113TIP3   OH254753   4.405   1.585   1.116 -0.3291 -0.0088 -0.0501
11113TIP3    H154754   4.470   1.655   1.112  1.3619 -1.5209 -1.8016
11113TIP3    H254755   4.368   1.590   1.204 -0.7626  3.4086 -0.3160
11114TIP3   OH254756   3.183   6.760  11.352 -0.7144  0.2070  0.1105
11114TIP3    H154757   3.206   6.850  11.374 -1.2971  0.7719 -1.5092
11114TIP3    H254758   3.171   6.760  11.257 -3.2612 -0.9637  0.3393
11115TIP3   OH254759   2.896   1.167   6.685  0.0152 -0.0487  0.0501
11115TIP3    H154760   2.879   1.155   6.592  0.1782 -1.9085  0.2371
11115TIP3    H254761   2.968   1.231   6.688 -1.7189  2.0973 -0.9613
11116TIP3   OH254762   6.166   0.733  16.989 -0.2109  0.6971  0.1835
11116TIP3    H154763   6.243   0.773  17.029  1.0464 -1.7141  0.3387
11116TIP3    H254764   6.110   0.711  17.063 -0.5897  1.4823  0.1432
11117TIP3   OH254765   2.441   4.386  12.901  0.3178  0.0959 -0.8640
11117TIP3    H154766   2.447   4.419  12.990  1.7800  1.4061 -1.4010
11117TIP3    H254767   2.351   4.355  12.892 -0.3706  1.5997  0.4949
11118TIP3   OH254768   5.591   1.154   3.979 -0.0087 -0.1002 -0.1776
11118TIP3    H154769   5.605   1.137   4.072 -0.4726  1.9446  0.3118
11118TIP3    H254770   5.497   1.171   3.971 -0.1241 -1.0584 -1.1955
11119TIP3   OH254771   6.102   3.313  15.570  0.2789  0.2130  0.0523
11119TIP3    H154772   6.176   3.256  15.547 -1.1434 -0.7908 -2.4867
11119TIP3    H254773   6.039   3.300  15.499 -1.4050  2.7368  0.9430
11120TIP3   OH254774   5.070   1.816   5.301  0.0715  0.2258 -0.1431
11120TIP3    H154775   5.009   1.870   5.251  1.7919  2.5127  0.0810
11120TIP3    H254776   5.033   1.814   5.390 -0.3072  0.5496 -0.2904
11121TIP3   OH254777   0.432   1.230  14.361  0.2989 -0.4954  0.3281
11121TIP3    H154778   0.528   1.224  14.357  0.4252  0.5410  1.2614
11121TIP3    H254779   0.412   1.318  14.331 -0.1627  0.1096  2.2593
11122TIP3   OH254780   1.296   1.368   0.617 -0.2005 -0.2999  0.1143
11122TIP3    H154781   1.342   1.387   0.698  1.6618  0.6976 -1.1050
11122TIP3    H254782   1.275   1.275   0.623 -0.7582 -0.0938  2.0207
11123TIP3   OH254783   5.078   1.125  15.306 -0.2743  0.0681  0.5178
11123TIP3    H154784   5.011   1.178  15.348 -2.7324 -1.3457 -1.3561
11123TIP3    H254785   5.061   1.036  15.337  0.1965 -0.4334 -0.6085
11124TIP3   OH254786   5.186   6.699  16.057 -0.4361 -0.3187  0.1306
11124TIP3    H154787   5.166   6.766  16.122  0.1862  0.1749 -0.1801
11124TIP3    H254788   5.149   6.619  16.093  1.8313 -0.5539  2.1722
11125TIP3   OH254789   2.369   0.626  14.341  0.3148  0.3922 -0.1101
11125TIP3    H154790   2.297   0.640  14.402  0.1560  1.6707 -0.5751
11125TIP3    H254791   2.425   0.561  14.384 -0.1820  0.7124  1.0386
11126TIP3   OH254792   0.532   6.755   5.372 -1.2151 -0.2072 -0.2666
11126TIP3    H154793   0.604   6.787   5.317 -1.2494 -0.8783 -0.7249
11126TIP3    H254794   0.525   6.819   5.443  0.8402 -0.8967  0.6398
11127TIP3   OH254795   1.205   6.530   1.843  0.0284  0.7355 -0.3375
11127TIP3    H154796   1.215   6.610   1.791 -1.4457  0.9526 -0.3255
11127TIP3    H254797   1.266   6.468   1.803  0.1253  1.4095 -1.2748
11128TIP3   OH254798   0.390   4.157  15.699  0.0349 -0.8106  0.2298
11128TIP3    H154799   0.445   4.127  15.627 -0.6024 -2.4665  0.4017
11128TIP3    H254800   0.399   4.253  15.698 -0.7341 -0.6842 -2.6844
11129TIP3   OH254801   1.371   3.988   3.081 -0.3248 -0.5269  0.1064
11129TIP3    H154802   1.410   3.959   3.164 -0.4137  0.2021  0.4130
11129TIP3    H254803   1.311   3.919   3.057  0.3443 -1.1558  0.2027
11130TIP3   OH254804   6.088   6.468  17.213 -0.1383 -0.1021  0.4279
11130TIP3    H154805   6.103   6.397  17.151 -0.0329 -0.1233  0.4765
11130TIP3    H254806   6.145   6.539  17.183  0.5577 -0.4065  0.9827
11131TIP3   OH254807   6.485   1.880  11.437 -0.2744 -0.5413 -0.6166
11131TIP3    H154808   6.494   1.957  11.381  2.0880  1.9792  2.7759
11131TIP3    H254809   6.443   1.914  11.516  2.3238 -2.2564  1.6692
11132TIP3   OH254810   2.939   1.120  16.250 -0.3344  0.1586  0.6268
11132TIP3    H154811   2.914   1.151  16.337 -0.6025 -0.2807  0.7089
11132TIP3    H254812   3.034   1.121  16.251 -0.3324 -0.0496  1.0020
11133TIP3   OH254813   6.151   4.816   5.213 -0.6532 -0.0929 -0.0157
11133TIP3    H154814   6.156   4.743   5.275  1.1172 -3.0109 -3.2364
11133TIP3    H254815   6.058   4.822   5.191 -0.9494 -0.7194  0.9886
11134TIP3   OH254816   3.192   6.636   5.033 -0.0979 -0.3630  0.4057
11134TIP3    H154817   3.189   6.650   5.128  0.2012  0.4583  0.3015
11134TIP3    H254818   3.285   6.621   5.014 -0.3075 -1.7302  0.3977
11135TIP3   OH254819   2.472   3.814  14.285  0.4123  0.7740  0.2831
11135TIP3    H154820   2.470   3.904  14.319 -0.0047  0.1512  1.9685
11135TIP3    H254821   2.501   3.761  14.359  0.3788 -0.5311 -0.6091
11136TIP3   OH254822   5.296   4.442   6.209 -0.8786 -0.4967 -0.4632
11136TIP3    H154823   5.272   4.435   6.302 -0.3286  0.2841 -0.2514
11136TIP3    H254824   5.375   4.389   6.201 -0.9009 -0.5285 -0.4709
11137TIP3   OH254825   3.101   5.197  13.502  0.0484 -0.1574 -0.2175
11137TIP3    H154826   3.170   5.193  13.435  0.1084 -0.6870 -0.1259
11137TIP3    H254827   3.019   5.198  13.452 -0.0866 -3.8860 -0.3253
11138TIP3   OH254828   5.856   0.903  17.011 -0.1028  0.6210 -0.0949
11138TIP3    H154829   5.829   0.821  16.971  2.3478 -1.9363  2.9328
11138TIP3    H254830   5.951   0.908  16.994 -0.2453  3.0902 -0.5341
11139TIP3   OH254831   4.227   0.695   1.281  0.3617 -0.2253 -0.2327
11139TIP3    H154832   4.195   0.715   1.369  1.3145 -0.8177  0.2596
11139TIP3    H254833   4.196   0.769   1.227 -1.6848 -0.6852  0.2254
11140TIP3   OH254834   3.078   0.988   2.667  0.5049 -0.5222 -0.1280
11140TIP3    H154835   3.165   0.957   2.694  1.4327  1.1759 -1.0091
11140TIP3    H254836   3.084   1.083   2.672 -1.4547 -0.3712  0.1586
11141TIP3   OH254837   0.483   4.578  16.435  0.4688 -0.3179 -0.0025
11141TIP3    H154838   0.535   4.525  16.495 -0.3834 -2.5480 -1.1002
11141TIP3    H254839   0.486   4.666  16.471  0.7200 -1.3697  2.8043
11142TIP3   OH254840   4.947   3.663  14.702  0.5404 -0.2501  0.0337
11142TIP3    H154841   4.936   3.596  14.769  2.2096  0.8506  1.4704
11142TIP3    H254842   4.999   3.621  14.633 -0.1737 -1.0189 -0.0514
11143TIP3   OH254843   4.862   4.528   0.256 -0.6526  0.6153  0.0918
11143TIP3    H154844   4.830   4.567   0.337 -0.7729 -0.4507  0.5861
11143TIP3    H254845   4.915   4.454   0.286  1.2250  1.5748 -0.7415
11144TIP3   OH254846   6.242   3.467   1.754 -0.1222  0.2807 -0.1179
11144TIP3    H154847   6.199   3.549   1.730  0.5093  0.2899 -1.3048
11144TIP3    H254848   6.319   3.493   1.804 -2.1765  0.2252  3.4545
11145TIP3   OH254849   0.646   0.188  11.797 -0.4789 -0.4808  0.0667
11145TIP3    H154850   0.693   0.119  11.750 -0.4103 -1.5489  1.6318
11145TIP3    H254851   0.605   0.241  11.728  1.3092 -0.7260 -1.2567
11146TIP3   OH254852   2.524   5.446   3.072 -0.1790  0.1507 -0.5761
11146TIP3    H154853   2.567   5.518   3.027 -0.6027 -0.2966 -1.7391
11146TIP3    H254854   2.462   5.488   3.132  0.6765  0.7610 -0.0911
11147TIP3   OH254855   1.152   3.450  12.874 -0.1528  0.2869  0.4228
11147TIP3    H154856   1.169   3.380  12.812  1.3332  1.8810 -1.0790
11147TIP3    H254857   1.233   3.459  12.923 -0.5646  0.5290  1.0722
11148TIP3   OH254858   0.938   0.731   5.889 -0.1329  0.4801 -0.0931
11148TIP3    H154859   0.897   0.657   5.932  1.2192 -0.2434 -0.0248
11148TIP3    H254860   1.007   0.760   5.949  0.7415  0.4451 -1.0596
11149TIP3   OH254861   5.362   0.601  15.318  0.3737  0.4327  0.0499
11149TIP3    H154862   5.308   0.523  15.309  1.3622 -0.4263  1.2230
11149TIP3    H254863   5.358   0.643  15.231 -2.2762  0.5446  0.1447
11150TIP3   OH254864   1.275   1.305   5.570  0.3945 -0.0954 -0.0200
11150TIP3    H154865   1.312   1.219   5.551  1.0572  0.3501 -0.7991
11150TIP3    H254866   1.349   1.365   5.561 -0.5190  0.8292 -1.7346
11151TIP3   OH254867   1.920   4.830  11.522  0.2557  0.0247  0.1693
11151TIP3    H154868   1.907   4.874  11.606 -2.7772  1.4573 -0.9000
11151TIP3    H254869   1.888   4.741  11.537 -1.6686  0.6887  0.2090
11152TIP3   OH254870   3.255   5.600  12.371  0.3277 -0.0254 -0.5927
11152TIP3    H154871   3.177   5.559  12.333 -0.5268  1.2439 -0.2479
11152TIP3    H254872   3.223   5.679  12.413  2.0252  1.3439 -1.7521
11153TIP3   OH254873   0.904   5.250  15.121  0.4488 -0.1264 -0.2746
11153TIP3    H154874   0.962   5.263  15.195  0.9072  0.5506 -0.7464
11153TIP3    H254875   0.853   5.171  15.144  1.8685 -1.0205 -0.0716
11154TIP3   OH254876   4.225   2.675  11.897  0.0593  0.4945  0.1331
11154TIP3    H154877   4.133   2.696  11.883 -0.0107  1.1132  1.4158
11154TIP3    H254878   4.272   2.734  11.839 -0.3336  0.5284 -0.1528
11155TIP3   OH254879   2.848   4.987  12.181  0.3557 -0.2719  0.2575
11155TIP3    H154880   2.880   5.054  12.241  1.3961 -1.7189  1.3839
11155TIP3    H254881   2.822   4.914  12.238 -3.9464  0.3027 -0.6170
11156TIP3   OH254882   4.508   2.046  13.333  0.3624 -0.1646  0.2742
11156TIP3    H154883   4.506   2.014  13.423  1.7154 -2.6678 -0.4605
11156TIP3    H254884   4.439   1.997  13.289 -0.3967  1.1575 -0.0569
11157TIP3   OH254885   5.351   4.637  12.454  0.0943 -0.2006 -0.2707
11157TIP3    H154886   5.317   4.566  12.399 -0.0548  0.6493 -1.2883
11157TIP3    H254887   5.432   4.601  12.491  0.3706 -0.6752 -1.3001
11158TIP3   OH254888   2.818   6.602  15.550  0.4432  0.1234  0.4892
11158TIP3    H154889   2.747   6.568  15.604 -1.3452  0.2104 -1.6697
11158TIP3    H254890   2.893   6.546  15.570 -1.0292 -1.8247  0.7337
11159TIP3   OH254891   5.810   1.280   3.019 -0.3730 -0.2360 -0.3974
11159TIP3    H154892   5.741   1.267   2.954 -0.1737 -0.8966 -0.4829
11159TIP3    H254893   5.868   1.345   2.980 -0.7962  0.1176 -0.4447
11160TIP3   OH254894   0.647   1.332  12.732 -0.0217  0.0776 -0.0812
11160TIP3    H154895   0.726   1.313  12.681  1.6313 -1.8194  2.8971
11160TIP3    H254896   0.588   1.259  12.712  1.1377 -1.3904  1.5004
11161TIP3   OH254897   1.003   2.673   0.930  0.2817  0.1483  0.3353
11161TIP3    H154898   1.055   2.726   0.990 -0.0942  0.4702  0.3815
11161TIP3    H254899   0.913   2.703   0.943  0.3026  0.9147 -1.0893
11162TIP3   OH254900   0.970   2.549   3.566 -0.1165 -0.0948  0.7892
11162TIP3    H154901   0.914   2.603   3.510  0.4969  1.1979  1.3730
11162TIP3    H254902   1.022   2.498   3.505 -1.4213 -0.8073  0.2272
11163TIP3   OH254903   3.568   6.265  15.784 -0.1260 -0.1585  0.0820
11163TIP3    H154904   3.615   6.298  15.707 -2.2846 -0.3488 -1.3858
11163TIP3    H254905   3.555   6.172  15.767  1.1057 -0.6670  1.6566
11164TIP3   OH254906   6.026   0.360  12.782 -0.1027  0.3815  0.0326
11164TIP3    H154907   6.042   0.302  12.856  0.5939  2.0380  1.2338
11164TIP3    H254908   5.984   0.438  12.821  0.1176  1.2171 -1.3325
11165TIP3   OH254909   5.612   1.084  13.816  0.6551 -0.2101  0.1798
11165TIP3    H154910   5.599   1.137  13.895 -1.1168  1.2018 -0.9730
11165TIP3    H254911   5.604   1.146  13.744 -1.4000 -2.0079 -1.2628
11166TIP3   OH254912   1.322   3.863   0.474  0.1894 -0.5900 -0.2841
11166TIP3    H154913   1.399   3.906   0.511  0.0485 -0.3192 -0.3041
11166TIP3    H254914   1.259   3.860   0.546  1.0832 -3.0419  0.4882
11167TIP3   OH254915   2.374   5.806   5.816  0.4759 -1.0692 -0.2726
11167TIP3    H154916   2.380   5.900   5.804 -2.2684 -0.8776 -0.9274
11167TIP3    H254917   2.391   5.792   5.909 -1.7210  0.4567  0.4263
11168TIP3   OH254918   0.045   4.631   2.308 -0.0202  0.2647  0.1074
11168TIP3    H154919   0.135   4.641   2.339 -0.5491  1.2376  1.4377
11168TIP3    H254920   0.051   4.637   2.213  1.1891  1.4494  0.2427
11169TIP3   OH254921   4.137   1.508  15.355 -0.4309 -0.4946 -0.3577
11169TIP3    H154922   4.082   1.471  15.286  0.5514  0.5617 -1.7689
11169TIP3    H254923   4.205   1.442  15.368  1.4356  0.7344 -3.0094
11170TIP3   OH254924   2.051   3.226  12.456  0.3436 -0.4172 -0.0757
11170TIP3    H154925   2.031   3.195  12.367  0.7619  1.0986 -0.7197
11170TIP3    H254926   1.983   3.186  12.511 -0.6706 -0.3705 -1.2584
11171TIP3   OH254927   5.562   1.546  13.047 -0.1850 -0.1050  0.0697
11171TIP3    H154928   5.545   1.466  12.997 -1.9883  0.0907  0.2909
11171TIP3    H254929   5.519   1.531  13.131 -1.1581  1.3422 -0.1303
11172TIP3   OH254930   0.232   3.701  11.152  0.3529  0.2853 -0.3261
11172TIP3    H154931   0.201   3.668  11.067 -0.2460  1.3923 -0.5577
11172TIP3    H254932   0.321   3.730  11.135 -0.0959  1.4056 -0.8337
11173TIP3   OH254933   0.289   4.305  12.227  0.3091  0.0059 -0.1490
11173TIP3    H154934   0.275   4.325  12.320 -0.6050 -0.4912 -0.1590
11173TIP3    H254935   0.276   4.388  12.182 -0.2018  0.0682  0.0948
11174TIP3   OH254936   3.129   2.480  16.116 -0.1601 -0.1928 -0.2504
11174TIP3    H154937   3.200   2.544  16.109 -0.7274  0.3468 -1.4082
11174TIP3    H254938   3.051   2.528  16.088 -1.1048 -0.5949  1.5889
11175TIP3   OH254939   4.981   0.933  16.726 -0.2307 -0.5053  0.4772
11175TIP3    H154940   4.928   0.920  16.647 -1.4987  0.4786  1.1217
11175TIP3    H254941   5.049   0.994  16.699 -0.9394  0.2010  0.2272
11176TIP3   OH254942   1.409   5.782  16.461  0.7345  0.3724  0.1537
11176TIP3    H154943   1.371   5.870  16.458 -0.4949 -0.1143 -3.5600
11176TIP3    H254944   1.342   5.729  16.503 -0.6356  0.4752 -1.7403
11177TIP3   OH254945   1.315   0.389  16.913  0.2171  0.3922 -0.0072
11177TIP3    H154946   1.376   0.418  16.981  0.1613 -1.1289  0.7202
11177TIP3    H254947   1.372   0.365  16.840  0.6459 -1.9590  1.0118
11178TIP3   OH254948   4.406   1.219   2.964 -0.5260 -0.7970 -0.5642
11178TIP3    H154949   4.394   1.298   3.017  1.6301 -0.7617 -0.0118
11178TIP3    H254950   4.450   1.250   2.885  0.3455 -1.4181 -0.3387
11179TIP3   OH254951   0.519   4.703   2.751  0.4274  0.3171 -0.2813
11179TIP3    H154952   0.521   4.622   2.803 -0.1737  0.3729 -0.1650
11179TIP3    H254953   0.475   4.678   2.670 -1.6942  0.9974  0.6031
11180TIP3   OH254954   1.187   2.198   5.476 -0.1258  0.2287 -0.1920
11180TIP3    H154955   1.132   2.174   5.550  0.6501 -1.5101 -0.1284
11180TIP3    H254956   1.177   2.126   5.414  0.3429  0.9682 -1.1608
11181TIP3   OH254957   4.306   6.346  16.644  0.2113  0.2076  0.3594
11181TIP3    H154958   4.343   6.344  16.555 -1.3044  0.8723 -0.3223
11181TIP3    H254959   4.364   6.404  16.693  0.0757  1.2584 -0.6826
11182TIP3   OH254960   6.595   4.382  16.448  1.0477 -0.4403  0.3520
11182TIP3    H154961   6.599   4.476  16.468 -1.0906  0.1925 -1.7319
11182TIP3    H254962   6.631   4.375  16.360 -0.5264 -1.2451 -0.2683
11183TIP3   OH254963   0.600   5.181   5.127  0.2060  0.0103 -0.0364
11183TIP3    H154964   0.695   5.188   5.123  0.1841  0.2689 -0.0894
11183TIP3    H254965   0.580   5.097   5.086  0.3617  0.2667 -0.6521
11184TIP3   OH254966   1.192   1.116  15.168 -0.0659  0.1838 -0.5853
11184TIP3    H154967   1.234   1.178  15.108 -2.0643  0.0446 -2.2474
11184TIP3    H254968   1.184   1.164  15.251  2.8931  0.3295 -0.2915
11185TIP3   OH254969   4.663   5.434  14.698 -0.0848 -0.4856 -0.1567
11185TIP3    H154970   4.572   5.433  14.668 -1.0028  0.5119  2.3096
11185TIP3    H254971   4.658   5.415  14.791  2.2399 -0.2532  0.0797
11186TIP3   OH254972   5.503   4.590   2.488  0.2726 -0.2840 -0.8589
11186TIP3    H154973   5.456   4.522   2.536  2.2164 -0.6922  0.5867
11186TIP3    H254974   5.523   4.550   2.403 -0.6044 -0.6440 -0.9062
11187TIP3   OH254975   2.141   4.355   5.389  0.0466 -0.1360  0.2279
11187TIP3    H154976   2.162   4.436   5.437 -0.0070  0.5754 -0.9083
11187TIP3    H254977   2.046   4.350   5.390  0.0555 -0.2624  0.4237
11188TIP3   OH254978   6.491   1.318   5.106 -0.4225 -0.1360 -0.5363
11188TIP3    H154979   6.489   1.346   5.198  0.9489  0.7987 -0.7682
11188TIP3    H254980   6.551   1.244   5.105 -0.5604 -0.2463 -0.6614
11189TIP3   OH254981   0.229   5.214   5.289 -0.3113  0.1770  0.2177
11189TIP3    H154982   0.140   5.181   5.304 -0.4052 -0.0665 -0.7779
11189TIP3    H254983   0.272   5.144   5.239  0.8362 -0.2435  1.7402
11190TIP3   OH254984   5.172   0.872   0.485 -0.4473 -0.5517 -0.6799
11190TIP3    H154985   5.199   0.927   0.411  0.7595  1.1001  0.8750
11190TIP3    H254986   5.249   0.820   0.506 -0.3464 -0.0747  0.1828
11191TIP3   OH254987   6.562   1.640   3.621 -0.2438 -0.2806  0.3594
11191TIP3    H154988   6.491   1.688   3.578 -0.6549  0.9435  2.3072
11191TIP3    H254989   6.631   1.705   3.632  0.2958 -0.8810  0.5333
11192TIP3   OH254990   2.263   6.405   1.574  0.3411 -0.1662 -0.5346
11192TIP3    H154991   2.261   6.461   1.496  0.4900 -0.7959 -1.0004
11192TIP3    H254992   2.177   6.416   1.613  0.6938  1.1527 -0.0541
11193TIP3   OH254993   0.618   1.654  17.190 -0.3681 -0.0662  0.1998
11193TIP3    H154994   0.611   1.715  17.264 -1.3874  0.3445 -0.2013
11193TIP3    H254995   0.615   1.567  17.230 -0.1675  0.1491  0.6934
11194TIP3   OH254996   3.718   6.452   2.629 -0.1038 -0.2491  0.3099
11194TIP3    H154997   3.774   6.387   2.587 -0.7516  0.3971 -1.6692
11194TIP3    H254998   3.745   6.535   2.590 -0.8425  0.3867  1.0964
11195TIP3   OH254999   2.801   4.240   2.722 -0.2889  0.2879 -0.3013
11195TIP3    H155000   2.764   4.220   2.808  0.8762  1.0180  0.4031
11195TIP3    H255001   2.779   4.332   2.707  3.8352  1.8677  1.6766
11196TIP3   OH255002   2.570   2.321   1.042 -0.4730 -0.4900  0.7021
11196TIP3    H155003   2.533   2.244   0.998  0.8160  0.3668 -2.1206
11196TIP3    H255004   2.500   2.386   1.037  0.0564  0.0083 -1.4230
11197TIP3   OH255005   2.536   0.170  15.565 -0.1954  0.2476  0.2179
11197TIP3    H155006   2.508   0.248  15.516  0.4381  1.1682  1.2756
11197TIP3    H255007   2.583   0.117  15.500 -2.9481 -0.6412 -1.2376
11198TIP3   OH255008   0.322   0.789   4.069  0.1293  0.3473 -0.1751
11198TIP3    H155009   0.387   0.779   4.139  0.0274 -0.5113 -0.2016
11198TIP3    H255010   0.266   0.713   4.078  0.3564  0.0213 -1.4618
11199TIP3   OH255011   3.774   6.354  13.365 -0.4635 -0.0490  0.0010
11199TIP3    H155012   3.844   6.377  13.425  0.3072 -0.8250 -0.5740
11199TIP3    H255013   3.732   6.278  13.404  1.7291 -2.2606 -1.6301
11200TIP3   OH255014   4.917   0.434  13.420  0.1982  0.1328 -0.2067
11200TIP3    H155015   4.943   0.393  13.337  1.2885 -1.5954  0.9117
11200TIP3    H255016   4.838   0.386  13.447  0.7568 -0.4339  0.4906
11201TIP3   OH255017   5.210   1.673  16.734  0.2886  0.0633  0.0360
11201TIP3    H155018   5.142   1.692  16.799  0.1404 -0.8449  0.1601
11201TIP3    H255019   5.193   1.582  16.708  1.2505 -0.0593 -0.1835
11202TIP3   OH255020   5.577   0.598  13.874 -0.1864  0.0610 -0.3612
11202TIP3    H155021   5.587   0.537  13.801  0.5402 -2.5266  1.7476
11202TIP3    H255022   5.549   0.680  13.833  0.7261 -1.0733 -3.5682
11203TIP3   OH255023   1.773   6.306  15.539 -0.3186  0.1628  0.5039
11203TIP3    H155024   1.702   6.262  15.587 -0.0593 -0.2694  0.4954
11203TIP3    H255025   1.741   6.310  15.449  0.6691 -2.3154 -0.0517
11204TIP3   OH255026   6.653   1.409   5.788 -0.4176  0.1739 -0.2986
11204TIP3    H155027   6.639   1.315   5.799  1.5463 -0.1871 -0.5582
11204TIP3    H255028   6.741   1.424   5.823  0.0016  1.5942 -1.8677
11205TIP3   OH255029   5.343   1.942   3.317 -0.0684 -0.5012  0.0952
11205TIP3    H155030   5.347   1.885   3.241 -0.3596 -0.0282 -0.2829
11205TIP3    H255031   5.323   1.884   3.390 -1.6097 -0.7427 -0.4693
11206TIP3   OH255032   4.593   4.122  15.634  0.0103  0.0377  0.3212
11206TIP3    H155033   4.608   4.040  15.682  2.0444  0.6115  0.7637
11206TIP3    H255034   4.578   4.094  15.543  0.8810 -0.8413  0.4264
11207TIP3   OH255035   2.788   5.328  11.514 -0.2226 -0.1763 -0.3437
11207TIP3    H155036   2.769   5.281  11.594  1.5664 -1.8953 -0.8512
11207TIP3    H255037   2.777   5.420  11.537 -2.0528 -0.7164  1.1827
11208TIP3   OH255038   0.020   2.004   1.437  0.2845 -0.5360 -0.2031
11208TIP3    H155039   0.002   1.931   1.496 -1.5864 -0.3358 -0.4427
11208TIP3    H255040   0.035   1.964   1.352  0.1325 -0.6864 -0.1583
11209TIP3   OH255041   2.222   5.130  13.021 -0.3867  0.2357  0.0600
11209TIP3    H155042   2.226   5.061  12.954 -0.1901  0.1454  0.1611
11209TIP3    H255043   2.215   5.211  12.971 -0.3266  0.1634 -0.0700
11210TIP3   OH255044   1.792   2.609   5.377 -0.1442 -0.3236  0.0433
11210TIP3    H155045   1.885   2.590   5.385 -0.1290  0.0037  0.6774
11210TIP3    H255046   1.761   2.548   5.310  0.4879 -0.5461 -0.0537
11211TIP3   OH255047   6.722   0.409   5.718 -0.4882 -0.7030  0.6187
11211TIP3    H155048   6.816   0.397   5.706 -0.4216  0.6626 -0.4747
11211TIP3    H255049   6.690   0.437   5.632 -1.4939  1.1156  1.5320
11212TIP3   OH255050   4.626   6.302  13.975  0.2700 -0.0968 -0.1373
11212TIP3    H155051   4.583   6.362  14.036 -1.4748 -0.7845 -0.6331
11212TIP3    H255052   4.646   6.225  14.029 -1.4819 -0.7996 -0.4224
11213TIP3   OH255053   6.482   0.141   3.477 -0.1755  0.6048 -0.0700
11213TIP3    H155054   6.427   0.141   3.399 -1.3949  0.0800  0.7618
11213TIP3    H255055   6.484   0.232   3.505  0.0409  0.7511 -0.5434
11214TIP3   OH255056   4.011   1.718  16.418  0.0014 -0.4459 -0.3446
11214TIP3    H155057   4.046   1.635  16.388 -1.3131 -0.5479 -1.7369
11214TIP3    H255058   4.086   1.764  16.456  1.1470 -1.4774 -1.3006
11215TIP3   OH255059   4.832   0.361   0.310 -0.1250 -0.3841  1.0369
11215TIP3    H155060   4.809   0.287   0.253 -1.2904  0.4860  0.3238
11215TIP3    H255061   4.891   0.324   0.375 -0.8678 -2.0011  0.8367
11216TIP3   OH255062   4.529   0.028   2.760 -0.5771 -0.2546  0.2293
11216TIP3    H155063   4.445   0.057   2.796 -0.4680  1.0193 -0.4818
11216TIP3    H255064   4.517   0.031   2.665  0.4304  0.4838  0.1045
11217TIP3   OH255065   4.621   6.720  16.374  0.2065 -0.4069  0.3928
11217TIP3    H155066   4.644   6.657  16.443  2.0814  0.5342  0.6869
11217TIP3    H255067   4.646   6.805  16.410 -2.7142  0.6432  0.1825
11218TIP3   OH255068   2.112   6.192  12.175 -0.1571 -0.2934 -0.0955
11218TIP3    H155069   2.035   6.228  12.130  2.3069  3.0938 -2.0007
11218TIP3    H255070   2.145   6.125  12.115  0.3710  0.8066 -1.0630
11219TIP3   OH255071   0.450   1.434  11.632 -0.5281  0.0286 -0.5195
11219TIP3    H155072   0.519   1.368  11.633  0.2640  0.8379 -0.9010
11219TIP3    H255073   0.429   1.446  11.540 -0.6464  0.3440 -0.4531
11220TIP3   OH255074   6.494   0.229   1.452  0.4824 -0.1505 -0.2267
11220TIP3    H155075   6.474   0.319   1.427 -0.5008 -0.2946 -0.0096
11220TIP3    H255076   6.408   0.186   1.458  0.9506 -1.1614 -0.5616
11221TIP3   OH255077   0.971   2.777   0.294 -0.2972  0.0528  0.4542
11221TIP3    H155078   1.045   2.751   0.239 -0.4723  1.5383 -0.5440
11221TIP3    H255079   1.009   2.840   0.355 -0.8237  1.3569 -0.5133
11222TIP3   OH255080   0.483   6.040  16.903 -0.4445  0.7212 -0.6639
11222TIP3    H155081   0.438   5.971  16.853 -0.6913  1.1661 -1.0615
11222TIP3    H255082   0.437   6.041  16.987 -0.3349  0.2885 -0.5949
11223TIP3   OH255083   1.142   0.223  14.023 -0.3006  0.1843  0.2062
11223TIP3    H155084   1.176   0.277  13.952 -2.1834 -0.2004 -1.0632
11223TIP3    H255085   1.214   0.165  14.046 -0.3037 -1.3091 -3.0497
11224TIP3   OH255086   5.794   2.449  13.051  0.1167 -0.3757 -0.0567
11224TIP3    H155087   5.853   2.521  13.030 -0.8394  0.4663  0.0589
11224TIP3    H255088   5.706   2.487  13.043 -0.4736 -1.9062 -1.4719
11225TIP3   OH255089   4.393   5.089  12.680 -0.1684 -0.2216  0.3310
11225TIP3    H155090   4.465   5.146  12.656 -0.2022 -0.4103 -0.2449
11225TIP3    H255091   4.314   5.141  12.664 -0.1648 -0.0627  0.8289
11226TIP3   OH255092   6.626   5.919   4.376 -0.1261  0.4134  0.1650
11226TIP3    H155093   6.691   5.907   4.445  0.4725  0.0202 -0.4623
11226TIP3    H255094   6.587   6.004   4.394  0.9983  0.9307  0.1835
11227TIP3   OH255095   4.602   1.184  12.174  0.0202 -0.4340 -0.1957
11227TIP3    H155096   4.596   1.182  12.078  0.0104  0.1612 -0.2126
11227TIP3    H255097   4.604   1.092  12.200  0.0822 -0.6003 -0.7730
11228TIP3   OH255098   4.693   6.511   3.303 -0.0621  0.6759  0.2503
11228TIP3    H155099   4.757   6.558   3.249  1.6418 -0.3568  1.2964
11228TIP3    H255100   4.724   6.524   3.392 -0.8664 -0.5302  0.7162
11229TIP3   OH255101   1.850   3.500  11.827 -0.1894  0.6508  0.2168
11229TIP3    H155102   1.918   3.445  11.865  0.2440  0.0205 -1.4164
11229TIP3    H255103   1.896   3.579  11.799 -0.2448  0.4949 -0.3138
11230TIP3   OH255104   0.043   1.005   4.677 -0.4179  0.8722  0.4987
11230TIP3    H155105   0.032   1.099   4.662  1.3316  1.2961  1.5420
11230TIP3    H255106   0.010   0.990   4.765 -0.3248  0.5919  0.4880
11231TIP3   OH255107   5.989   0.763  13.713 -0.1691  0.4573 -0.5431
11231TIP3    H155108   5.968   0.850  13.677  0.2909  0.6036 -0.4699
11231TIP3    H255109   6.016   0.781  13.803 -0.5165  0.1842 -0.3853
11232TIP3   OH255110   6.330   2.550  11.906 -0.6410  0.1788  0.3944
11232TIP3    H155111   6.412   2.596  11.924  0.1316 -1.2695  0.7119
11232TIP3    H255112   6.263   2.619  11.908  0.4236  1.2297  1.1660
11233TIP3   OH255113   0.559   5.989   6.654 -0.1934 -0.0940 -0.1482
11233TIP3    H155114   0.599   5.995   6.567 -0.7606  0.0392 -0.4115
11233TIP3    H255115   0.487   5.927   6.642 -0.8646  0.6427 -0.0104
11234TIP3   OH255116   4.060   5.838   1.308  0.4366 -0.1789  0.3993
11234TIP3    H155117   4.125   5.901   1.277 -0.5302  1.2003  1.0706
11234TIP3    H255118   4.083   5.821   1.399  0.8144 -0.9791  0.1634
11235TIP3   OH255119   4.719   1.926   1.539 -0.0822 -0.0388 -0.0919
11235TIP3    H155120   4.786   1.861   1.561  0.0939 -0.0597 -0.6692
11235TIP3    H255121   4.636   1.883   1.560  0.1198  0.5189  2.0124
11236TIP3   OH255122   3.303   4.537  12.957 -0.5440 -0.2348 -0.8396
11236TIP3    H155123   3.271   4.580  13.036  0.2672  1.3963 -1.3495
11236TIP3    H255124   3.389   4.502  12.982 -0.3585  0.1379 -0.9578
11237TIP3   OH255125   4.475   3.409   0.176  0.5048 -0.0414 -0.1554
11237TIP3    H155126   4.507   3.377   0.260 -1.7225  0.9847  1.1510
11237TIP3    H255127   4.489   3.503   0.179 -2.1738  0.4122  0.3495
11238TIP3   OH255128   3.912   5.980  16.345  0.0472 -0.6746 -0.6282
11238TIP3    H155129   3.908   5.892  16.307 -3.5602 -1.0447  0.2837
11238TIP3    H255130   3.847   6.030  16.296  0.9042  1.0809 -0.0641
11239TIP3   OH255131   3.931   4.853  16.284 -0.3543 -0.1690 -0.0087
11239TIP3    H155132   4.003   4.794  16.306 -0.6993 -0.7011 -0.2736
11239TIP3    H255133   3.853   4.797  16.289 -0.5090 -0.2478 -2.2037
11240TIP3   OH255134   2.630   4.872  15.375 -1.0624 -0.1667 -0.1920
11240TIP3    H155135   2.652   4.909  15.290 -0.8192 -1.1329 -0.5650
11240TIP3    H255136   2.550   4.821  15.359 -0.4321 -1.2222 -0.1041
11241TIP3   OH255137   0.744   0.833  15.179  0.2145 -0.6468 -0.2848
11241TIP3    H155138   0.759   0.744  15.211  0.4650 -0.0781  1.3101
11241TIP3    H255139   0.829   0.863  15.148  0.2268 -0.8262 -0.4205
11242TIP3   OH255140   6.432   1.263  14.565 -0.2677  0.1417 -0.6827
11242TIP3    H155141   6.448   1.169  14.573  1.2454  0.5513  2.4747
11242TIP3    H255142   6.353   1.279  14.616  1.2398  0.9019  1.5847
11243TIP3   OH255143   5.905   5.754  15.063 -0.1206 -0.4980 -0.2230
11243TIP3    H155144   5.901   5.804  14.981  1.5870 -0.1435 -0.1412
11243TIP3    H255145   5.990   5.710  15.059  1.0245  1.2313  2.2796
11244TIP3   OH255146   4.916   1.142   1.838  0.4464  0.0441  0.2566
11244TIP3    H155147   4.959   1.228   1.836 -0.9561  0.7638 -0.0121
11244TIP3    H255148   4.928   1.112   1.928  3.7715 -1.0236 -0.3865
11245TIP3   OH255149   0.650   3.139  16.729 -0.1826  0.3340  0.0397
11245TIP3    H155150   0.593   3.064  16.711 -0.7748  1.1343 -1.5602
11245TIP3    H255151   0.696   3.154  16.646  3.2932 -1.0095  1.5564
11246TIP3   OH255152   2.722   0.571   3.299  0.2705 -0.4257 -0.3490
11246TIP3    H155153   2.673   0.650   3.277  1.6383 -0.2251 -3.0424
11246TIP3    H255154   2.690   0.505   3.238  1.2844 -1.1164 -0.1555
11247TIP3   OH255155   4.626   2.103   1.169 -0.3886 -0.2046 -0.6636
11247TIP3    H155156   4.642   2.077   1.078 -1.0366  0.1318 -0.8803
11247TIP3    H255157   4.579   2.187   1.162  2.4188  1.5731  0.0137
11248TIP3   OH255158   0.686   6.135  11.276  0.4644  0.4102 -0.4826
11248TIP3    H155159   0.740   6.123  11.198 -0.2318 -2.3986 -0.6315
11248TIP3    H255160   0.748   6.131  11.349  0.8821  1.0053 -0.8019
11249TIP3   OH255161   6.339   5.494   1.368 -0.0375 -0.2195 -0.4472
11249TIP3    H155162   6.426   5.529   1.354  0.9613 -1.9949  0.8581
11249TIP3    H255163   6.288   5.567   1.403  1.9212  0.0446  2.1410
11250TIP3   OH255164   2.552   5.989  13.434  0.6640 -0.1489 -0.5776
11250TIP3    H155165   2.554   6.009  13.528 -1.4110 -0.2502 -0.4695
11250TIP3    H255166   2.473   5.936  13.423  0.8913 -0.1562 -2.3911
11251TIP3   OH255167   5.841   6.681   1.202  0.2354 -0.3919 -0.2323
11251TIP3    H155168   5.856   6.703   1.110 -0.6978  2.3070  0.1701
11251TIP3    H255169   5.929   6.675   1.239  0.6179 -1.4326 -1.2542
11252TIP3   OH255170   3.616   1.343   2.698  0.4690  0.2298 -0.0276
11252TIP3    H155171   3.632   1.437   2.689 -0.1548  0.2442 -1.2102
11252TIP3    H255172   3.521   1.334   2.691  0.3603 -0.3418  1.7278
11253TIP3   OH255173   1.188   4.219   0.803 -0.3382  0.4360  0.6566
11253TIP3    H155174   1.111   4.269   0.777  0.2390  0.4422 -1.2249
11253TIP3    H255175   1.160   4.127   0.798 -0.0792  0.4040 -0.7256
11254TIP3   OH255176   0.010   5.658  15.336 -0.1620 -0.1908  0.1708
11254TIP3    H155177  -0.053   5.730  15.342  1.8837  1.6192  1.5068
11254TIP3    H255178   0.091   5.695  15.371  1.5662 -2.5220 -1.1373
11255TIP3   OH255179   6.031   2.562  14.865 -0.3984 -0.1901  0.3563
11255TIP3    H155180   6.094   2.524  14.927 -0.2375  1.1973  1.0956
11255TIP3    H255181   5.946   2.547  14.906 -0.6405 -2.4712 -0.8619
11256TIP3   OH255182   1.781   1.999  11.729  0.4702  0.5501 -0.8467
11256TIP3    H155183   1.788   2.050  11.648 -1.5339 -0.2733 -1.5947
11256TIP3    H255184   1.688   2.002  11.751  0.6634 -0.9491  0.3023
11257TIP3   OH255185   4.953   6.212   5.658  0.0550  0.1865 -0.1720
11257TIP3    H155186   4.935   6.295   5.702  1.2925  1.5178 -2.0309
11257TIP3    H255187   5.015   6.234   5.589  1.2229 -2.4804 -0.1020
11258TIP3   OH255188   4.502   4.683   0.087  0.1142  1.3125  0.1003
11258TIP3    H155189   4.536   4.763   0.128  1.4102  0.8433 -0.0135
11258TIP3    H255190   4.580   4.631   0.067 -0.5919  0.8271 -1.5230
11259TIP3   OH255191   0.081   5.841   0.842  0.5287  0.3472 -0.4061
11259TIP3    H155192   0.160   5.878   0.804  0.8139 -0.4925 -0.6624
11259TIP3    H255193   0.111   5.795   0.921  0.7443 -2.1511 -1.8472
11260TIP3   OH255194   3.022   5.825   5.822  0.1851 -0.1541 -0.6082
11260TIP3    H155195   2.957   5.791   5.885  0.2457 -0.7010 -0.8355
11260TIP3    H255196   2.980   5.902   5.784 -0.3862 -0.5723 -0.8374
11261TIP3   OH255197   2.071   1.083  15.073  0.0177  0.4065  0.9113
11261TIP3    H155198   2.127   1.160  15.061  0.3022  0.0237 -0.2635
11261TIP3    H255199   2.050   1.053  14.984 -0.4526 -0.6215  1.3468
11262TIP3   OH255200   5.902   1.548   3.594 -0.3283 -0.2929  0.0044
11262TIP3    H155201   5.836   1.493   3.553 -2.8835  0.8843  2.2355
11262TIP3    H255202   5.956   1.488   3.646  0.0899 -1.1975 -1.4241
11263TIP3   OH255203   2.326   5.413   1.367 -0.6509  0.1216 -0.1321
11263TIP3    H155204   2.270   5.386   1.440 -0.4033  0.2521  0.1074
11263TIP3    H255205   2.415   5.402   1.400 -0.5292 -0.1717 -0.5403
11264TIP3   OH255206   2.822   0.766   3.631  0.0845 -0.1549  0.4311
11264TIP3    H155207   2.727   0.754   3.634  0.0350  0.3145  1.0426
11264TIP3    H255208   2.835   0.850   3.586  0.2251 -0.3452  0.1109
11265TIP3   OH255209   5.164   6.159   6.545  0.9082  0.3157 -0.0878
11265TIP3    H155210   5.219   6.192   6.474  1.9889 -0.1115  0.5276
11265TIP3    H255211   5.170   6.227   6.613 -2.2330  2.0342 -1.3271
11266TIP3   OH255212   2.789   6.070   2.789 -0.0461  0.3416  0.4089
11266TIP3    H155213   2.728   6.055   2.717 -0.8664 -1.4365  1.4003
11266TIP3    H255214   2.837   5.987   2.797 -0.3111  0.3143  2.1863
11267TIP3   OH255215   6.477   6.071   2.915 -0.5446  0.3225 -0.1086
11267TIP3    H155216   6.396   6.118   2.933 -1.1961 -0.8591  0.1676
11267TIP3    H255217   6.449   5.989   2.873  0.5626  0.2617 -0.7879
11268TIP3   OH255218   4.204   4.086  13.425 -0.3963  0.1442 -0.4985
11268TIP3    H155219   4.225   3.993  13.414 -0.8705 -0.1675  1.0832
11268TIP3    H255220   4.186   4.116  13.336 -0.2309 -1.2740 -1.0459
11269TIP3   OH255221   0.815   3.055  14.518  0.5299 -0.1150  0.0221
11269TIP3    H155222   0.728   3.020  14.498 -0.3452  0.2511  2.8459
11269TIP3    H255223   0.869   3.025  14.445 -1.6136 -1.6483 -1.0620
11270TIP3   OH255224   4.584   1.009  16.573  0.0068  0.0207  0.7659
11270TIP3    H155225   4.532   0.934  16.544  1.9327 -0.4377 -1.9105
11270TIP3    H255226   4.530   1.085  16.554 -0.5009 -0.5142  0.0129
11271TIP3   OH255227   6.222   0.247   3.681  0.3174  0.0244 -0.1140
11271TIP3    H155228   6.289   0.187   3.646 -0.6998 -1.2474  0.0186
11271TIP3    H255229   6.186   0.200   3.756  0.8984  1.7305  1.2841
11272TIP3   OH255230   2.245   3.612  11.192  0.0901  0.1396 -0.1381
11272TIP3    H155231   2.249   3.666  11.271 -0.8304  1.6694 -1.0855
11272TIP3    H255232   2.327   3.632  11.146 -0.5191  1.2296 -0.7774
11273TIP3   OH255233   3.711   5.006  10.733 -0.5176  0.2778  0.4246
11273TIP3    H155234   3.765   4.934  10.766 -0.9512  0.0442  0.6465
11273TIP3    H255235   3.736   5.015  10.641 -1.6669 -1.3380 -0.1134
11274TIP3   OH255236   1.452   1.096  17.083  0.4017 -0.3519 -0.2927
11274TIP3    H155237   1.415   1.011  17.108 -0.4165  0.3035  0.7960
11274TIP3    H255238   1.539   1.096  17.123 -0.5625  0.3318  1.9745
11275TIP3   OH255239   0.353   1.144  17.015 -0.0732  0.6368  0.0216
11275TIP3    H155240   0.344   1.150  16.920  3.2720 -1.9952 -0.6827
11275TIP3    H255241   0.426   1.202  17.036 -0.0824  0.3676  0.8223
11276TIP3   OH255242   3.829   4.492  12.446  0.7974  0.6189  0.1609
11276TIP3    H155243   3.745   4.512  12.488  0.9403  2.5956 -0.3961
11276TIP3    H255244   3.889   4.476  12.518 -0.0668 -1.1233  0.5701
11277TIP3   OH255245   3.987   2.468  13.612 -0.1882  0.2506 -0.0071
11277TIP3    H155246   3.912   2.438  13.561  0.0190  1.2035 -0.9131
11277TIP3    H255247   3.973   2.562  13.623  0.6904  0.3764  0.1087
11278TIP3   OH255248   5.664   1.775   2.175  0.8998 -0.3201  0.1211
11278TIP3    H155249   5.755   1.744   2.172  1.3663  0.8682  1.0420
11278TIP3    H255250   5.672   1.869   2.188 -0.4524  0.3787 -3.1507
11279TIP3   OH255251   3.081   5.046   0.752 -0.0895  0.6408  0.0343
11279TIP3    H155252   2.995   5.006   0.739  0.0843  0.7518 -1.8418
11279TIP3    H255253   3.141   4.973   0.761 -0.0533  0.4637 -1.3427
11280TIP3   OH255254   1.104   0.687   5.656 -0.2644  0.0281  0.0985
11280TIP3    H155255   1.111   0.778   5.628 -0.7677  0.3134  0.8614
11280TIP3    H255256   1.040   0.689   5.727  0.5135 -0.7570  0.8432
11281TIP3   OH255257   3.739   0.031  17.151 -0.5469  0.1058  0.5847
11281TIP3    H155258   3.768   0.060  17.065  0.9610  0.1633  1.0815
11281TIP3    H255259   3.718  -0.062  17.139  1.5648 -0.4193  0.5432
11282TIP3   OH255260   3.333   3.371   2.824 -0.1489 -0.2515 -0.1789
11282TIP3    H155261   3.428   3.369   2.834 -0.1611  1.1318  0.4945
11282TIP3    H255262   3.313   3.459   2.792 -1.0562 -1.2242 -2.5648
11283TIP3   OH255263   1.742   6.143   4.176  0.1912  0.4088 -0.6083
11283TIP3    H155264   1.798   6.199   4.123 -0.2656 -0.3575 -1.9313
11283TIP3    H255265   1.718   6.071   4.118 -0.3186 -0.4627  0.6449
11284TIP3   OH255266   5.252   0.142   6.350  0.7537  0.6418 -0.0376
11284TIP3    H155267   5.165   0.104   6.359  0.6417  0.8592 -0.2188
11284TIP3    H255268   5.302   0.104   6.423  0.5882  0.2977 -0.1003
11285TIP3   OH255269   3.988   5.564  13.802  0.6775 -0.1874  0.3137
11285TIP3    H155270   3.958   5.477  13.776  0.6483 -0.2485  0.5530
11285TIP3    H255271   3.923   5.624  13.766  2.1203 -0.0340 -2.2798
11286TIP3   OH255272   2.593   0.784  14.288 -0.0500  0.5788 -0.1790
11286TIP3    H155273   2.528   0.716  14.307  1.7421 -0.6044  2.2797
11286TIP3    H255274   2.542   0.858  14.256 -2.1859 -1.5242 -1.9971
11287TIP3   OH255275   1.973   5.555   1.978 -0.4435 -0.0579  0.0624
11287TIP3    H155276   1.933   5.601   2.052 -0.5758 -1.0858  0.6401
11287TIP3    H255277   2.064   5.541   2.005 -0.1413  0.7147 -0.5210
11288TIP3   OH255278   0.460   6.706   3.126 -0.5794 -0.3719  0.5421
11288TIP3    H155279   0.384   6.654   3.102 -0.8417  0.4522 -0.5002
11288TIP3    H255280   0.513   6.710   3.047  0.5419 -0.8773  1.2305
11289TIP3   OH255281   4.463   1.329  14.130  0.0470 -0.3637  0.3310
11289TIP3    H155282   4.404   1.339  14.056 -1.2375 -0.4246  1.3073
11289TIP3    H255283   4.455   1.237  14.155  3.4631 -1.4278 -1.8100
11290TIP3   OH255284   4.371   1.557  17.071 -0.5624 -0.2030 -0.0395
11290TIP3    H155285   4.297   1.497  17.087 -0.2919 -0.6316 -0.3702
11290TIP3    H255286   4.334   1.627  17.018 -0.2392 -1.6176 -2.2724
11291TIP3   OH255287   0.807   4.680  10.803  0.3659 -0.2378  0.5442
11291TIP3    H155288   0.861   4.666  10.881  0.1860 -0.5031  0.6209
11291TIP3    H255289   0.852   4.632  10.733  2.1611  2.3200 -0.2464
11292TIP3   OH255290   4.727   3.990  10.850  0.4979  0.5789  0.3669
11292TIP3    H155291   4.634   4.007  10.840  0.0990 -1.1829  0.6717
11292TIP3    H255292   4.755   3.956  10.764  0.8742  1.1287  0.2657
11293TIP3   OH255293   0.845   3.687   4.024 -0.5899  0.0225  0.3869
11293TIP3    H155294   0.940   3.693   4.008 -0.5926 -0.5062  0.1484
11293TIP3    H255295   0.810   3.648   3.943 -0.8734 -0.7853  0.8880
11294TIP3   OH255296   0.039   6.129  14.186  0.1416  0.4999 -0.4944
11294TIP3    H155297   0.091   6.204  14.158  0.7909  0.2951  0.1523
11294TIP3    H255298   0.090   6.089  14.256 -0.7522  0.1338 -0.0395
11295TIP3   OH255299   6.046   1.629   1.884  0.2564  0.6865 -0.8755
11295TIP3    H155300   6.030   1.712   1.929 -2.9127 -0.7066  0.9516
11295TIP3    H255301   6.099   1.578   1.945 -2.2114 -0.4023  0.5291
11296TIP3   OH255302   1.155   4.327   2.137  0.5669 -0.0535  0.4162
11296TIP3    H155303   1.171   4.235   2.115  1.5750  0.4334 -1.0129
11296TIP3    H255304   1.214   4.345   2.210  1.2166 -0.2404 -0.0558
11297TIP3   OH255305   1.669   2.911   3.096 -0.0994 -0.3958 -0.0304
11297TIP3    H155306   1.757   2.913   3.058  0.4465 -2.0945  1.0309
11297TIP3    H255307   1.616   2.964   3.036  2.2476  3.5600  1.0247
11298TIP3   OH255308   1.971   5.041  14.362  0.0957 -0.0624 -0.7117
11298TIP3    H155309   2.049   5.088  14.333 -0.5505  0.7179 -1.2318
11298TIP3    H255310   1.986   4.950  14.333  0.9511 -0.0003 -0.4964
11299TIP3   OH255311   1.639   4.679  11.802 -0.0102  0.0773  0.5961
11299TIP3    H155312   1.583   4.604  11.781  0.3414 -0.5900  1.9597
11299TIP3    H255313   1.725   4.655  11.767 -0.2365  0.5279 -0.3138
11300TIP3   OH255314   5.326   2.867   0.703 -0.7132 -0.4699 -0.5382
11300TIP3    H155315   5.275   2.898   0.778  0.7133 -0.7082  0.5726
11300TIP3    H255316   5.408   2.836   0.741  1.4147  2.3055 -2.4516
11301TIP3   OH255317   4.876   1.994   2.397 -0.5813 -0.1374  0.2782
11301TIP3    H155318   4.893   1.908   2.359  1.0700 -0.9399  2.5820
11301TIP3    H255319   4.791   1.985   2.440  0.0436 -1.0319  1.4053
11302TIP3   OH255320   1.778   5.712   0.222 -0.6234 -0.0206 -0.3861
11302TIP3    H155321   1.693   5.726   0.181  0.2959 -0.7721 -2.7121
11302TIP3    H255322   1.769   5.749   0.310 -4.3697 -3.0044  0.7262
11303TIP3   OH255323   3.993   4.317   0.012 -0.8039 -0.1591 -0.0054
11303TIP3    H155324   3.922   4.353   0.065 -1.3675 -1.1043 -0.0901
11303TIP3    H255325   3.956   4.238  -0.027 -0.4501  0.6062 -1.9733
11304TIP3   OH255326   3.018   0.874  17.071  0.2058 -0.5886  0.2175
11304TIP3    H155327   3.093   0.816  17.082 -1.1728 -2.4003  0.4845
11304TIP3    H255328   3.017   0.928  17.150  2.6349  1.2687 -0.8994
11305TIP3   OH255329   5.711   6.669  15.087  0.4214  0.1060 -0.5970
11305TIP3    H155330   5.725   6.640  15.177  2.3992  0.1680 -0.8470
11305TIP3    H255331   5.727   6.764  15.090 -0.2509  0.2317 -0.8793
11306TIP3   OH255332   4.826   6.266  11.399 -0.2175  0.1580 -0.1811
11306TIP3    H155333   4.739   6.226  11.404 -0.3930  0.3269 -1.5074
11306TIP3    H255334   4.874   6.212  11.337  0.4039  0.4571  0.0319
11307TIP3   OH255335   1.003   2.895  16.328  0.1682 -0.4953 -0.1876
11307TIP3    H155336   1.008   2.803  16.355 -1.0943 -0.3549  0.5997
11307TIP3    H255337   0.966   2.940  16.403  1.3371  0.7734 -0.3473
11308TIP3   OH255338   0.701   2.489  11.001 -0.4108 -0.4551  0.6132
11308TIP3    H155339   0.790   2.512  10.973 -0.0050 -0.0118  2.1951
11308TIP3    H255340   0.680   2.411  10.949  0.2791  0.3270 -0.9143
11309TIP3   OH255341   4.009   2.436   3.970 -0.1033 -0.1516 -0.2336
11309TIP3    H155342   4.038   2.407   4.057  0.4835 -0.6600 -0.5798
11309TIP3    H255343   4.062   2.383   3.910  0.4081  1.0947 -0.8981
11310TIP3   OH255344   3.377   6.284   4.925 -0.2103  0.0796  0.2364
11310TIP3    H155345   3.372   6.374   4.955  0.7536  0.4106 -0.5569
11310TIP3    H255346   3.450   6.282   4.864 -0.9117 -1.0012 -0.6155
11311TIP3   OH255347   1.792   3.707  12.090 -0.1293 -0.8652 -0.0345
11311TIP3    H155348   1.814   3.618  12.062  0.9598 -0.5206 -0.3087
11311TIP3    H255349   1.812   3.762  12.015  0.2338 -0.2538  0.5010
11312TIP3   OH255350   3.226   2.141   6.102  0.1088  0.5963  0.8089
11312TIP3    H155351   3.217   2.236   6.097  1.5594  0.7861  1.2891
11312TIP3    H255352   3.318   2.127   6.123 -0.5874 -0.8291  3.3413
11313TIP3   OH255353   3.769   5.108  14.184  0.5900  0.7719 -0.3685
11313TIP3    H155354   3.734   5.026  14.151  0.8290  1.2000 -1.7911
11313TIP3    H255355   3.744   5.173  14.118  2.9574  1.3033 -0.8527
11314TIP3   OH255356   3.840   5.497  14.096  0.0478 -0.2229 -0.1209
11314TIP3    H155357   3.906   5.507  14.026  1.8746  1.0628  1.6748
11314TIP3    H255358   3.779   5.569  14.081  0.1511 -0.2411 -0.6643
11315TIP3   OH255359   1.670   4.188   4.729 -0.5129  0.0012  0.5136
11315TIP3    H155360   1.623   4.244   4.790 -1.3186 -1.0318  0.8796
11315TIP3    H255361   1.749   4.237   4.706 -1.5740  1.6039  0.1801
11316TIP3   OH255362   6.491   0.137  16.410  0.0191  0.7501  0.4106
11316TIP3    H155363   6.524   0.203  16.349  0.3570  2.6362  2.4994
11316TIP3    H255364   6.568   0.108  16.458 -0.1022 -1.3698 -0.5708
11317TIP3   OH255365   3.550   3.115  16.119 -0.4229 -0.1180  0.3337
11317TIP3    H155366   3.604   3.163  16.055 -0.7541 -1.9092 -1.3923
11317TIP3    H255367   3.566   3.160  16.202  1.9502  0.8307 -0.5392
11318TIP3   OH255368   2.373   3.209  15.950  0.4044 -0.1828  0.3461
11318TIP3    H155369   2.309   3.269  15.911  1.2636  0.8374  0.4280
11318TIP3    H255370   2.344   3.198  16.040  0.4156  0.3929  0.4233
11319TIP3   OH255371   5.500   4.662   6.230  0.3281 -0.5938 -0.2799
11319TIP3    H155372   5.421   4.670   6.283  0.4106 -0.6695 -0.1459
11319TIP3    H255373   5.546   4.745   6.244  2.2110 -1.9827  2.7598
11320TIP3   OH255374   6.358   1.930   2.153 -0.4436 -0.2304  0.0645
11320TIP3    H155375   6.365   2.002   2.215  1.2223  0.0940 -0.4380
11320TIP3    H255376   6.407   1.960   2.076  0.3465 -1.9137 -0.1277
11321TIP3   OH255377   2.350   2.267  11.428  0.2862  0.1677 -0.2171
11321TIP3    H155378   2.362   2.173  11.414 -1.2804 -0.2961  1.2452
11321TIP3    H255379   2.324   2.301  11.342 -0.8496 -1.0561 -0.3904
11322TIP3   OH255380   4.071   5.612   6.225  0.2873  0.3351 -0.8581
11322TIP3    H155381   4.115   5.655   6.299 -0.4167  0.5018 -0.5315
11322TIP3    H255382   3.978   5.624   6.242  0.0604 -1.4805 -0.6695
11323TIP3   OH255383   4.332   1.814  15.582  0.0030  0.3417 -0.6146
11323TIP3    H155384   4.394   1.760  15.631  0.2131  0.1479 -1.0904
11323TIP3    H255385   4.246   1.783  15.610  0.0751  1.5948  1.1644
11324TIP3   OH255386   5.112   0.802  11.187  0.2803 -0.5647 -0.3686
11324TIP3    H155387   5.122   0.754  11.105 -2.8960 -1.1851 -0.5214
11324TIP3    H255388   5.067   0.882  11.163 -2.2882 -1.5394  0.8689
11325TIP3   OH255389   4.712   1.129   4.120 -0.2864  0.3246 -0.2613
11325TIP3    H155390   4.683   1.106   4.208 -1.6059  1.0358 -0.4919
11325TIP3    H255391   4.635   1.116   4.065  0.1600  1.0997 -1.0971
11326TIP3   OH255392   2.943   2.939   0.643 -0.4170 -0.3682 -0.3822
11326TIP3    H155393   2.944   3.020   0.591 -2.4110 -0.4026 -0.5455
11326TIP3    H255394   2.957   2.869   0.580 -1.1867 -0.2934 -0.6510
11327TIP3   OH255395   0.912   1.905   4.572  0.5991 -0.4344 -0.5566
11327TIP3    H155396   0.894   1.963   4.647 -2.2459 -0.3554 -1.1781
11327TIP3    H255397   0.876   1.952   4.497  2.0553 -1.1795 -1.7571
11328TIP3   OH255398   4.088   0.686  15.510  0.5141  1.0714 -0.5878
11328TIP3    H155399   4.129   0.634  15.580  1.2526 -1.5560 -2.7964
11328TIP3    H255400   4.006   0.717  15.549  0.3021 -1.3386  1.1205
11329TIP3   OH255401   2.950   4.873   3.670 -0.3353 -0.2100  0.8270
11329TIP3    H155402   2.865   4.917   3.666 -0.0816  0.2668  0.3508
11329TIP3    H255403   2.931   4.785   3.701 -1.0151 -0.1364  0.6391
11330TIP3   OH255404   5.759   2.544   2.233  0.2138  0.1641 -0.4930
11330TIP3    H155405   5.850   2.516   2.219  0.0167 -0.7695  0.0450
11330TIP3    H255406   5.753   2.563   2.326 -0.2360 -0.0960 -0.4669
11331TIP3   OH255407   0.419   1.172  12.700 -0.5049 -0.2158 -0.2360
11331TIP3    H155408   0.399   1.265  12.705 -1.4509 -0.3335 -1.3443
11331TIP3    H255409   0.358   1.138  12.634 -0.1392 -1.6055  0.1080
11332TIP3   OH255410   1.749   2.292  14.348 -0.1475 -0.0882 -0.6083
11332TIP3    H155411   1.708   2.339  14.420  0.6351  1.3499 -1.0670
11332TIP3    H255412   1.801   2.224  14.390  0.8025  1.1187  0.2503
11333TIP3   OH255413   1.816   4.106   4.949 -0.1978  0.2094 -0.1508
11333TIP3    H155414   1.831   4.014   4.970 -1.3969 -0.4896 -2.0606
11333TIP3    H255415   1.759   4.104   4.872 -0.8422  2.5660  0.1811
11334TIP3   OH255416   2.403   3.336  16.369 -0.1289  0.2942 -0.0437
11334TIP3    H155417   2.454   3.390  16.308  0.4912 -0.7868 -0.5125
11334TIP3    H255418   2.423   3.372  16.455 -0.1134  1.1181 -0.3731
11335TIP3   OH255419   4.448   4.562  13.484  0.3109  0.4288  0.9692
11335TIP3    H155420   4.511   4.516  13.539  1.5565  0.4140 -0.4035
11335TIP3    H255421   4.391   4.493  13.451  1.0151  0.0942  0.4101
11336TIP3   OH255422   6.170   0.506   3.785 -1.0766 -0.3579 -0.3154
11336TIP3    H155423   6.182   0.424   3.738 -2.0951 -0.5695 -0.2420
11336TIP3    H255424   6.080   0.502   3.817 -0.3368 -0.3381  1.9224
11337TIP3   OH255425   4.147   2.472  16.691 -0.6001  0.1754  0.2277
11337TIP3    H155426   4.052   2.484  16.685 -0.4304  1.5878 -0.1457
11337TIP3    H255427   4.176   2.464  16.601 -0.5678 -2.4804  0.4172
11338TIP3   OH255428   0.379   3.377  13.430 -0.5157  0.5570 -0.2337
11338TIP3    H155429   0.305   3.360  13.489 -0.2839 -2.2584 -0.6087
11338TIP3    H255430   0.359   3.327  13.351  0.6981  1.6749 -1.3069
11339TIP3   OH255431   5.025   2.707  13.447  0.2331  0.5577 -0.7436
11339TIP3    H155432   4.959   2.755  13.497  0.2365  1.0641 -1.2077
11339TIP3    H255433   4.990   2.705  13.358 -0.4211 -1.5206 -0.4851
11340TIP3   OH255434   5.764   3.871  16.601  0.0093 -0.7020  0.3770
11340TIP3    H155435   5.808   3.824  16.531 -0.2636  0.2038 -0.4268
11340TIP3    H255436   5.676   3.832  16.605  0.2704 -1.2642  0.7377
11341TIP3   OH255437   6.173   4.324   1.115 -0.2640  0.5465 -0.0516
11341TIP3    H155438   6.158   4.232   1.135 -0.2436  0.6305  0.3546
11341TIP3    H255439   6.117   4.371   1.177 -2.6279  0.7685 -2.1705
11342TIP3   OH255440   4.686   1.005   1.739  0.8580 -0.4125 -0.1119
11342TIP3    H155441   4.638   0.987   1.820  0.6318 -0.1131 -0.1822
11342TIP3    H255442   4.773   1.032   1.769  1.2745 -1.7865 -0.0017
11343TIP3   OH255443   4.904   5.974  13.987 -0.0380  0.5411  0.0934
11343TIP3    H155444   4.869   6.039  14.047 -1.3022 -1.1736  1.3300
11343TIP3    H255445   4.994   6.001  13.972 -0.4422  2.3944  0.7596
11344TIP3   OH255446   5.267   3.612  13.593 -0.1079 -0.0610  0.0199
11344TIP3    H155447   5.282   3.612  13.498 -0.4960 -0.1148 -0.0431
11344TIP3    H255448   5.214   3.690  13.609  0.3574  0.2062  0.2570
11345TIP3   OH255449   5.890   4.599  12.892 -0.5281 -0.2300  0.6428
11345TIP3    H155450   5.845   4.616  12.975  0.2666  1.9609  0.6886
11345TIP3    H255451   5.834   4.639  12.826 -0.4088 -0.6433  0.2908
11346TIP3   OH255452   6.139   4.252  15.733  0.1038 -0.5263  0.0179
11346TIP3    H155453   6.200   4.178  15.732  0.0908 -0.5344 -0.8512
11346TIP3    H255454   6.071   4.229  15.670 -0.7996 -0.5027  0.9601
11347TIP3   OH255455   5.433   5.195   3.238  0.1512 -0.1525 -0.1593
11347TIP3    H155456   5.355   5.205   3.293  0.6001  1.0511  0.2941
11347TIP3    H255457   5.454   5.102   3.244 -0.8625 -0.3709  0.2499
11348TIP3   OH255458   1.187   2.582   1.948 -0.7763 -0.4304 -0.0551
11348TIP3    H155459   1.266   2.623   1.911 -1.3855 -0.0576 -0.9950
11348TIP3    H255460   1.207   2.489   1.952 -0.3818 -0.3679 -0.5431
11349TIP3   OH255461   5.752   5.268  14.838  0.6142  0.2564  0.4106
11349TIP3    H155462   5.775   5.360  14.846 -0.8407  0.7068 -0.1116
11349TIP3    H255463   5.783   5.227  14.918 -1.0158  1.7399  1.8849
11350TIP3   OH255464   3.003   4.830   5.739  0.2790 -0.1171  0.3619
11350TIP3    H155465   3.072   4.807   5.677 -0.5260 -0.5500 -0.3843
11350TIP3    H255466   3.049   4.840   5.823  1.2097 -0.6510 -0.0727
11351TIP3   OH255467   2.582   5.449   1.706 -0.4501 -0.4053  0.6187
11351TIP3    H155468   2.607   5.490   1.788 -0.5881 -0.7394  0.8330
11351TIP3    H255469   2.488   5.465   1.699 -0.3088  0.2602  0.1553
11352TIP3   OH255470   3.746   4.607  16.327 -0.5128  0.9353 -0.2462
11352TIP3    H155471   3.808   4.543  16.289 -1.6049 -0.7909  0.7367
11352TIP3    H255472   3.772   4.614  16.418 -0.6195  1.6566 -0.2695
11353TIP3   OH255473   5.581   2.155  16.483 -0.6563 -0.2972  0.1919
11353TIP3    H155474   5.614   2.166  16.394  1.2176  0.5057  0.9338
11353TIP3    H255475   5.529   2.234  16.499 -0.0311  0.1159  0.2042
11354TIP3   OH255476   1.737   0.952   5.042  0.3445  0.5190 -0.6185
11354TIP3    H155477   1.754   0.958   5.136 -0.8831  2.0199 -0.4470
11354TIP3    H255478   1.787   0.876   5.013  1.0609  0.2632  1.1717
11355TIP3   OH255479   3.652   3.159   4.185 -0.0725  0.1441 -0.0898
11355TIP3    H155480   3.701   3.210   4.120  2.2229 -0.0253  1.3836
11355TIP3    H255481   3.631   3.221   4.254 -1.6793  0.1268 -0.5364
11356TIP3   OH255482   5.724   6.125   0.475  0.6323 -0.5297 -0.4581
11356TIP3    H155483   5.800   6.179   0.496  1.1978 -0.7384 -1.8979
11356TIP3    H255484   5.701   6.149   0.386  0.8062 -2.5356 -1.0899
11357TIP3   OH255485   1.892   2.879  11.218  0.1162  0.1006 -0.5977
11357TIP3    H155486   1.916   2.831  11.139 -0.9079 -0.3601 -0.6463
11357TIP3    H255487   1.818   2.933  11.191 -0.0821  0.1225 -0.0154
11358TIP3   OH255488   2.933   5.892  12.376  0.0256 -0.6262  0.4548
11358TIP3    H155489   2.876   5.932  12.310  1.5408  2.9800  1.0446
11358TIP3    H255490   2.920   5.798  12.366 -2.3764 -0.1393 -2.5897
11359TIP3   OH255491   3.673   6.377  16.208 -0.2151  0.0625 -0.5031
11359TIP3    H155492   3.597   6.336  16.166 -0.1335 -0.4067 -0.2029
11359TIP3    H255493   3.670   6.344  16.298  1.3315 -1.3547 -0.9215
11360TIP3   OH255494   1.750   4.741  12.587  0.1331  0.2452  0.1899
11360TIP3    H155495   1.695   4.796  12.532 -0.4619 -0.2279  0.3026
11360TIP3    H255496   1.747   4.655  12.546  2.5455  0.6743 -1.0472
11361TIP3   OH255497   4.329   3.130  14.376  0.5277  0.3603 -0.3369
11361TIP3    H155498   4.304   3.040  14.353  1.1076  0.2780 -0.6742
11361TIP3    H255499   4.419   3.139  14.343  0.6405  0.9131  0.1055
11362TIP3   OH255500   4.958   3.140   1.400 -0.3804 -0.0237  0.5434
11362TIP3    H155501   5.048   3.108   1.404 -0.2305  0.5082  2.7605
11362TIP3    H255502   4.904   3.064   1.420 -0.2673  0.0989  1.3749
11363TIP3   OH255503   4.870   1.811  12.303 -0.5585  0.1021 -0.6239
11363TIP3    H155504   4.886   1.741  12.367  0.2962 -0.3159 -1.2829
11363TIP3    H255505   4.893   1.772  12.219 -2.2761  0.4451 -1.2837
11364TIP3   OH255506   6.514   1.739   5.614  0.2539 -0.3558  0.4742
11364TIP3    H155507   6.593   1.774   5.574  1.2619 -1.9218  0.9947
11364TIP3    H255508   6.443   1.770   5.557  1.2122  1.1188  0.0333
11365TIP3   OH255509   6.157   5.995  12.232 -0.1609  0.2391 -0.0884
11365TIP3    H155510   6.097   6.005  12.158  0.9126  0.4045 -0.9816
11365TIP3    H255511   6.137   5.909  12.268 -0.4162 -0.0406 -0.8632
11366TIP3   OH255512   2.738   4.433  10.827 -0.2325 -0.7518  0.4391
11366TIP3    H155513   2.644   4.432  10.811 -0.1426 -1.3990 -0.0814
11366TIP3    H255514   2.751   4.503  10.891 -0.8532  0.5156 -0.7891
11367TIP3   OH255515   4.024   2.999  15.632 -0.3818  0.0334 -0.4343
11367TIP3    H155516   3.954   2.982  15.569  0.2202  2.1748 -1.7900
11367TIP3    H255517   4.018   3.093  15.650  1.2764  0.0071  0.4816
11368TIP3   OH255518   6.076   6.190  15.159 -0.5369  0.1467 -0.2358
11368TIP3    H155519   6.007   6.137  15.119 -0.0861 -0.0605 -0.7416
11368TIP3    H255520   6.054   6.280  15.134 -2.1383  0.4251  1.8270
11369TIP3   OH255521   0.430   4.131  10.772 -0.1466  0.2034 -0.0074
11369TIP3    H155522   0.517   4.107  10.740 -0.8201 -2.1700 -0.2251
11369TIP3    H255523   0.384   4.162  10.694  0.2317  0.6662 -0.0505
11370TIP3   OH255524   6.452   5.159  12.934  0.0148  0.2982 -1.0218
11370TIP3    H155525   6.497   5.118  12.860 -2.3313  0.8953 -2.8890
11370TIP3    H255526   6.387   5.094  12.961  2.1842 -0.8453  2.0938
11371TIP3   OH255527   6.445   3.457   5.932  0.2503  0.4186 -0.0002
11371TIP3    H155528   6.351   3.476   5.932 -0.2151 -1.6047  0.8464
11371TIP3    H255529   6.457   3.396   5.859  0.9284  0.7626 -0.1803
11372TIP3   OH255530   5.783   1.914  10.772 -0.1874  0.0774  0.0381
11372TIP3    H155531   5.741   1.993  10.738 -1.9056 -0.6162  0.4602
11372TIP3    H255532   5.762   1.846  10.708  1.7832  0.0310 -0.6389
11373TIP3   OH255533   5.750   2.363   3.615  0.2706 -0.0681 -0.0948
11373TIP3    H155534   5.727   2.445   3.570  1.8824 -0.6606 -2.1572
11373TIP3    H255535   5.731   2.380   3.707  1.1746  2.8724 -0.3456
11374TIP3   OH255536   0.731   6.776  13.026 -0.7754  0.3969 -0.5443
11374TIP3    H155537   0.727   6.737  12.939  2.0330 -0.1463 -0.5118
11374TIP3    H255538   0.743   6.870  13.010  1.1244  0.1375 -0.8220
11375TIP3   OH255539   0.605   6.331   3.487  0.7630 -0.3331  0.0505
11375TIP3    H155540   0.526   6.291   3.524  1.4011 -0.7581  1.0023
11375TIP3    H255541   0.667   6.332   3.559  1.2591  1.0547 -0.3762
11376TIP3   OH255542   1.510   2.441  13.395 -0.2814 -0.1318 -0.0004
11376TIP3    H155543   1.458   2.361  13.395 -0.7904  0.1939  0.1618
11376TIP3    H255544   1.448   2.511  13.376 -0.6832  0.7207  3.6754
11377TIP3   OH255545   4.881   4.153   5.861 -0.3420  0.2447  0.1480
11377TIP3    H155546   4.829   4.086   5.907 -0.3934  0.1493 -0.0489
11377TIP3    H255547   4.829   4.233   5.870 -1.8860 -0.3639 -2.3228
11378TIP3   OH255548   5.777   3.768  15.684 -1.2163 -0.1041  0.2391
11378TIP3    H155549   5.848   3.735  15.739 -0.5881  1.1150  0.1738
11378TIP3    H255550   5.755   3.693  15.627 -0.9651 -0.9417  1.2160
11379TIP3   OH255551   0.323   4.236  13.946 -0.4911  0.0520 -0.1544
11379TIP3    H155552   0.285   4.261  13.861 -0.0939  1.5131  0.0704
11379TIP3    H255553   0.258   4.178  13.985 -0.0084 -1.9716 -2.1010
11380TIP3   OH255554   5.256   2.784   2.165  0.6898 -0.2698 -0.5095
11380TIP3    H155555   5.347   2.769   2.138  1.3586  0.9928  0.8997
11380TIP3    H255556   5.220   2.841   2.097  1.3654  0.2871 -0.4106
11381TIP3   OH255557   3.269   1.707   0.043  0.5822  0.2858 -0.0176
11381TIP3    H155558   3.176   1.710   0.019  0.2617 -2.6243  0.3975
11381TIP3    H255559   3.314   1.686  -0.039  0.5020 -0.9717  0.2305
11382TIP3   OH255560   4.207   1.985   0.706 -0.7420 -0.9743  0.2562
11382TIP3    H155561   4.165   2.064   0.739 -0.4823 -0.2974 -0.9776
11382TIP3    H255562   4.240   1.941   0.784 -0.3147  0.4605  0.9205
11383TIP3   OH255563   1.026   3.475   1.414  0.0967 -0.3140 -0.0818
11383TIP3    H155564   1.089   3.502   1.481  0.5453 -2.6983  0.5438
11383TIP3    H255565   0.941   3.497   1.450  0.4007  3.7457 -1.2858
11384TIP3   OH255566   1.973   0.714  15.421  0.7549  0.4256 -0.6063
11384TIP3    H155567   1.974   0.657  15.497 -3.4244 -2.9944 -2.6521
11384TIP3    H255568   2.027   0.670  15.356  0.6897  0.9168 -1.0024
11385TIP3   OH255569   1.420   6.110   5.797  0.3259 -0.4750 -0.0079
11385TIP3    H155570   1.470   6.155   5.730  0.4599 -0.3912  0.1482
11385TIP3    H255571   1.339   6.084   5.753  0.3461 -0.2833 -0.1589
11386TIP3   OH255572   6.611   2.484   0.002 -0.5416 -0.1342 -0.3338
11386TIP3    H155573   6.581   2.457  -0.084 -0.1549  0.1012 -0.5433
11386TIP3    H255574   6.569   2.568   0.018 -1.4650 -0.6822  0.1687
11387TIP3   OH255575   1.724   6.666   3.804  0.2923 -0.0895  0.0186
11387TIP3    H155576   1.775   6.733   3.848 -1.0100  0.1440  1.2449
11387TIP3    H255577   1.688   6.710   3.727  1.9615 -0.2899 -0.9310
11388TIP3   OH255578   1.685   1.770  15.604  0.2513 -0.6837  0.0022
11388TIP3    H155579   1.775   1.765  15.635  0.1922 -0.6273  0.1846
11388TIP3    H255580   1.639   1.822  15.671 -0.3712 -2.3734  0.9395
11389TIP3   OH255581   5.291   6.149  13.472  0.1263 -0.4098 -0.6098
11389TIP3    H155582   5.365   6.148  13.533  0.1997 -0.6501 -0.6990
11389TIP3    H255583   5.214   6.137  13.527  0.1277  0.1173 -0.4862
11390TIP3   OH255584   3.658   1.852  14.095  0.4396  0.3611 -0.3403
11390TIP3    H155585   3.597   1.857  14.169  2.0439  1.5502  0.9889
11390TIP3    H255586   3.667   1.943  14.066  0.0844 -0.0527 -1.8140
11391TIP3   OH255587   3.086   4.971  12.901 -0.9244 -0.4711  0.2179
11391TIP3    H155588   3.159   5.033  12.891  0.3876 -2.2675 -2.6798
11391TIP3    H255589   3.010   5.019  12.869  0.0062 -0.1424 -1.6742
11392TIP3   OH255590   0.332   4.739   1.568 -0.2255 -0.8736 -0.0967
11392TIP3    H155591   0.400   4.713   1.507  0.4765  1.6356 -0.4884
11392TIP3    H255592   0.259   4.768   1.513  0.9063  2.7277  0.0000
11393TIP3   OH255593   4.225   1.578  14.285  0.1922  0.5104  0.6832
11393TIP3    H155594   4.280   1.647  14.323  2.1293  0.0649 -1.1584
11393TIP3    H255595   4.218   1.601  14.193 -0.0234 -1.1780  0.2509
11394TIP3   OH255596   5.305   2.526  10.760 -0.5478 -0.5863  0.0815
11394TIP3    H155597   5.295   2.541  10.854  1.0071  1.6625 -0.0353
11394TIP3    H255598   5.391   2.483  10.752 -1.0165 -1.4936 -0.2960
11395TIP3   OH255599   2.420   1.828   5.821 -0.1428 -0.1858  0.7137
11395TIP3    H155600   2.490   1.892   5.829 -0.8941  0.6128  1.1283
11395TIP3    H255601   2.395   1.809   5.912 -2.4662  1.8442  0.6028
11396TIP3   OH255602   4.089   4.292   3.696  0.3994  0.3482  0.1593
11396TIP3    H155603   4.095   4.375   3.648 -0.9906  0.7586  0.6492
11396TIP3    H255604   4.062   4.229   3.630 -1.5500  0.9210  0.3485
11397TIP3   OH255605   5.390   5.194  12.664 -0.2145 -0.2598 -0.6409
11397TIP3    H155606   5.365   5.258  12.597  0.3413 -0.6317 -1.2079
11397TIP3    H255607   5.325   5.124  12.654  0.7448 -1.0124 -1.8089
11398TIP3   OH255608   3.330   0.935  10.733 -0.0972 -0.0406 -0.5513
11398TIP3    H155609   3.342   1.029  10.747 -0.4336  0.3987 -2.7918
11398TIP3    H255610   3.236   0.921  10.748 -0.0800  0.0149 -0.3892
11399TIP3   OH255611   0.481   3.274   6.785 -0.0272 -0.0669  0.3093
11399TIP3    H155612   0.537   3.214   6.736  1.5440  2.1971 -0.8440
11399TIP3    H255613   0.516   3.361   6.765 -2.0999  1.2506  2.0081
11400TIP3   OH255614   6.335   1.338   0.002 -0.1642  0.1415 -0.2844
11400TIP3    H155615   6.281   1.405   0.042  0.2239  0.2151  0.1175
11400TIP3    H255616   6.295   1.324  -0.084 -0.6102  0.4436 -0.1310
11401TIP3   OH255617   6.488   2.190   2.735 -0.2660  0.3366  0.8016
11401TIP3    H155618   6.417   2.233   2.688  0.2428  0.0795 -0.2235
11401TIP3    H255619   6.499   2.106   2.690  0.7650  0.4216  0.8695
11402TIP3   OH255620   1.662   1.086   2.488  0.3165  0.1988  0.0684
11402TIP3    H155621   1.595   1.147   2.518 -0.7239 -1.0767  0.4571
11402TIP3    H255622   1.682   1.034   2.566 -0.0826 -1.0722 -0.6543
11403TIP3   OH255623   5.172   4.402   0.926 -0.2368 -0.6557 -0.2650
11403TIP3    H155624   5.080   4.396   0.901 -0.7255  1.3601  0.8716
11403TIP3    H255625   5.207   4.473   0.871  0.2669 -0.4597  0.3009
11404TIP3   OH255626   5.709   4.770   2.475  0.0419 -0.2142  0.2623
11404TIP3    H155627   5.791   4.742   2.515  1.4566  0.7161 -1.8306
11404TIP3    H255628   5.649   4.696   2.488  1.5170 -1.3399  0.9012
11405TIP3   OH255629   1.788   0.206  16.647 -0.0758 -0.0358 -0.8653
11405TIP3    H155630   1.822   0.188  16.560 -0.3419 -1.9773 -0.6140
11405TIP3    H255631   1.752   0.123  16.676  1.5995  0.0502  1.8197
11406TIP3   OH255632   4.393   3.611   5.186 -0.1412  0.3081 -0.5143
11406TIP3    H155633   4.463   3.666   5.219  1.4204 -1.1944 -1.1951
11406TIP3    H255634   4.424   3.580   5.101 -1.2402 -1.0957 -0.4540
11407TIP3   OH255635   2.197   6.417  11.588  0.3101 -0.2268  0.1252
11407TIP3    H155636   2.102   6.400  11.583  0.0893  1.2617 -1.7063
11407TIP3    H255637   2.230   6.389  11.503  1.6688 -1.3893  1.0065
11408TIP3   OH255638   5.090   2.890   1.688 -0.1527  0.2558 -0.0266
11408TIP3    H155639   5.142   2.847   1.621 -1.9043 -0.0636 -1.2355
11408TIP3    H255640   5.148   2.957   1.725  1.7034 -1.2969  0.0010
11409TIP3   OH255641   1.721   0.820   3.775 -0.4753 -0.2028  0.0563
11409TIP3    H155642   1.781   0.752   3.804 -0.5785 -0.4582 -0.3323
11409TIP3    H255643   1.668   0.779   3.707 -0.0473  0.4774 -0.7040
11410TIP3   OH255644   3.963   3.801  15.821 -0.6767 -0.6215 -0.0539
11410TIP3    H155645   3.868   3.796  15.823 -0.6244 -1.9937 -0.4944
11410TIP3    H255646   3.991   3.724  15.771  0.7193 -1.0185  1.2585
11411TIP3   OH255647   3.825   4.193   5.268 -0.2367  0.0467  0.5200
11411TIP3    H155648   3.739   4.184   5.227 -0.2517  1.4069  0.2269
11411TIP3    H255649   3.886   4.153   5.207 -0.1890  2.4755 -1.1338
11412TIP3   OH255650   2.160   2.238  14.906 -0.3153  0.2072  0.2890
11412TIP3    H155651   2.154   2.276  14.994 -0.6495  0.1582  0.2903
11412TIP3    H255652   2.253   2.221  14.893 -0.0052  2.0702 -0.1648
11413TIP3   OH255653   1.853   1.712   3.974  0.3936 -0.5375 -0.3967
11413TIP3    H155654   1.809   1.670   3.899  1.5153 -1.5236 -0.5266
11413TIP3    H255655   1.900   1.641   4.017  0.6206  0.2215  0.6382
11414TIP3   OH255656   5.788   6.068   4.860  0.0791 -0.1182  0.1711
11414TIP3    H155657   5.718   6.013   4.895  0.0401 -0.2365 -0.0948
11414TIP3    H255658   5.755   6.099   4.776  0.0627  0.3908  0.3616
11415TIP3   OH255659   2.478   4.778   0.379 -0.2394 -0.1453  0.4468
11415TIP3    H155660   2.419   4.830   0.324 -0.2248 -0.3719  0.2136
11415TIP3    H255661   2.544   4.744   0.318 -0.0094 -0.0950  0.6652
11416TIP3   OH255662   4.306   6.677   1.890  0.3595  0.4303  0.0423
11416TIP3    H155663   4.263   6.694   1.806 -0.3433  1.4445  0.5822
11416TIP3    H255664   4.370   6.748   1.898 -0.8912  1.4944  1.1979
11417TIP3   OH255665   0.436   5.050  10.691  0.2333  0.2737 -0.4896
11417TIP3    H155666   0.453   5.033  10.598  2.0793  0.5229 -0.2348
11417TIP3    H255667   0.462   4.969  10.736  0.2122  0.4740 -0.1118
11418TIP3   OH255668   1.905   0.418  12.403 -0.4189  0.2782 -0.2085
11418TIP3    H155669   1.817   0.446  12.378 -0.8448  0.3266  1.2019
11418TIP3    H255670   1.939   0.492  12.455  0.4919  0.2974 -0.8271
11419TIP3   OH255671   1.666   2.407  10.535  0.1675 -0.6324  0.1581
11419TIP3    H155672   1.758   2.404  10.506 -0.5068 -1.6388 -2.0939
11419TIP3    H255673   1.617   2.427  10.455 -1.6675 -1.0009  1.1484
11420TIP3   OH255674   3.703   5.390   3.188 -0.5600 -0.3606  0.3671
11420TIP3    H155675   3.613   5.422   3.191 -0.1976  0.7917 -0.4381
11420TIP3    H255676   3.700   5.316   3.127 -0.7463  0.4961 -0.7013
11421TIP3   OH255677   0.096   5.270  14.997  0.4248  0.4185 -0.2917
11421TIP3    H155678   0.038   5.339  15.028 -0.8587 -0.6510 -0.1888
11421TIP3    H255679   0.169   5.316  14.955  0.0239  1.8196  0.4916
11422TIP3   OH255680   3.221   6.457   0.676 -0.0464 -0.2221 -0.2905
11422TIP3    H155681   3.291   6.416   0.727 -0.3940 -1.3357 -0.6985
11422TIP3    H255682   3.231   6.423   0.588  0.3194  1.4112 -0.9199
11423TIP3   OH255683   3.662   0.719  13.550 -0.3733  0.5435  0.8669
11423TIP3    H155684   3.746   0.727  13.595  0.0026  0.6051  0.1669
11423TIP3    H255685   3.683   0.679  13.465 -0.8717  1.6965  0.1692
11424TIP3   OH255686   0.054   3.079   0.674  0.2643  0.0294  0.1642
11424TIP3    H155687   0.095   3.125   0.747 -0.7968  0.1213  0.7055
11424TIP3    H255688   0.017   3.148   0.619  1.6126  0.0060 -0.8281
11425TIP3   OH255689   0.931   4.569  14.204  0.0432  0.1533  0.4001
11425TIP3    H155690   1.003   4.518  14.242 -1.1252 -1.5551  0.4554
11425TIP3    H255691   0.900   4.516  14.131 -0.5542  1.3187 -0.2187
11426TIP3   OH255692   4.939   1.027   0.582 -0.4453 -0.5907 -0.0088
11426TIP3    H155693   5.011   0.964   0.588 -0.6083 -0.7270  0.4979
11426TIP3    H255694   4.863   0.979   0.614 -1.0172 -0.8345 -1.6466
11427TIP3   OH255695   5.064   6.219   0.524  0.0163  0.1741 -0.7408
11427TIP3    H155696   5.031   6.166   0.452 -0.0517 -0.5766 -0.1775
11427TIP3    H255697   5.042   6.309   0.501 -0.6285 -0.1277 -1.3168
11428TIP3   OH255698   6.077   6.615   4.488 -0.2925 -0.0677 -0.1700
11428TIP3    H155699   6.020   6.554   4.440 -0.2391  0.7884 -1.3666
11428TIP3    H255700   6.019   6.686   4.514  0.2419  0.9936 -1.7202
11429TIP3   OH255701   1.360   0.176   4.699 -0.1182 -0.3100  0.1949
11429TIP3    H155702   1.322   0.101   4.652 -0.6383 -1.1757  1.9148
11429TIP3    H255703   1.359   0.247   4.635 -0.5395 -1.4997 -1.1825
11430TIP3   OH255704   2.045   1.578   2.014 -0.6127 -0.1134 -0.9209
11430TIP3    H155705   2.115   1.517   2.035  1.1612  2.2122  0.3225
11430TIP3    H255706   1.988   1.577   2.091  0.1522  0.7237 -0.3232
11431TIP3   OH255707   3.261   5.158   6.540  0.2299  0.4053 -0.1715
11431TIP3    H155708   3.353   5.137   6.525  0.3241  0.5831  0.1406
11431TIP3    H255709   3.215   5.075   6.528  0.3707  0.4083 -0.7932
11432TIP3   OH255710   6.383   1.402  15.244 -0.6032  0.1412  0.0064
11432TIP3    H155711   6.434   1.432  15.169  1.3669  0.2111  1.2887
11432TIP3    H255712   6.295   1.389  15.210 -0.1123  1.5390 -1.9788
11433TIP3   OH255713   1.325   4.769  14.139  0.0903  0.1101  0.0001
11433TIP3    H155714   1.247   4.717  14.161  1.3843 -1.4189  1.2403
11433TIP3    H255715   1.396   4.705  14.137  1.4343  1.5744 -0.3770
11434TIP3   OH255716   1.318   4.825  11.360  0.5798  0.2290  0.2173
11434TIP3    H155717   1.393   4.766  11.368  0.4794 -0.1442 -1.4079
11434TIP3    H255718   1.270   4.794  11.284  1.2097  3.1499 -1.5262
11435TIP3   OH255719   3.903   4.041  16.291  0.4346  0.4428  0.5578
11435TIP3    H155720   3.896   3.949  16.316 -0.2981  0.4309  0.3297
11435TIP3    H255721   3.848   4.088  16.355 -1.2507  0.4368 -0.8072
11436TIP3   OH255722   3.795   5.452  16.309  0.5870  0.0498 -0.1996
11436TIP3    H155723   3.720   5.497  16.271  2.0695  1.8117 -1.2273
11436TIP3    H255724   3.858   5.446  16.237  2.7515  1.7674  1.3854
11437TIP3   OH255725   5.042   3.231   6.423 -0.6540 -0.3336  0.2966
11437TIP3    H155726   5.112   3.165   6.427  0.0181  0.4140  1.2366
11437TIP3    H255727   5.074   3.295   6.358 -1.0090 -0.5882 -0.1346
11438TIP3   OH255728   0.598   0.917   2.620 -0.2666 -0.1206  0.3094
11438TIP3    H155729   0.573   0.906   2.528 -1.1572  0.9572  0.4060
11438TIP3    H255730   0.531   0.867   2.668 -0.2252 -0.0813  0.4066
11439TIP3   OH255731   1.445   0.152   2.470  0.7622 -0.2536 -0.1423
11439TIP3    H155732   1.534   0.179   2.445  1.0536  0.0052  1.1129
11439TIP3    H255733   1.398   0.234   2.484  0.0877 -0.3798 -1.5401
11440TIP3   OH255734   0.229   4.238  13.683  0.4466 -0.8570 -0.9899
11440TIP3    H155735   0.272   4.296  13.619 -1.1134  0.5036 -0.8883
11440TIP3    H255736   0.145   4.218  13.643 -0.2503 -0.5976  0.2962
11441TIP3   OH255737   3.044   2.228  17.164 -1.1599 -0.2046 -0.0279
11441TIP3    H155738   3.135   2.225  17.192 -1.0609  0.4875 -0.2600
11441TIP3    H255739   3.028   2.141  17.126 -0.1262  0.1645 -1.4003
11442TIP3   OH255740   6.555   6.560   4.482 -0.3945  0.3666  0.1716
11442TIP3    H155741   6.504   6.492   4.438 -1.0022  0.5162  0.6385
11442TIP3    H255742   6.565   6.527   4.572 -1.8185  1.4817  0.7758
11443TIP3   OH255743   1.795   5.795  12.379 -0.6309  0.4759  0.2364
11443TIP3    H155744   1.864   5.826  12.320 -0.6813  1.1902  0.5306
11443TIP3    H255745   1.719   5.848  12.356 -1.2026 -0.5738 -0.3459
11444TIP3   OH255746   2.481   0.004  14.003  0.7211 -0.4690  0.6600
11444TIP3    H155747   2.554  -0.021  14.059  1.0597 -1.9691 -0.3843
11444TIP3    H255748   2.494  -0.046  13.923  0.3464  1.7223 -0.8562
11445TIP3   OH255749   4.278   3.631  13.770  0.3635  0.2236 -0.1677
11445TIP3    H155750   4.186   3.616  13.746  0.5163 -0.1683 -0.5173
11445TIP3    H255751   4.288   3.588  13.855  0.1566  0.4860 -0.0113
11446TIP3   OH255752   1.064   3.993  13.202  0.3480  0.5294  0.0342
11446TIP3    H155753   1.092   3.902  13.209  2.2411  1.0727  0.1742
11446TIP3    H255754   0.977   3.989  13.162  0.8775 -1.2820 -1.0222
11447TIP3   OH255755   0.215   3.083  14.705 -0.2622  0.2502  0.1182
11447TIP3    H155756   0.177   3.136  14.774 -0.4348 -1.3326  1.3027
11447TIP3    H255757   0.305   3.067  14.733 -0.7529 -1.6216  0.7842
11448TIP3   OH255758   1.384   6.090  16.171 -0.4855 -1.0229 -0.3881
11448TIP3    H155759   1.354   6.150  16.239  0.3106 -1.2613  0.1898
11448TIP3    H255760   1.338   6.118  16.092  0.9957  1.3191 -0.4987
11449TIP3   OH255761   1.904   5.668  10.726  0.4099 -0.9502 -0.4984
11449TIP3    H155762   1.946   5.640  10.644  2.6068 -0.0018  0.2212
11449TIP3    H255763   1.965   5.641  10.794  0.2218  1.1368  0.5710
11450TIP3   OH255764   6.544   5.941  14.255 -0.5165  0.5252 -0.0845
11450TIP3    H155765   6.500   6.025  14.248 -0.1714  0.6582 -0.8171
11450TIP3    H255766   6.637   5.962  14.256 -0.4122  0.1399 -0.7196
11451TIP3   OH255767   3.466   4.677   3.310  0.5030 -0.3447 -0.1694
11451TIP3    H155768   3.447   4.731   3.387  0.9441 -1.5355  0.8009
11451TIP3    H255769   3.561   4.683   3.299  0.4314 -0.0925 -0.7048
11452TIP3   OH255770   4.924   6.489   3.966  0.1735 -0.3067  0.2162
11452TIP3    H155771   4.975   6.414   3.998  0.1720 -0.4809 -0.1862
11452TIP3    H255772   4.864   6.451   3.902 -0.4496 -0.0975  0.6705
11453TIP3   OH255773   6.437   4.294   1.000 -0.4400  0.7734 -0.3530
11453TIP3    H155774   6.483   4.341   1.069  1.8456  0.4335 -1.5660
11453TIP3    H255775   6.344   4.304   1.023  0.1433  2.2872  1.6776
11454TIP3   OH255776   5.643   3.861  15.159  0.5013  0.1614 -0.4263
11454TIP3    H155777   5.583   3.859  15.084 -0.2556  0.1179  0.1728
11454TIP3    H255778   5.598   3.813  15.227 -0.0264  2.3924  0.9186
11455TIP3   OH255779   4.198   3.671  12.878  0.1243 -0.3576 -0.1672
11455TIP3    H155780   4.175   3.739  12.815 -1.0385 -1.9344 -1.5100
11455TIP3    H255781   4.142   3.690  12.954 -0.1883  0.1624 -0.5194
11456TIP3   OH255782   3.916   3.031   4.044 -0.1372  0.4061 -0.2057
11456TIP3    H155783   3.908   3.119   4.006 -1.8436  0.1045 -0.6445
11456TIP3    H255784   3.845   2.981   4.003  3.2795 -2.5063 -3.3525
11457TIP3   OH255785   2.640   0.693  12.678 -0.5516 -0.2198  0.0862
11457TIP3    H155786   2.574   0.624  12.669  0.4864 -1.1346 -0.8070
11457TIP3    H255787   2.648   0.730  12.591  0.9442 -0.9408 -0.1189
11458TIP3   OH255788   4.198   5.979   0.423  0.2303 -0.2521  0.1635
11458TIP3    H155789   4.185   5.885   0.408 -1.3320 -0.5764  2.7771
11458TIP3    H255790   4.173   6.020   0.340 -1.2296 -2.0380 -0.3561
11459TIP3   OH255791   2.025   0.018  16.815  0.2546 -0.7792  0.0589
11459TIP3    H155792   1.981  -0.001  16.898  0.1100  1.1463  0.4687
11459TIP3    H255793   2.085   0.090  16.835 -0.1881  0.1146 -1.6303
11460TIP3   OH255794   6.552   1.521  13.775  0.4631  0.2611 -0.3056
11460TIP3    H155795   6.567   1.615  13.770  0.6923  0.2113 -0.6141
11460TIP3    H255796   6.459   1.510  13.755  0.5503  0.3801 -0.7926
11461TIP3   OH255797   0.187   3.643   0.069 -0.0021  0.1465 -0.1429
11461TIP3    H155798   0.210   3.645   0.162 -1.5761  2.2734  0.2715
11461TIP3    H255799   0.101   3.601   0.067 -0.5372  1.2171 -0.4501
11462TIP3   OH255800   1.303   3.555   3.632 -0.1330  0.5653 -0.4414
11462TIP3    H155801   1.367   3.565   3.703 -1.0556 -0.4674  0.5692
11462TIP3    H255802   1.286   3.645   3.604 -0.2211  1.0614  1.0907
11463TIP3   OH255803   5.766   4.213  16.537  0.1677  0.2161  0.2905
11463TIP3    H155804   5.849   4.166  16.529  0.4058  0.5486  0.7215
11463TIP3    H255805   5.792   4.305  16.541 -0.0907  0.2555  1.9355
11464TIP3   OH255806   2.788   5.291   3.509  0.0653  0.1504  0.3467
11464TIP3    H155807   2.780   5.338   3.426 -2.2509 -0.0620  0.3876
11464TIP3    H255808   2.712   5.320   3.560  0.0265 -1.6602  1.3918
11465TIP3   OH255809   3.512   1.070   4.837  0.9331 -0.1456  0.0372
11465TIP3    H155810   3.418   1.086   4.826  0.6465  0.5502  2.7474
11465TIP3    H255811   3.550   1.094   4.753 -1.2858 -0.2490 -1.0739
11466TIP3   OH255812   0.747   6.264   0.926 -0.0495 -0.6144 -0.0743
11466TIP3    H155813   0.763   6.197   0.859  0.0423 -0.5281 -0.1379
11466TIP3    H255814   0.763   6.347   0.882 -2.0588 -0.4354 -0.5553
11467TIP3   OH255815   5.038   3.328   5.617 -0.0381 -0.1508 -0.0940
11467TIP3    H155816   4.962   3.289   5.661  1.5201 -2.4564  0.7552
11467TIP3    H255817   5.094   3.358   5.689  0.0199  1.2796 -0.7057
11468TIP3   OH255818   0.668   1.536   1.133  0.4991  0.0702  0.3241
11468TIP3    H155819   0.583   1.499   1.110  0.3426 -0.6481  1.9215
11468TIP3    H255820   0.690   1.593   1.059  0.8496 -3.2960 -2.4639
11469TIP3   OH255821   3.991   5.601   2.441  0.8932 -0.4893  0.3152
11469TIP3    H155822   3.922   5.640   2.386 -0.1346 -1.0848  1.1421
11469TIP3    H255823   4.052   5.562   2.379  0.3444 -0.1841 -0.4394
11470TIP3   OH255824   0.288   2.888  12.449  0.6513  0.6077 -0.8163
11470TIP3    H155825   0.279   2.873  12.543  0.3708  2.2377 -0.5506
11470TIP3    H255826   0.201   2.871  12.414  0.2063  1.9709 -0.4476
11471TIP3   OH255827   1.729   2.941  16.276  0.1634  0.5170  0.0892
11471TIP3    H155828   1.642   2.976  16.257 -0.1520 -0.0164  0.4924
11471TIP3    H255829   1.758   2.901  16.194 -0.2733  0.0881  0.1378
11472TIP3   OH255830   0.807   4.371   2.879 -0.1843  0.2460  0.1125
11472TIP3    H155831   0.729   4.363   2.933 -0.7219 -0.7948 -0.7855
11472TIP3    H255832   0.808   4.291   2.825  1.0771  0.5990 -0.4360
11473TIP3   OH255833   1.372   4.646   1.719 -0.1754  0.7172  0.2484
11473TIP3    H155834   1.393   4.587   1.646  1.7394  0.3261  1.0363
11473TIP3    H255835   1.311   4.596   1.774 -1.1464  0.7778 -0.7553
11474TIP3   OH255836   2.831   1.124  16.508  0.1327 -0.1492  0.3417
11474TIP3    H155837   2.757   1.173  16.473  1.1100  2.3014  1.4743
11474TIP3    H255838   2.795   1.039  16.533 -1.5913 -0.1761 -1.9677
11475TIP3   OH255839   6.736   2.151  13.300 -0.1523  0.2115 -0.1216
11475TIP3    H155840   6.725   2.208  13.223 -2.4631  0.3184  0.2052
11475TIP3    H255841   6.730   2.062  13.265  0.4832  0.2237 -0.2655
11476TIP3   OH255842   2.300   5.273  13.949  0.3160  0.7418  0.2375
11476TIP3    H155843   2.317   5.197  13.893 -0.5981  0.1767  0.7039
11476TIP3    H255844   2.348   5.254  14.030  0.4953  0.9052  0.1719
11477TIP3   OH255845   3.714   6.582  11.695 -0.4696 -0.4737 -0.1247
11477TIP3    H155846   3.722   6.643  11.768 -0.8050 -1.2102  0.5527
11477TIP3    H255847   3.720   6.495  11.736  1.6793 -0.9242 -1.2529
11478TIP3   OH255848   5.201   1.314   4.105  1.2092  0.3769 -0.1376
11478TIP3    H155849   5.151   1.319   4.186 -0.2302 -1.5224 -0.8342
11478TIP3    H255850   5.175   1.230   4.065  4.2547 -0.2731 -1.0262
11479TIP3   OH255851   2.896   4.010  11.277 -0.3155  0.3423  0.1735
11479TIP3    H155852   2.852   4.074  11.221 -0.8942  0.9795  1.3184
11479TIP3    H255853   2.854   4.020  11.362  0.1106 -1.0382  0.5771
11480TIP3   OH255854   3.658   0.087  15.680  0.0429 -0.4911  0.2011
11480TIP3    H155855   3.582   0.050  15.725 -0.5945  1.5623  0.9014
11480TIP3    H255856   3.621   0.142  15.611  0.8240  0.9957  0.9172
11481TIP3   OH255857   6.314   2.153   0.347 -0.6847 -0.1593  0.0057
11481TIP3    H155858   6.352   2.167   0.261 -0.8451 -1.9647 -0.4001
11481TIP3    H255859   6.247   2.087   0.333 -4.2698  3.0122  0.6496
11482TIP3   OH255860   2.343   5.886   1.802 -0.5672  0.1150  0.0667
11482TIP3    H155861   2.398   5.850   1.732 -0.2149 -1.4553  1.0984
11482TIP3    H255862   2.362   5.980   1.802 -0.3282  0.0967 -1.7004
11483TIP3   OH255863   3.574   2.915  14.732 -0.5991 -0.2052 -0.2744
11483TIP3    H155864   3.573   2.824  14.763  0.2748 -0.3565 -0.6579
11483TIP3    H255865   3.485   2.946  14.747 -1.1200 -1.3610 -0.8390
11484TIP3   OH255866   4.388   2.579   6.369  0.3750  0.4012 -0.0059
11484TIP3    H155867   4.444   2.503   6.383 -2.6021 -1.6821  1.7931
11484TIP3    H255868   4.423   2.646   6.428  1.6575 -0.3722  0.1539
11485TIP3   OH255869   0.989   4.386   5.116  0.0832  0.5268  0.5943
11485TIP3    H155870   0.956   4.374   5.026 -0.4501  0.4782  0.7933
11485TIP3    H255871   1.021   4.299   5.141 -0.2236  0.4218  0.6285
11486TIP3   OH255872   1.195   4.915   3.850  0.1719  0.0644  0.4149
11486TIP3    H155873   1.174   4.895   3.942  2.6474  0.6016  1.1541
11486TIP3    H255874   1.216   4.830   3.812  1.2507  0.0767  0.9523
11487TIP3   OH255875   5.138   2.437  12.326 -0.1399  0.0444  0.4031
11487TIP3    H155876   5.195   2.381  12.378  0.5935  0.2872 -0.1167
11487TIP3    H255877   5.115   2.510  12.384  3.0682  1.8937 -0.4136
11488TIP3   OH255878   0.320   0.350   2.828 -0.1774  0.2467  0.4333
11488TIP3    H155879   0.380   0.423   2.845 -0.5787  0.5354  0.6090
11488TIP3    H255880   0.327   0.295   2.906 -1.0932  0.9374  1.0157
11489TIP3   OH255881   4.577   0.496   1.375  0.2648  0.3017  0.1658
11489TIP3    H155882   4.663   0.525   1.407  0.8275 -0.1503 -0.8636
11489TIP3    H255883   4.514   0.554   1.418  1.1656  1.2952  0.1832
11490TIP3   OH255884   0.624   1.903   2.251  0.1465  0.7662  0.2062
11490TIP3    H155885   0.656   1.818   2.219  0.1720 -0.2840  2.7448
11490TIP3    H255886   0.683   1.925   2.322 -2.1806  0.8832  2.2387
11491TIP3   OH255887   0.329   2.495   3.050  0.1337 -1.0007 -0.1074
11491TIP3    H155888   0.233   2.493   3.052  0.1070 -0.0292  0.1362
11491TIP3    H255889   0.354   2.414   3.005 -0.8994  0.1474 -2.9270
11492TIP3   OH255890   4.192   3.366  12.294 -0.0952  0.0812 -0.0526
11492TIP3    H155891   4.261   3.344  12.230  0.4364 -0.8474  0.8035
11492TIP3    H255892   4.143   3.437  12.253  0.9097  0.2524 -1.0169
11493TIP3   OH255893   2.873   0.620  15.750 -0.5560 -0.1134  0.4557
11493TIP3    H155894   2.858   0.534  15.790  1.6991 -0.6328  0.3212
11493TIP3    H255895   2.968   0.626  15.741 -0.7862  0.6148 -3.3902
11494TIP3   OH255896   3.479   4.497   5.752  0.0472 -0.4531  0.3739
11494TIP3    H155897   3.469   4.587   5.721  0.7975 -0.1673  0.9385
11494TIP3    H255898   3.536   4.454   5.688  1.2304  0.0116  1.0858
11495TIP3   OH255899   3.401   6.090  14.199 -0.4764 -0.1801 -0.1486
11495TIP3    H155900   3.401   6.104  14.293 -1.7035 -0.1188 -0.1492
11495TIP3    H255901   3.310   6.070  14.177  0.3892 -4.2556 -0.7397
11496TIP3   OH255902   1.087   1.341  15.861  0.3704  0.4494 -0.0100
11496TIP3    H155903   1.091   1.374  15.771  1.3837  2.8730  0.8241
11496TIP3    H255904   1.172   1.299  15.875  0.1012 -0.1912 -0.2421
11497TIP3   OH255905   2.610   5.756  15.535  0.3425 -0.0086  0.5912
11497TIP3    H155906   2.543   5.772  15.469 -1.5764 -0.9852  2.1870
11497TIP3    H255907   2.616   5.661  15.541  1.4212  0.0683  0.9322
11498TIP3   OH255908   4.033   6.299   4.156 -0.2477  0.4501 -0.2998
11498TIP3    H155909   4.095   6.370   4.172 -0.4055  0.2862  1.1838
11498TIP3    H255910   4.082   6.219   4.176  0.7499 -0.1836 -4.3301
11499TIP3   OH255911   3.630   0.659  13.923 -0.6477  0.1292 -0.6701
11499TIP3    H155912   3.632   0.574  13.878 -0.0767 -0.8780  1.1655
11499TIP3    H255913   3.572   0.713  13.869  0.9967 -0.5751 -3.3230
11500TIP3   OH255914   2.878   2.231  14.671  0.4247  0.8666 -0.1897
11500TIP3    H155915   2.863   2.325  14.679  2.6056  1.2568  0.0637
11500TIP3    H255916   2.893   2.217  14.577 -1.1198  0.5339 -0.4030
11501TIP3   OH255917   4.102   1.499  13.239  0.1989  0.1530  0.0636
11501TIP3    H155918   4.110   1.424  13.298  2.0191  1.2889  1.3555
11501TIP3    H255919   4.055   1.565  13.290  0.0347  0.4734 -0.4881
11502TIP3   OH255920   6.636   1.124   0.400 -0.0378 -0.1056  0.4739
11502TIP3    H155921   6.695   1.185   0.444  0.6799  0.4523 -1.1756
11502TIP3    H255922   6.581   1.179   0.345  0.9929 -0.9130 -1.4648
11503TIP3   OH255923   3.407   2.593   2.967  0.4329 -0.5358  0.3958
11503TIP3    H155924   3.347   2.552   3.029  0.1025 -0.2541  0.2704
11503TIP3    H255925   3.474   2.635   3.022  0.2577 -0.4639  0.5553
11504TIP3   OH255926   6.134   4.928   3.782 -0.2167 -0.1808  0.1378
11504TIP3    H155927   6.197   4.902   3.715 -0.4564  0.4285 -0.3288
11504TIP3    H255928   6.140   5.023   3.787  1.8774 -0.3164  3.0356
11505TIP3   OH255929   2.241   2.794  16.735  0.0370 -0.0376 -0.0973
11505TIP3    H155930   2.334   2.810  16.752  0.5374  0.5976 -2.9036
11505TIP3    H255931   2.203   2.881  16.726 -1.1324 -0.2601  2.0630
11506TIP3   OH255932   1.157   6.699   1.307 -0.0738 -0.2939 -0.6322
11506TIP3    H155933   1.084   6.760   1.315  2.0288  2.2330  0.7443
11506TIP3    H255934   1.187   6.710   1.216 -1.0838 -1.0553 -1.0841
11507TIP3   OH255935   1.548   4.664  14.372  0.2482 -0.2033  0.3583
11507TIP3    H155936   1.534   4.603  14.299  0.2272 -0.0048  0.1942
11507TIP3    H255937   1.477   4.645  14.433 -0.5953  0.6145 -0.3448
11508TIP3   OH255938   2.853   2.467   3.544  0.3483  0.0933 -0.3535
11508TIP3    H155939   2.775   2.422   3.575  0.3917 -0.0031 -0.3842
11508TIP3    H255940   2.921   2.446   3.609  0.5078 -0.3240 -0.6513
11509TIP3   OH255941   6.264   6.254  15.607  0.1535 -0.1439 -0.2913
11509TIP3    H155942   6.339   6.220  15.654  0.2099  0.9453  0.4462
11509TIP3    H255943   6.188   6.226  15.659  0.2714  2.0200  1.1436
11510TIP3   OH255944   1.672   1.727  17.215 -0.2581  0.0286 -0.3779
11510TIP3    H155945   1.717   1.645  17.196 -0.3227  0.2887 -1.7270
11510TIP3    H255946   1.583   1.714  17.184 -0.4358  0.3914 -0.0273
11511TIP3   OH255947   2.748   4.629   5.548 -0.5591  0.2371  0.1420
11511TIP3    H155948   2.768   4.722   5.539 -0.8647  0.2841 -0.0759
11511TIP3    H255949   2.653   4.625   5.550 -0.5380  0.0048  1.0714
11512TIP3   OH255950   0.147   6.222  13.432  0.6038 -0.1519 -0.0023
11512TIP3    H155951   0.226   6.277  13.428  2.0523 -2.1482 -0.7986
11512TIP3    H255952   0.099   6.254  13.508  0.5779  3.1441 -1.2567
11513TIP3   OH255953   3.777   5.712  12.194  0.1129 -0.0633 -0.8997
11513TIP3    H155954   3.708   5.728  12.259  1.1801  0.8903  0.0478
11513TIP3    H255955   3.734   5.724  12.110 -1.0279 -0.1502 -0.3546
11514TIP3   OH255956   6.194   1.990  13.351  0.1170 -0.2457 -0.7062
11514TIP3    H155957   6.231   2.060  13.405 -1.9262  1.5663 -1.4670
11514TIP3    H255958   6.242   1.912  13.376  1.8889  1.2498  0.8833
11515TIP3   OH255959   4.635   4.812  14.611  0.0810  0.2084 -0.2519
11515TIP3    H155960   4.556   4.808  14.558 -0.2481 -4.1331  0.1989
11515TIP3    H255961   4.625   4.891  14.664 -3.6491  0.1852 -0.6940
11516TIP3   OH255962   1.614   5.004   3.160  0.2004 -0.2084 -0.3981
11516TIP3    H155963   1.655   5.079   3.203 -0.1069  0.0104 -0.4886
11516TIP3    H255964   1.660   4.928   3.196 -1.5891 -0.2164  2.1112
11517TIP3   OH255965   2.049   6.636   2.692 -0.2032  0.2519 -0.0194
11517TIP3    H155966   2.099   6.583   2.755 -0.1926  0.5513  0.2214
11517TIP3    H255967   1.958   6.628   2.720 -0.1672  0.6200  0.2063
11518TIP3   OH255968   5.853   6.096  17.222 -0.1831 -0.0631  0.4584
11518TIP3    H155969   5.917   6.053  17.279  0.8791 -1.6840 -1.8012
11518TIP3    H255970   5.879   6.071  17.133 -3.1146  0.4077 -0.6562
11519TIP3   OH255971   6.706   1.538  12.922  0.1783 -0.0254 -0.4924
11519TIP3    H155972   6.743   1.472  12.982  0.8100  0.1763 -0.6533
11519TIP3    H255973   6.711   1.620  12.971 -0.2592 -0.0306 -0.4361
11520TIP3   OH255974   3.339   5.678  11.927 -0.2759  0.6548  0.1038
11520TIP3    H155975   3.334   5.761  11.879 -1.0320  0.0961 -0.8097
11520TIP3    H255976   3.278   5.620  11.882  0.3605 -0.4633  0.6370
11521TIP3   OH255977   6.295   6.721   3.773  0.6061  0.2714  0.3804
11521TIP3    H155978   6.271   6.692   3.861  1.2874 -0.1134  0.4476
11521TIP3    H255979   6.385   6.752   3.781  0.8679 -0.2765 -0.2913
11522TIP3   OH255980   5.567   4.620  14.823 -0.5132  0.7041 -0.0811
11522TIP3    H155981   5.662   4.628  14.812 -0.4391 -0.6008 -0.4739
11522TIP3    H255982   5.539   4.708  14.849  0.8127  1.0827  0.1471
11523TIP3   OH255983   0.382   4.676  15.710  0.8046 -0.3935 -0.3113
11523TIP3    H155984   0.287   4.681  15.721  0.6601 -2.4883 -0.0264
11523TIP3    H255985   0.402   4.737  15.639 -0.8468 -0.4205 -0.8423
11524TIP3   OH255986   6.347   1.665   3.421  0.7924  0.0766  0.2948
11524TIP3    H155987   6.327   1.721   3.346  1.2316  0.9252  0.7992
11524TIP3    H255988   6.402   1.595   3.385  3.5916  2.1008  0.2809
11525TIP3   OH255989   1.631   1.776   0.653 -0.3793  0.3021  0.1377
11525TIP3    H155990   1.711   1.724   0.652 -0.7918 -0.3442  0.3609
11525TIP3    H255991   1.645   1.842   0.585  0.6107  0.6145  0.6326
11526TIP3   OH255992   6.294   4.744  13.816  0.2041  0.0718 -0.4878
11526TIP3    H155993   6.296   4.663  13.866 -0.3429 -0.0488 -0.6527
11526TIP3    H255994   6.349   4.727  13.739  1.6001  0.4807  0.3838
11527TIP3   OH255995   0.240   6.695  14.382 -0.0415  0.5431  0.2199
11527TIP3    H155996   0.333   6.676  14.387  0.0480  1.0256  0.3571
11527TIP3    H255997   0.220   6.692  14.288 -0.4025 -2.0123  0.2855
11528TIP3   OH255998   2.072   6.228  14.730  0.0557 -0.1071  0.1645
11528TIP3    H155999   1.982   6.249  14.705  0.2025  1.1848  0.6349
11528TIP3    H256000   2.126   6.273  14.665  0.3709 -0.5571  0.1105
11529TIP3   OH256001   0.444   5.479   5.613  0.9147 -0.5340  0.2371
11529TIP3    H156002   0.516   5.509   5.557 -1.4940  1.7332 -1.8942
11529TIP3    H256003   0.384   5.434   5.553 -1.2842  1.0753  1.0800
11530TIP3   OH256004   5.089   1.436  16.603  0.0087 -0.3056 -0.1798
11530TIP3    H156005   5.102   1.427  16.508 -0.0029 -2.9352  0.0047
11530TIP3    H256006   5.172   1.406  16.641 -0.0392  0.5929  0.6740
11531TIP3   OH256007   3.477   6.545   6.118  0.2242 -0.6836  0.2562
11531TIP3    H156008   3.527   6.479   6.167  0.3269 -1.0294 -0.3146
11531TIP3    H256009   3.417   6.582   6.184  0.0660 -1.4430  0.5544
11532TIP3   OH256010   2.129   1.090   4.408 -0.2560 -0.2473  0.0807
11532TIP3    H156011   2.111   1.169   4.459 -0.0329 -0.0731 -0.1125
11532TIP3    H256012   2.224   1.076   4.418 -0.2798 -0.4382  0.0422
11533TIP3   OH256013   6.481   2.496  16.017 -0.1673  0.0901 -0.2770
11533TIP3    H156014   6.440   2.580  16.002 -0.6883 -0.4010 -1.8127
11533TIP3    H256015   6.559   2.516  16.068 -0.4660  1.4558 -0.3199
11534TIP3   OH256016   1.229   2.651  15.228  0.2835  0.5185 -0.1513
11534TIP3    H156017   1.239   2.558  15.252 -1.0544  0.5621  0.6930
11534TIP3    H256018   1.138   2.659  15.202  0.6067  1.4404 -1.0370
11535TIP3   OH256019   3.622   3.111   1.434 -0.0507  0.0034  0.0975
11535TIP3    H156020   3.649   3.021   1.453  1.3501  0.6184  1.2613
11535TIP3    H256021   3.533   3.118   1.468  0.7647 -0.2487  2.4336
11536TIP3   OH256022   2.955   5.904   5.401  0.2383 -0.8793  0.3477
11536TIP3    H156023   3.015   5.876   5.332 -1.1770 -2.3835 -0.3447
11536TIP3    H256024   2.883   5.946   5.354 -0.2391 -0.9703  0.9862
11537TIP3   OH256025   1.305   6.713   4.592  0.0070 -0.5844  0.3026
11537TIP3    H156026   1.323   6.699   4.499 -1.2756 -0.1838 -0.0226
11537TIP3    H256027   1.215   6.682   4.605 -0.3801  0.7614  1.0659
11538TIP3   OH256028   5.440   3.394   2.004  0.6009  0.1932  0.6423
11538TIP3    H156029   5.357   3.408   1.960  1.1359  0.2904 -0.3684
11538TIP3    H256030   5.480   3.320   1.958  0.3526 -0.9418  2.1953
11539TIP3   OH256031   2.262   6.068  13.189  0.1526  0.2363  0.4250
11539TIP3    H156032   2.193   6.006  13.214  0.6915 -0.8466 -0.6518
11539TIP3    H256033   2.272   6.056  13.094  0.4805  1.7840  0.2359
11540TIP3   OH256034   0.798   6.640  12.754 -0.2849  0.2173 -0.4714
11540TIP3    H156035   0.722   6.582  12.762  0.3861 -0.6799 -0.5022
11540TIP3    H256036   0.772   6.704  12.688 -0.6463 -0.6946 -1.2488
11541TIP3   OH256037   2.539   4.158  15.636 -0.1948  0.1778  0.0423
11541TIP3    H156038   2.627   4.173  15.673 -0.3519  0.4727  0.3088
11541TIP3    H256039   2.548   4.179  15.543  0.4606 -1.5753 -0.3193
11542TIP3   OH256040   5.733   4.741   3.396 -0.0477  0.2014 -0.5844
11542TIP3    H156041   5.731   4.646   3.404  0.2084  0.1638 -0.9562
11542TIP3    H256042   5.641   4.767   3.396 -0.1640 -0.1470 -1.5799
11543TIP3   OH256043   6.513   4.636   4.538 -0.4010 -0.2030 -0.0204
11543TIP3    H156044   6.601   4.598   4.540 -0.8754 -1.4326 -1.0983
11543TIP3    H256045   6.484   4.634   4.629  0.2900 -0.7380  0.1972
11544TIP3   OH256046   0.245   2.175  13.334  0.2410  0.7758 -0.2968
11544TIP3    H156047   0.229   2.171  13.428 -0.3981  1.0047 -0.3889
11544TIP3    H256048   0.159   2.164  13.294  0.5322  0.4724 -0.8646
11545TIP3   OH256049   4.651   3.197  11.968  0.2335  0.3551  0.0218
11545TIP3    H156050   4.594   3.137  11.920  0.7086 -0.9878  1.0924
11545TIP3    H256051   4.669   3.267  11.905 -1.4386  0.1008 -0.8047
11546TIP3   OH256052   4.499   5.592  11.813 -0.0086  0.2998 -1.1982
11546TIP3    H156053   4.473   5.590  11.721  2.1430 -0.7275 -1.8396
11546TIP3    H256054   4.422   5.560  11.860 -0.5599 -0.8185 -2.7961
11547TIP3   OH256055   5.962   2.302   2.059 -0.0171 -0.2144  0.6007
11547TIP3    H156056   5.968   2.312   2.154 -0.0198 -1.2334  0.7181
11547TIP3    H256057   6.036   2.353   2.025 -2.2897  3.6550  0.8287
11548TIP3   OH256058   1.708   5.068  10.650  0.1662  0.3798 -0.3589
11548TIP3    H156059   1.643   5.078  10.719 -0.7150 -1.6094 -0.8471
11548TIP3    H256060   1.682   5.131  10.583 -1.9519 -1.0782 -1.0089
11549TIP3   OH256061   5.451   5.403   1.422 -0.2152 -0.2970 -0.1722
11549TIP3    H156062   5.405   5.346   1.485 -0.5950 -0.2853 -0.4392
11549TIP3    H256063   5.453   5.352   1.341 -0.3890 -0.0006 -0.3608
11550TIP3   OH256064   1.714   3.272   0.040  0.3124  0.1277  0.1934
11550TIP3    H156065   1.631   3.306   0.075  1.1392  0.6450  1.7476
11550TIP3    H256066   1.695   3.255  -0.052 -2.1096 -1.6841  0.9141
11551TIP3   OH256067   2.696   0.219  12.453 -0.0932  0.3590 -0.0516
11551TIP3    H156068   2.719   0.187  12.541 -0.8915 -1.3498 -0.4162
11551TIP3    H256069   2.776   0.208  12.402 -0.0005  0.0729  0.1462
11552TIP3   OH256070   3.156   1.466  12.295  0.1239 -0.7570 -0.2982
11552TIP3    H156071   3.249   1.474  12.316 -0.3530  1.7848  1.3046
11552TIP3    H256072   3.120   1.553  12.312 -2.4315 -1.4440 -1.6469
11553TIP3   OH256073   6.717   0.730  14.656  0.3943 -0.0378  0.1669
11553TIP3    H156074   6.640   0.673  14.653  0.1796  0.2059  0.8293
11553TIP3    H256075   6.783   0.678  14.703  1.1159 -0.7860 -1.5714
11554TIP3   OH256076   3.166   1.174   2.260  0.0947  0.7274 -0.0116
11554TIP3    H156077   3.126   1.106   2.314  2.3888 -0.8671 -0.1666
11554TIP3    H256078   3.128   1.256   2.293 -0.1206 -0.3333  2.6621
11555TIP3   OH256079   6.140   1.788   0.658 -0.0149  0.4921  0.6527
11555TIP3    H156080   6.211   1.850   0.674  0.0876  0.2032  1.3699
11555TIP3    H256081   6.136   1.780   0.563  0.8922  0.5455  0.5986
11556TIP3   OH256082   3.304   3.487  11.727 -0.0021 -0.6509  0.1524
11556TIP3    H156083   3.238   3.494  11.796 -2.7118 -2.6332 -2.0002
11556TIP3    H256084   3.278   3.553  11.663  1.7206  0.2946  0.3590
11557TIP3   OH256085   2.359   6.489  12.113  0.0198 -0.3529 -0.2157
11557TIP3    H156086   2.438   6.437  12.127 -0.0054 -0.4771 -0.5328
11557TIP3    H256087   2.339   6.479  12.020  0.3335  0.6729 -0.4026
11558TIP3   OH256088   4.066   4.106   1.484 -0.3446  0.3161 -0.0454
11558TIP3    H156089   4.044   4.147   1.401 -1.3027  0.4474  0.2653
11558TIP3    H256090   4.013   4.026   1.487  0.3911 -0.1837  0.0223
11559TIP3   OH256091   6.405   0.147  12.787  0.3950 -0.3710  0.2831
11559TIP3    H156092   6.466   0.095  12.735  0.6154  0.6069 -0.4664
11559TIP3    H256093   6.328   0.091  12.796  0.7295 -0.9380 -0.2609
11560TIP3   OH256094   5.761   0.395   5.659  0.1083 -0.0016  0.2628
11560TIP3    H156095   5.842   0.406   5.707 -0.2253 -2.9122  1.7454
11560TIP3    H256096   5.700   0.457   5.699  1.4540  2.0962 -0.7652
11561TIP3   OH256097   4.477   1.616   2.921 -0.0538  0.3903 -0.0057
11561TIP3    H156098   4.504   1.664   2.843  0.0252  0.6459  0.1752
11561TIP3    H256099   4.532   1.538   2.921  0.8660  1.0105  0.4702
11562TIP3   OH256100   1.073   4.024  12.880 -0.0312  0.1935  0.2216
11562TIP3    H156101   1.132   4.094  12.852  0.2313 -0.7525 -1.8018
11562TIP3    H256102   1.125   3.944  12.871 -0.4708 -0.3454  2.0503
11563TIP3   OH256103   4.124   6.584  12.541 -0.3380  0.0978 -0.4247
11563TIP3    H156104   4.215   6.556  12.554 -0.3927 -0.3588 -0.9969
11563TIP3    H256105   4.112   6.654  12.605  0.7002  0.7821 -0.9416
11564TIP3   OH256106   4.557   6.765  11.668 -0.4485 -0.3161  0.6150
11564TIP3    H156107   4.532   6.832  11.732  1.1400  1.0193 -0.0655
11564TIP3    H256108   4.627   6.716  11.711  0.0342  0.0306  0.2374
11565TIP3   OH256109   0.994   1.751   0.262 -0.2410 -0.8435  0.5938
11565TIP3    H156110   0.955   1.807   0.329  2.6658 -1.3144  2.8478
11565TIP3    H256111   0.948   1.668   0.270 -1.5194 -0.1863  0.3186
11566TIP3   OH256112   3.073   5.117  17.131  0.0862  0.3479 -0.3546
11566TIP3    H156113   3.158   5.113  17.089 -0.9357 -1.0545 -2.4513
11566TIP3    H256114   3.019   5.054  17.083 -1.6492 -0.1762  2.0726
11567TIP3   OH256115   0.322   4.416  14.788  0.2241  0.3923  0.0702
11567TIP3    H156116   0.243   4.447  14.833 -0.0558  2.7940 -1.8552
11567TIP3    H256117   0.382   4.393  14.859 -1.7823 -0.5127  1.5972
11568TIP3   OH256118   6.141   3.827  14.360 -0.8028 -0.1333 -0.2108
11568TIP3    H156119   6.071   3.872  14.408 -0.3955  0.0977  0.1720
11568TIP3    H256120   6.220   3.846  14.409 -0.5372 -0.8070 -0.3634
11569TIP3   OH256121   3.365   0.643   3.821  0.4220 -0.7497 -0.1204
11569TIP3    H156122   3.280   0.645   3.865  0.2162  2.4836 -0.3869
11569TIP3    H256123   3.347   0.672   3.732  1.4453 -3.0840 -1.1694
11570TIP3   OH256124   6.576   0.995   2.966  0.0165  0.1438 -0.1471
11570TIP3    H156125   6.652   0.944   2.993  1.2272  1.4191 -1.0013
11570TIP3    H256126   6.595   1.084   2.995 -1.5112  0.3613  0.2841
11571TIP3   OH256127   4.199   1.387  12.023 -0.0553  0.1371 -0.0643
11571TIP3    H156128   4.251   1.428  12.093 -2.2537  2.7202  0.2259
11571TIP3    H256129   4.262   1.369  11.954  1.2700  3.4282  0.1219
11572TIP3   OH256130   5.837   4.497   4.335 -0.3250 -0.5051  0.3924
11572TIP3    H156131   5.916   4.539   4.301 -0.5614 -0.4625 -0.1159
11572TIP3    H256132   5.857   4.403   4.334 -0.5459 -0.5586 -0.4722
11573TIP3   OH256133   4.466   2.381  13.122 -0.2917  0.2915 -0.0670
11573TIP3    H156134   4.534   2.319  13.146 -0.5156  0.4286  0.9805
11573TIP3    H256135   4.437   2.419  13.205 -1.2869  0.6109 -0.5344
11574TIP3   OH256136   2.688   4.449   0.002 -0.3839 -0.5819  0.0018
11574TIP3    H156137   2.739   4.425   0.079 -0.1786  0.3288  0.1599
11574TIP3    H256138   2.679   4.544   0.007 -2.7773 -0.7654  0.3965
11575TIP3   OH256139   3.264   1.930   2.792 -0.1519  0.8779  0.7875
11575TIP3    H156140   3.187   1.890   2.753 -0.3133  1.3264  0.6302
11575TIP3    H256141   3.229   2.000   2.847  0.0563  0.0238  2.0365
11576TIP3   OH256142   5.484   0.805   5.401  0.3896  0.6631 -0.3846
11576TIP3    H156143   5.520   0.871   5.460 -0.6045 -0.1691  1.2368
11576TIP3    H256144   5.531   0.725   5.424  0.0231  0.3378 -0.7571
11577TIP3   OH256145   4.597   6.737  14.356 -0.5582 -0.2611 -0.5819
11577TIP3    H156146   4.554   6.671  14.410  0.6942  0.8098  1.8688
11577TIP3    H256147   4.525   6.783  14.313 -1.5924 -1.2339  0.0341
11578TIP3   OH256148   0.264   2.283   2.673  0.1367 -0.0281  0.4525
11578TIP3    H156149   0.320   2.325   2.608  1.6600  0.5656  2.0606
11578TIP3    H256150   0.177   2.284   2.634  1.0534 -0.1718 -1.7751
11579TIP3   OH256151   6.317   5.010   4.666 -0.1276 -0.1561 -0.0679
11579TIP3    H156152   6.225   4.983   4.667 -0.2452  0.1179  1.9379
11579TIP3    H256153   6.341   5.014   4.574 -2.1861 -0.0452 -0.6353
11580TIP3   OH256154   4.371   2.625  11.249  0.6124  0.5308 -0.1538
11580TIP3    H156155   4.409   2.703  11.209  0.2677  0.6245 -0.2991
11580TIP3    H256156   4.443   2.561  11.250  1.0295  0.9939  0.3822
11581TIP3   OH256157   5.167   4.462  15.730 -0.2139  0.5094 -0.4603
11581TIP3    H156158   5.080   4.451  15.693 -0.5448  0.7278  0.2474
11581TIP3    H256159   5.212   4.379  15.711 -0.8493  0.0777 -0.1063
11582TIP3   OH256160   2.509   3.452   3.358 -0.1836 -0.4232  0.6164
11582TIP3    H156161   2.456   3.377   3.386  1.1534 -0.6973  2.6284
11582TIP3    H256162   2.599   3.423   3.371  0.4361  0.6059 -1.1788
11583TIP3   OH256163   4.489   3.795   1.721 -0.0996 -0.1878  0.5128
11583TIP3    H156164   4.525   3.786   1.809 -0.2113 -3.1358  0.3493
11583TIP3    H256165   4.407   3.842   1.734  0.9937  1.4957  1.6359
11584TIP3   OH256166   5.067   0.623   1.951 -0.0950  0.1000  0.0108
11584TIP3    H156167   5.080   0.654   2.041 -0.6600  0.5315 -0.0549
11584TIP3    H256168   5.015   0.544   1.961 -1.3631  0.9131 -0.0159
11585TIP3   OH256169   5.351   3.199  14.292 -0.5012  0.2107 -0.7989
11585TIP3    H156170   5.259   3.179  14.271 -0.8633  0.3387  0.5055
11585TIP3    H256171   5.373   3.137  14.361 -0.2008  1.3527  0.1724
11586TIP3   OH256172   6.478   5.256  12.569  0.0838  0.0003 -0.0144
11586TIP3    H156173   6.414   5.287  12.633 -0.1402  0.1275 -0.2966
11586TIP3    H256174   6.445   5.170  12.543 -0.3607  0.3649 -0.6834
11587TIP3   OH256175   2.398   1.260   4.978 -0.6148 -0.0683 -0.1738
11587TIP3    H156176   2.377   1.236   4.888 -0.0134  1.0459 -0.6354
11587TIP3    H256177   2.368   1.350   4.986  0.7935  0.3932  0.2128
11588TIP3   OH256178   0.025   0.898  12.784 -0.3567  0.4589 -0.0570
11588TIP3    H156179   0.073   0.928  12.861  1.2690  2.4546 -1.7221
11588TIP3    H256180  -0.019   0.977  12.751  0.6412  0.1654 -2.2571
11589TIP3   OH256181   3.389   2.757   0.018 -0.5879  0.0507 -0.1046
11589TIP3    H156182   3.368   2.664   0.017 -2.2895  0.3746  0.9732
11589TIP3    H256183   3.358   2.789  -0.067 -1.5108 -0.0946  0.1661
11590TIP3   OH256184   2.148   1.767  15.367 -0.6260  0.4285  0.3553
11590TIP3    H156185   2.110   1.824  15.300 -0.8304  0.7638  0.7462
11590TIP3    H256186   2.163   1.684  15.323  0.5413  1.0572 -0.4833
11591TIP3   OH256187   1.440   0.317   5.469 -0.4428 -0.1839  0.2024
11591TIP3    H156188   1.439   0.413   5.466 -0.0109 -0.1503  1.0816
11591TIP3    H256189   1.368   0.291   5.411 -0.9069  0.6801  0.3821
11592TIP3   OH256190   0.795   6.102   3.253  0.1996 -0.7303 -0.3562
11592TIP3    H156191   0.878   6.150   3.263  0.1040 -0.3845 -1.1356
11592TIP3    H256192   0.790   6.047   3.331  0.4468  0.3374  0.4497
11593TIP3   OH256193   1.632   4.458   4.651 -0.2353  0.3059  0.7270
11593TIP3    H156194   1.636   4.365   4.630 -2.7142  0.2117  0.4360
11593TIP3    H256195   1.712   4.474   4.700  1.4980 -1.4016 -1.2871
11594TIP3   OH256196   5.322   0.311  13.172 -0.1074 -0.1878  0.0369
11594TIP3    H156197   5.400   0.309  13.227  0.6181 -1.0792 -0.9949
11594TIP3    H256198   5.278   0.393  13.196  0.9021  0.1118  0.9403
11595TIP3   OH256199   5.483   5.569   2.853 -0.0405 -0.9276 -0.4109
11595TIP3    H156200   5.559   5.519   2.881  0.2925 -0.4326 -0.4254
11595TIP3    H256201   5.410   5.507   2.861 -0.0684 -0.7123  2.0159
11596TIP3   OH256202   1.945   1.370  12.290 -0.0806 -0.1708 -0.4720
11596TIP3    H156203   1.864   1.333  12.325 -0.7113 -1.1914 -2.7660
11596TIP3    H256204   1.978   1.303  12.230  2.2620  0.3984  0.0706
11597TIP3   OH256205   4.480   5.352   6.534  0.1761  0.0334 -0.2061
11597TIP3    H156206   4.458   5.434   6.491  1.2438  0.8989  0.8313
11597TIP3    H256207   4.448   5.362   6.624  0.5063 -0.6115 -0.0065
11598TIP3   OH256208   0.886   3.736   1.751  0.2822  0.0555 -0.5911
11598TIP3    H156209   0.906   3.756   1.659 -0.0208  0.0454 -0.6605
11598TIP3    H256210   0.798   3.772   1.765  0.4367  0.2950 -0.2286
11599TIP3   OH256211   2.201   4.024  14.508  0.0597  0.1099 -0.0042
11599TIP3    H156212   2.189   4.014  14.413  0.6027  1.5343 -0.2460
11599TIP3    H256213   2.239   3.941  14.536  0.0732 -0.2588 -1.0708
11600TIP3   OH256214   1.662   4.371   5.750  0.1414  0.4239 -0.1035
11600TIP3    H156215   1.664   4.279   5.777  0.2564  0.2255 -0.7727
11600TIP3    H256216   1.577   4.382   5.707  0.9264  0.0859 -1.8328
11601TIP3   OH256217   5.621   0.144   5.493  0.5900 -0.1826 -0.0160
11601TIP3    H156218   5.683   0.139   5.566 -0.1574  2.1690  0.8807
11601TIP3    H256219   5.538   0.114   5.530  0.6234 -0.8802 -0.4886
11602TIP3   OH256220   2.015   4.313  11.399  0.6015  0.4476 -0.3070
11602TIP3    H156221   1.929   4.297  11.437  0.8452  1.5156  0.7412
11602TIP3    H256222   2.044   4.226  11.370  0.3113 -0.4222  1.7755
11603TIP3   OH256223   6.305   3.505  14.640  0.1811 -0.4477 -0.4387
11603TIP3    H156224   6.274   3.483  14.728  0.3262  1.3191  0.1072
11603TIP3    H256225   6.397   3.528  14.652  0.7480 -2.0257 -1.4135
11604TIP3   OH256226   5.592   3.481  11.374  0.1484 -0.5952 -0.2130
11604TIP3    H156227   5.520   3.545  11.378  0.6690 -0.0737  1.0580
11604TIP3    H256228   5.653   3.509  11.441  2.3392 -0.1095 -2.2775
11605TIP3   OH256229   1.632   0.977  12.628 -0.0955 -0.2397  0.2644
11605TIP3    H156230   1.547   0.976  12.585  0.8351  0.4310 -1.7046
11605TIP3    H256231   1.639   1.064  12.666 -0.0319 -0.0732 -0.1274
11606TIP3   OH256232   6.267   2.075   1.229  0.1093  0.3167  0.1185
11606TIP3    H156233   6.267   2.103   1.320  0.0687  0.5079  0.0618
11606TIP3    H256234   6.179   2.043   1.213  0.0620  0.4536  0.0978
11607TIP3   OH256235   0.935   0.476  16.089  1.1235 -0.3590 -0.4839
11607TIP3    H156236   0.993   0.494  16.015  1.8298 -0.4410  0.0395
11607TIP3    H256237   0.925   0.381  16.090 -1.0905 -0.2217 -2.1016
11608TIP3   OH256238   0.688   3.367  12.341  0.4564 -0.5326 -0.5471
11608TIP3    H156239   0.650   3.441  12.388  0.5913 -1.8790  1.8054
11608TIP3    H256240   0.764   3.404  12.295 -0.5848  1.1251 -1.0217
11609TIP3   OH256241   0.599   1.314  17.023 -0.0562 -0.1353 -0.5730
11609TIP3    H156242   0.561   1.313  16.935 -1.3544  3.3568 -0.1862
11609TIP3    H256243   0.691   1.335  17.010  0.0147 -0.7476 -1.1116
11610TIP3   OH256244   3.715   2.174  10.243 -0.1101 -0.3513 -0.0361
11610TIP3    H156245   3.784   2.204  10.185 -2.2291  2.0120 -1.5599
11610TIP3    H256246   3.716   2.236  10.316  0.4415 -1.3427  0.8200
11611TIP3   OH256247   6.057   6.509   5.647  0.4562  0.0280 -0.3993
11611TIP3    H156248   6.074   6.584   5.704  1.4509  0.0658 -0.7178
11611TIP3    H256249   6.049   6.547   5.559 -0.5411 -0.0869 -0.3698
11612TIP3   OH256250   3.123   0.850   4.112  0.8588 -0.7337 -0.3450
11612TIP3    H156251   3.213   0.850   4.144  0.6940 -0.7503  0.1145
11612TIP3    H256252   3.129   0.888   4.024  1.4718 -1.7136 -0.7476
11613TIP3   OH256253   2.619   5.404   4.080 -0.4229  0.5714  0.5408
11613TIP3    H156254   2.578   5.318   4.073  0.1384  0.4323 -1.6532
11613TIP3    H256255   2.712   5.387   4.087 -0.3284  1.0053  0.3822
11614TIP3   OH256256   0.302   5.270   0.611  0.3796  0.2536 -0.0838
11614TIP3    H156257   0.378   5.288   0.554  0.8862 -1.0783  0.1470
11614TIP3    H256258   0.236   5.332   0.581  1.0221  0.3670 -1.3765
11615TIP3   OH256259   5.571   6.691   3.313  0.3245  0.1084 -0.0021
11615TIP3    H156260   5.476   6.681   3.302  0.4760 -0.8756 -0.5479
11615TIP3    H256261   5.584   6.691   3.408 -0.2916  1.1014  0.0953
11616TIP3   OH256262   4.842   2.863  17.143 -0.3411  0.7043 -0.5575
11616TIP3    H156263   4.891   2.916  17.207  0.2643  0.7206 -1.0260
11616TIP3    H256264   4.751   2.875  17.168 -0.0828  0.2250  0.6786
11617TIP3   OH256265   1.255   3.281   4.270 -0.6800 -0.4344  0.1259
11617TIP3    H156266   1.265   3.280   4.175  0.3045 -0.1059  0.2157
11617TIP3    H256267   1.245   3.189   4.294  0.9584 -0.7201 -0.1322
11618TIP3   OH256268   3.416   2.379  14.379 -0.0556 -0.3206 -0.4661
11618TIP3    H156269   3.325   2.392  14.352 -0.1266 -1.3811 -0.7726
11618TIP3    H256270   3.412   2.312  14.446  0.4361  0.1812  0.0772
11619TIP3   OH256271   5.861   2.892  14.598 -1.0638  0.0824  0.0351
11619TIP3    H156272   5.944   2.874  14.641 -2.3338  0.5320  2.9460
11619TIP3    H256273   5.871   2.979  14.559 -0.2435  0.2287  0.5659
11620TIP3   OH256274   6.394   3.108   1.206  0.0913  0.2369 -0.4435
11620TIP3    H156275   6.315   3.152   1.237 -0.8854 -1.2128 -0.7473
11620TIP3    H256276   6.453   3.109   1.281 -0.4146  0.8791 -0.0447
11621TIP3   OH256277   3.736   4.382   2.249 -0.4887 -0.1315  0.6150
11621TIP3    H156278   3.709   4.422   2.167 -0.1494  1.2883  1.1665
11621TIP3    H256279   3.700   4.440   2.317  1.3034  0.0938  1.4182
11622TIP3   OH256280   2.208   1.195  14.516  0.0722  0.1444  0.2127
11622TIP3    H156281   2.263   1.274  14.516 -1.1975  1.0744 -0.6816
11622TIP3    H256282   2.162   1.198  14.432 -0.7352 -1.0454  0.5787
11623TIP3   OH256283   5.257   5.850  13.028 -0.8126 -0.1512  0.3356
11623TIP3    H156284   5.313   5.907  13.080 -0.3350  1.3860 -1.6996
11623TIP3    H256285   5.282   5.761  13.054  2.1995  0.4630 -0.0399
11624TIP3   OH256286   3.580   0.230   3.416  0.5439 -0.1647  0.5578
11624TIP3    H156287   3.612   0.179   3.490  1.4870 -0.2956  0.0723
11624TIP3    H256288   3.651   0.292   3.398 -0.2332  0.7657  0.6102
11625TIP3   OH256289   5.713   6.684   2.649 -0.1879  0.7524  0.5713
11625TIP3    H156290   5.690   6.705   2.740 -2.2823 -0.4302  0.3786
11625TIP3    H256291   5.644   6.724   2.597  1.1967  1.7559 -0.5992
11626TIP3   OH256292   1.772   4.655   4.505  0.2247  0.3822  0.2722
11626TIP3    H156293   1.771   4.654   4.410 -1.2638  1.1599  0.2485
11626TIP3    H256294   1.730   4.573   4.531  1.6526 -0.3698  0.3032
11627TIP3   OH256295   0.952   3.417  12.225  0.1677  0.5835 -0.7076
11627TIP3    H156296   0.998   3.348  12.177  0.3008 -0.3010  0.6168
11627TIP3    H256297   0.899   3.461  12.159  0.4389 -0.4903 -1.6824
11628TIP3   OH256298   1.338   2.691   4.002  0.7287  0.1493 -0.2462
11628TIP3    H156299   1.375   2.610   3.968  0.8118  1.1861 -2.8416
11628TIP3    H256300   1.331   2.748   3.926  2.2511  3.2064  1.7135
11629TIP3   OH256301   0.384   4.482   5.152  0.1723  0.3594 -0.0803
11629TIP3    H156302   0.470   4.503   5.118  0.1929 -0.3355 -0.4866
11629TIP3    H256303   0.388   4.506   5.245  0.9972 -0.1854  0.0414
11630TIP3   OH256304   2.858   3.244   4.641  0.2678  0.3112 -0.5122
11630TIP3    H156305   2.903   3.325   4.615 -1.6232  0.9475 -2.0420
11630TIP3    H256306   2.878   3.182   4.571  0.3555 -0.0360 -0.1832
11631TIP3   OH256307   5.429   6.453   2.656 -0.2029  0.5799  0.1363
11631TIP3    H156308   5.360   6.413   2.709 -1.2312  0.1494 -1.4520
11631TIP3    H256309   5.392   6.538   2.630  0.9500  1.5128  1.4118
11632TIP3   OH256310   4.319   1.281   3.365 -0.8625 -0.2584  0.4271
11632TIP3    H156311   4.406   1.240   3.363 -0.6263  0.2678 -0.5300
11632TIP3    H256312   4.262   1.214   3.403  0.0806 -0.3650  1.7020
11633TIP3   OH256313   0.248   1.621   2.081  0.4307  0.1519  0.2745
11633TIP3    H156314   0.166   1.667   2.100 -0.5989 -1.8466  0.9521
11633TIP3    H256315   0.300   1.632   2.160 -0.5104 -1.1991  1.1368
11634TIP3   OH256316   5.218   4.451   5.462  0.1807 -0.1816 -0.3218
11634TIP3    H156317   5.254   4.366   5.490  2.1351  1.2762  2.0334
11634TIP3    H256318   5.160   4.477   5.534 -1.9625 -0.3122 -1.9139
11635TIP3   OH256319   0.925   0.276   1.946 -0.1466  0.1783  0.1753
11635TIP3    H156320   0.897   0.361   1.913 -0.9952 -0.7127 -1.5215
11635TIP3    H256321   1.011   0.293   1.985 -1.0259  2.1091  1.4565
11636TIP3   OH256322   1.548   0.748  14.083  0.8909  0.4284  0.0232
11636TIP3    H156323   1.630   0.717  14.044  0.0697  0.8857 -2.2503
11636TIP3    H256324   1.527   0.828  14.034 -1.8395 -0.6964 -0.8349
11637TIP3   OH256325   4.807   3.542   0.260  0.6198 -0.4734  0.3722
11637TIP3    H156326   4.733   3.602   0.261  1.4009  0.6587 -1.8366
11637TIP3    H256327   4.803   3.501   0.173  2.3438 -0.6639  0.3502
11638TIP3   OH256328   3.686   1.275  17.063 -0.2510  0.1481  0.0483
11638TIP3    H156329   3.615   1.237  17.116  0.4543  0.0355  0.9447
11638TIP3    H256330   3.755   1.209  17.065  0.9715  1.3836  1.5666
11639TIP3   OH256331   3.191   0.653  16.912  0.4503 -0.3650  0.8285
11639TIP3    H156332   3.191   0.563  16.945  0.3350 -0.3847  0.7746
11639TIP3    H256333   3.213   0.706  16.989  1.7101 -0.5301  0.5945
11640TIP3   OH256334   2.080   1.985   5.431  0.1615 -0.4211 -0.6660
11640TIP3    H156335   1.998   1.947   5.463  0.7560 -1.7564 -0.6342
11640TIP3    H256336   2.099   1.937   5.351  1.1827 -0.5186 -0.3855
11641TIP3   OH256337   5.754   5.036  11.253  0.1504 -0.2118 -0.0745
11641TIP3    H156338   5.754   4.942  11.237 -0.1792 -0.2177 -0.0602
11641TIP3    H256339   5.697   5.072  11.185  2.0756  0.2528 -1.5234
11642TIP3   OH256340   2.630   1.914  15.335 -0.0733  0.0387 -0.5529
11642TIP3    H156341   2.707   1.905  15.280  0.2932 -1.5640  0.1858
11642TIP3    H256342   2.586   1.829  15.330 -0.4753  0.1336  0.9432
11643TIP3   OH256343   3.231   2.501   1.843  0.4681 -0.0781  0.0189
11643TIP3    H156344   3.196   2.521   1.930 -0.5704  1.3772 -0.6948
11643TIP3    H256345   3.169   2.437   1.807  0.0354  0.4712 -0.2215
11644TIP3   OH256346   6.714   4.617  12.941  0.5980  0.2392 -0.2606
11644TIP3    H156347   6.657   4.644  12.869  0.4481  1.4052  0.2621
11644TIP3    H256348   6.803   4.629  12.906  0.5978 -2.1407 -1.2809
11645TIP3   OH256349   5.356   4.335  11.434 -0.4228 -0.7087 -0.2449
11645TIP3    H156350   5.412   4.264  11.464 -0.3393 -0.6139 -0.1709
11645TIP3    H256351   5.339   4.386  11.514  0.5949  0.1006 -0.5155
11646TIP3   OH256352   2.799   1.346  14.193 -1.0378  0.2435 -0.0113
11646TIP3    H156353   2.845   1.419  14.153 -1.8018  0.5671 -0.3095
11646TIP3    H256354   2.818   1.354  14.287  1.1655 -0.8064 -0.3121
11647TIP3   OH256355   6.657   1.073  14.411  0.0743  0.3724  0.2226
11647TIP3    H156356   6.720   1.126  14.460  2.2187 -1.5231 -0.3046
11647TIP3    H256357   6.592   1.047  14.476  0.6472  1.1359  1.1336
11648TIP3   OH256358   5.020   0.571   4.733  0.5560 -0.3148  0.1624
11648TIP3    H156359   5.052   0.636   4.670  0.2832  0.1107  0.4607
11648TIP3    H256360   4.954   0.618   4.785 -0.2326 -1.0498 -0.1483
11649TIP3   OH256361   0.178   6.234  11.874 -0.6607  0.1840  0.4334
11649TIP3    H156362   0.247   6.176  11.843 -0.4211  1.8541 -2.4598
11649TIP3    H256363   0.205   6.258  11.963  2.0006  0.0220 -0.2565
11650TIP3   OH256364   1.067   4.953   6.010 -0.3201  0.4254 -0.2935
11650TIP3    H156365   1.036   4.972   6.099  0.7289  1.3017 -0.0901
11650TIP3    H256366   1.159   4.977   6.012 -0.7201  2.3951 -2.1684
11651TIP3   OH256367   3.774   2.700  12.904  0.6270 -0.7591 -0.8862
11651TIP3    H156368   3.815   2.749  12.975  0.4766 -1.6799 -0.1320
11651TIP3    H256369   3.827   2.621  12.896 -0.2041 -1.3506 -0.7789
11652TIP3   OH256370   2.894   0.003  15.346  0.1402  0.3304 -0.3109
11652TIP3    H156371   2.986  -0.001  15.322  0.1325 -0.7017 -0.1934
11652TIP3    H256372   2.882  -0.066  15.411 -0.3305  1.6168  1.0467
11653TIP3   OH256373   0.755   1.481  13.169 -0.2593  0.1527 -0.6651
11653TIP3    H156374   0.814   1.546  13.130  1.8316 -0.7280  0.8748
11653TIP3    H256375   0.721   1.432  13.094 -0.0367  1.4832 -1.6795
11654TIP3   OH256376   5.135   2.557  10.505  0.1620  0.4477  0.0314
11654TIP3    H156377   5.183   2.539  10.423 -2.3816 -1.1168 -1.2435
11654TIP3    H256378   5.202   2.550  10.573  1.6905 -2.2570 -1.5550
11655TIP3   OH256379   3.935   0.445   3.235 -0.2270 -0.6415  0.6456
11655TIP3    H156380   3.919   0.357   3.200  0.7107 -1.4554  2.1965
11655TIP3    H256381   3.865   0.498   3.197 -1.0120 -2.1124 -0.0575
11656TIP3   OH256382   5.086   2.594   1.531 -0.0140 -0.0830 -0.4699
11656TIP3    H156383   5.087   2.512   1.482  1.0544  0.6813 -1.7980
11656TIP3    H256384   4.994   2.616   1.540 -0.3021 -1.2982 -0.2996
11657TIP3   OH256385   4.665   0.565  16.674 -0.0940 -0.0487 -0.0054
11657TIP3    H156386   4.746   0.590  16.630 -1.0185 -0.0129 -1.7953
11657TIP3    H256387   4.693   0.511  16.748  1.6130  1.2308  0.3489
11658TIP3   OH256388   6.441   2.808  16.448  0.0075  0.5372  0.2040
11658TIP3    H156389   6.376   2.738  16.439 -1.1711  1.5589  0.4979
11658TIP3    H256390   6.470   2.825  16.358 -4.2441  3.7711 -0.9047
11659TIP3   OH256391   2.308   4.376  13.941  0.0341 -0.7403  0.0418
11659TIP3    H156392   2.218   4.407  13.956  0.1903  0.9478 -2.0460
11659TIP3    H256393   2.296   4.292  13.896 -0.6340  0.5937 -2.4491
11660TIP3   OH256394   2.848   3.291   4.918 -0.3813  0.3887  0.3167
11660TIP3    H156395   2.906   3.220   4.943  1.8847  1.8035 -0.5707
11660TIP3    H256396   2.862   3.302   4.824 -1.2722  1.4908  0.2850
11661TIP3   OH256397   3.646   0.200  12.054 -0.3904  0.2586  0.0228
11661TIP3    H156398   3.718   0.257  12.083  1.5934 -1.1764 -1.7653
11661TIP3    H256399   3.585   0.259  12.010  0.5050  1.3045  0.1317
11662TIP3   OH256400   6.591   6.003   0.749  0.2378 -0.2499 -0.3127
11662TIP3    H156401   6.594   5.914   0.785 -0.1513  0.4634  1.6196
11662TIP3    H256402   6.682   6.026   0.734  0.3572 -0.8717 -0.5646
11663TIP3   OH256403   6.303   2.406  16.220  0.2573 -0.6553  0.0024
11663TIP3    H156404   6.379   2.414  16.162 -0.6071  0.8851 -0.9695
11663TIP3    H256405   6.232   2.451  16.174 -0.9353 -0.9777  1.4451
11664TIP3   OH256406   6.339   6.567   2.405  0.0583 -0.3496 -1.0484
11664TIP3    H156407   6.296   6.535   2.484  1.7390 -0.6886 -0.2177
11664TIP3    H256408   6.269   6.577   2.341 -1.1905 -1.0690  0.1644
11665TIP3   OH256409   4.465   2.356   6.637  0.2534  0.4318  0.1689
11665TIP3    H156410   4.516   2.275   6.639  0.6996  0.7227  0.5002
11665TIP3    H256411   4.530   2.426   6.625 -0.2033  0.6739 -1.1130
11666TIP3   OH256412   3.204   2.642   3.982 -0.2544 -0.6013  0.2086
11666TIP3    H156413   3.291   2.605   4.001 -0.4110 -0.8931  0.3626
11666TIP3    H256414   3.156   2.633   4.064 -0.5481 -0.7721  0.0175
11667TIP3   OH256415   0.758   6.526  14.780  0.4018  0.4521 -0.0145
11667TIP3    H156416   0.712   6.572  14.710 -1.4945  1.4174  1.7760
11667TIP3    H256417   0.815   6.464  14.734  1.7190  3.2424 -2.4952
11668TIP3   OH256418   5.698   2.524  11.295  0.0475  0.0307 -0.0293
11668TIP3    H156419   5.668   2.599  11.346  0.2934 -0.0266  0.1985
11668TIP3    H256420   5.660   2.448  11.339  1.3809 -0.1314  0.8977
11669TIP3   OH256421   0.915   2.473   0.267  0.3311  0.5551 -0.7211
11669TIP3    H156422   0.847   2.406   0.257  0.2442  0.4875  0.2572
11669TIP3    H256423   0.893   2.518   0.349  1.3345  0.6711 -0.5041
11670TIP3   OH256424   1.671   2.460  13.907 -0.8292 -0.2512  0.4519
11670TIP3    H156425   1.634   2.500  13.828  1.8004  2.3251  0.3172
11670TIP3    H256426   1.675   2.367  13.887 -1.7265  0.1172 -1.8130
11671TIP3   OH256427   1.010   5.641   3.491  0.1198 -0.1087  0.1482
11671TIP3    H156428   1.051   5.555   3.479 -1.5428 -0.8882 -0.1657
11671TIP3    H256429   1.012   5.655   3.585  1.9049  0.3092  0.0892
11672TIP3   OH256430   3.307   3.610   4.705  0.1901 -0.2982  0.1165
11672TIP3    H156431   3.397   3.594   4.677 -0.1398 -3.0240  0.3716
11672TIP3    H256432   3.309   3.601   4.800 -0.4524 -0.9184  0.0741
11673TIP3   OH256433   1.081   5.437   5.000 -0.0884  0.1436  0.0517
11673TIP3    H156434   1.051   5.358   4.955 -0.2202 -0.4006  1.0438
11673TIP3    H256435   1.018   5.504   4.976  0.7433  0.2988 -1.8255
11674TIP3   OH256436   3.000   2.132  15.172  0.7620 -0.4955 -0.2335
11674TIP3    H156437   2.957   2.213  15.198  0.1024 -0.8273 -0.2611
11674TIP3    H256438   2.999   2.134  15.076 -0.4850 -1.1526 -0.2540
11675TIP3   OH256439   5.666   3.603  15.516  0.0165 -0.2453  0.9822
11675TIP3    H156440   5.602   3.620  15.448  0.7413 -0.9183  0.1100
11675TIP3    H256441   5.640   3.518  15.553  0.9981 -1.0630 -0.1214
11676TIP3   OH256442   1.624   2.258   2.503 -0.0740  0.7360 -0.1614
11676TIP3    H156443   1.621   2.238   2.596  0.1804 -1.7660 -0.6212
11676TIP3    H256444   1.715   2.240   2.477 -0.5312 -0.2187 -1.1862
11677TIP3   OH256445   6.423   5.077  12.350 -0.3781  0.6811 -0.1604
11677TIP3    H156446   6.439   4.990  12.314  0.6094 -0.3679  2.4914
11677TIP3    H256447   6.328   5.087  12.351 -0.6231 -1.2368  1.1726
11678TIP3   OH256448   0.267   2.863  15.755  0.3424  0.1870 -0.0286
11678TIP3    H156449   0.237   2.941  15.709 -1.1610 -0.1969  0.2524
11678TIP3    H256450   0.188   2.812  15.771  1.1741 -0.9597  0.6221
11679TIP3   OH256451   5.858   6.534   3.153 -0.0121 -0.1187  0.1523
11679TIP3    H156452   5.912   6.613   3.146 -0.1168  0.0249  0.8503
11679TIP3    H256453   5.921   6.464   3.172 -0.0629  0.0681  1.0844
11680TIP3   OH256454   2.607   5.108  11.996  0.1778 -0.0229  0.0610
11680TIP3    H156455   2.657   5.157  11.930 -0.3770  0.0744 -0.2937
11680TIP3    H256456   2.665   5.037  12.022  0.0245 -0.6707 -1.2843
11681TIP3   OH256457   2.220   3.150   1.551 -0.1760  0.2655  0.2804
11681TIP3    H156458   2.216   3.176   1.643 -0.6985 -1.9141  0.9194
11681TIP3    H256459   2.130   3.160   1.520 -0.2861 -0.3002  0.4050
11682TIP3   OH256460   6.127   2.025   2.329 -0.3344  0.4403 -0.0192
11682TIP3    H156461   6.189   2.095   2.310  0.0976 -0.2582 -1.2704
11682TIP3    H256462   6.116   2.028   2.424  0.0917  1.8429  0.0119
11683TIP3   OH256463   6.748   4.720  11.908  0.4321 -0.1099  0.6937
11683TIP3    H156464   6.697   4.759  11.838  0.0299  0.3507  1.2362
11683TIP3    H256465   6.839   4.733  11.881  0.2789 -1.2624 -0.4518
11684TIP3   OH256466   5.506   4.544  12.079 -0.3045  0.5609  0.0423
11684TIP3    H156467   5.438   4.545  12.012  0.0150  0.2317 -0.2937
11684TIP3    H256468   5.586   4.565  12.031 -0.0143 -0.0348  0.2544
11685TIP3   OH256469   4.875   3.856   0.828  0.0429  0.5394  0.1845
11685TIP3    H156470   4.791   3.894   0.800 -0.3264  0.0752  0.6386
11685TIP3    H256471   4.930   3.932   0.847 -0.8676  0.8683  1.6207
11686TIP3   OH256472   4.833   3.120  13.031  0.6187  0.2658  0.0717
11686TIP3    H156473   4.858   3.073  12.951 -0.1510  1.1607 -0.7393
11686TIP3    H256474   4.749   3.081  13.056  1.0302 -0.2575  0.6702
11687TIP3   OH256475   6.765   5.141   5.403  0.3656 -0.3245 -0.5607
11687TIP3    H156476   6.761   5.164   5.496 -0.8144  0.0670 -0.6893
11687TIP3    H256477   6.674   5.137   5.375  0.6742  2.5510 -2.4047
11688TIP3   OH256478   1.262   2.597  13.844  0.1709  0.2629  0.0715
11688TIP3    H156479   1.313   2.678  13.840  0.0023  0.4455  1.1693
11688TIP3    H256480   1.189   2.618  13.902  0.8046 -1.0177  1.3996
11689TIP3   OH256481   5.526   3.608   2.328  0.0175  0.5202  0.3933
11689TIP3    H156482   5.533   3.662   2.407  0.9199  0.6024  0.2745
11689TIP3    H256483   5.601   3.635   2.274  0.3822 -0.7213  0.2467
11690TIP3   OH256484   5.495   4.873   3.296  0.2490 -0.4029 -0.3859
11690TIP3    H156485   5.417   4.849   3.345  0.8354 -1.5911  0.0196
11690TIP3    H256486   5.488   4.825   3.214  0.8805 -1.0794 -0.0548
11691TIP3   OH256487   4.743   6.017   5.605 -0.9928  0.3328  0.0705
11691TIP3    H156488   4.774   5.960   5.676 -2.2986  0.0501  0.4333
11691TIP3    H256489   4.822   6.039   5.557 -0.3667 -1.3753  0.2268
11692TIP3   OH256490   4.760   5.122  13.103  0.1315  0.4454 -0.2039
11692TIP3    H156491   4.727   5.080  13.182 -0.6280 -0.2684 -0.8860
11692TIP3    H256492   4.687   5.121  13.042  0.0610  2.7931 -0.2625
11693TIP3   OH256493   1.550   3.186  16.846 -0.1937 -0.1827  0.1747
11693TIP3    H156494   1.510   3.152  16.926  0.2209 -2.2420 -0.4367
11693TIP3    H256495   1.493   3.153  16.776 -1.5142  2.9286 -0.4039
11694TIP3   OH256496   5.066   1.316  13.995  0.0377  0.1252 -0.0166
11694TIP3    H156497   5.005   1.366  14.050  2.7745  1.3880  2.1227
11694TIP3    H256498   5.084   1.237  14.046  0.2983 -0.1626 -0.5532
11695TIP3   OH256499   5.640   6.266   5.244  0.4501 -0.2829  0.0078
11695TIP3    H156500   5.730   6.234   5.236  0.5193 -0.0540 -0.1689
11695TIP3    H256501   5.646   6.339   5.305  0.2249 -0.8557  0.7259
11696TIP3   OH256502   3.830   6.637   0.663 -0.1491  0.1905 -0.3752
11696TIP3    H156503   3.789   6.580   0.597  2.2639 -1.6081 -0.4589
11696TIP3    H256504   3.774   6.629   0.740  1.1189 -4.1762  0.3488
11697TIP3   OH256505   3.673   5.181   2.983  0.2139  0.1300 -0.3173
11697TIP3    H156506   3.708   5.142   2.903 -1.1699  0.5589 -1.1721
11697TIP3    H256507   3.595   5.228   2.954 -0.7556 -0.3442  1.4135
11698TIP3   OH256508   3.061   1.889   3.365  0.5064 -0.1277  0.0559
11698TIP3    H156509   3.051   1.980   3.394 -0.2443  0.1361 -0.9830
11698TIP3    H256510   2.975   1.850   3.379  0.8145 -0.6675  0.4458
11699TIP3   OH256511   3.541   4.573   3.931 -0.0634  0.0664 -0.1593
11699TIP3    H156512   3.548   4.632   4.006 -0.7954 -0.9864  0.7948
11699TIP3    H256513   3.598   4.499   3.953 -0.2510 -0.2367 -0.6656
11700TIP3   OH256514   6.148   6.774  14.934  0.0671  0.2215 -0.4781
11700TIP3    H156515   6.077   6.838  14.938 -1.2650 -1.2081  3.4788
11700TIP3    H256516   6.104   6.693  14.908  0.4461 -0.3900  0.7324
11701TIP3   OH256517   0.160   0.208   4.921  0.6063  0.1609 -0.2169
11701TIP3    H156518   0.184   0.214   5.013  0.7136 -0.8693 -0.1579
11701TIP3    H256519   0.198   0.285   4.880 -2.4205  2.6106  1.2018
11702TIP3   OH256520   2.743   6.183   3.542  0.3093 -0.3414  0.1274
11702TIP3    H156521   2.762   6.253   3.479  0.8586 -0.3074  0.3341
11702TIP3    H256522   2.802   6.199   3.615 -0.2643 -0.4384  0.6153
11703TIP3   OH256523   0.893   3.181  12.513  0.4149 -0.0918 -0.2120
11703TIP3    H156524   0.925   3.167  12.424 -0.9015 -1.3766 -0.5142
11703TIP3    H256525   0.799   3.165  12.508  0.3315 -0.3027  1.4378
11704TIP3   OH256526   4.318   3.291  13.679 -0.0837 -0.0034  0.0406
11704TIP3    H156527   4.412   3.272  13.688 -0.2915 -0.8851  0.4745
11704TIP3    H256528   4.293   3.330  13.763 -0.6225 -2.1489  0.9584
11705TIP3   OH256529   3.986   6.733   5.009 -0.6779 -0.0560  0.4466
11705TIP3    H156530   3.997   6.640   4.989 -0.8602 -0.0536  0.3368
11705TIP3    H256531   3.965   6.774   4.926 -2.2776 -0.1778  0.7640
11706TIP3   OH256532   1.620   4.399  16.982 -0.1290 -0.0538  0.2794
11706TIP3    H156533   1.548   4.387  16.920  0.6328 -0.5632 -0.5353
11706TIP3    H256534   1.635   4.493  16.985  0.1937 -0.0629 -0.7585
11707TIP3   OH256535   5.668   2.761   5.359 -0.4077  0.2035  0.0583
11707TIP3    H156536   5.701   2.787   5.273 -4.5123  1.7703 -1.2682
11707TIP3    H256537   5.715   2.817   5.421  2.0007 -0.3454 -1.1515
11708TIP3   OH256538   2.477   4.394  11.086  0.0918 -0.2295 -0.5279
11708TIP3    H156539   2.498   4.448  11.162 -0.7548 -0.8787  0.1935
11708TIP3    H256540   2.402   4.437  11.045 -1.0414 -1.1702  0.4525
11709TIP3   OH256541   5.950   0.070  13.831  0.6421 -0.6357  0.0291
11709TIP3    H156542   5.948   0.163  13.811 -0.1585 -0.4730  0.7737
11709TIP3    H256543   5.867   0.036  13.796 -0.0569 -0.6342  1.5896
11710TIP3   OH256544   5.546   6.682  14.876 -0.0167  0.7690  0.7932
11710TIP3    H156545   5.612   6.689  14.944 -0.6614  1.6964  1.3467
11710TIP3    H256546   5.587   6.630  14.807  1.4807  1.7848  0.8872
11711TIP3   OH256547   1.298   4.885  13.220  0.0072 -0.2354 -0.0228
11711TIP3    H156548   1.327   4.966  13.179  2.4797 -1.0134  0.0572
11711TIP3    H256549   1.238   4.914  13.289 -0.1175  1.4242 -0.7712
11712TIP3   OH256550   3.068   5.272  11.523  0.2203  0.3286  0.2723
11712TIP3    H156551   3.126   5.321  11.465  0.4196 -1.0435 -0.7180
11712TIP3    H256552   2.983   5.315  11.514  0.7639  1.5485  0.7512
11713TIP3   OH256553   3.573   2.374   0.689  0.1212 -0.6732  0.7438
11713TIP3    H156554   3.480   2.352   0.687  0.3465 -1.6924  0.4269
11713TIP3    H256555   3.583   2.444   0.625 -1.0603  2.3704  3.5743
11714TIP3   OH256556   6.512   6.635   0.038  0.5361 -0.2877  0.3944
11714TIP3    H156557   6.513   6.716   0.089  1.8137  0.1900 -0.3371
11714TIP3    H256558   6.453   6.577   0.086 -1.5227  1.5121  0.2091
11715TIP3   OH256559   5.090   0.287   1.776 -0.2356 -0.3808 -0.5356
11715TIP3    H156560   5.122   0.377   1.779  0.5234 -0.5867 -1.7397
11715TIP3    H256561   5.017   0.290   1.714 -1.3332 -0.2971  0.7031
11716TIP3   OH256562   6.756   4.838   6.383  0.3159  0.4362  0.3090
11716TIP3    H156563   6.747   4.931   6.403 -1.1407  0.4130 -0.1531
11716TIP3    H256564   6.817   4.835   6.309  0.2848  1.0255  0.2560
11717TIP3   OH256565   0.208   5.753  16.966 -0.0713  0.0736 -0.4963
11717TIP3    H156566   0.233   5.700  16.890  1.0419  1.0688 -0.8586
11717TIP3    H256567   0.220   5.696  17.041  2.7416  0.2557 -0.7072
11718TIP3   OH256568   5.072   1.874  16.145 -0.3967 -0.1904 -0.9564
11718TIP3    H156569   5.104   1.963  16.130  1.2513 -0.8511 -1.6112
11718TIP3    H256570   4.979   1.879  16.122 -0.0876  1.1068 -2.1432
11719TIP3   OH256571   5.840   0.121   5.930 -0.1354  0.1370  0.0008
11719TIP3    H156572   5.748   0.121   5.904 -0.1733  0.0579  0.1384
11719TIP3    H256573   5.839   0.126   6.025 -0.0317 -1.7016  0.1316
11720TIP3   OH256574   0.488   3.340   2.831  0.0509  0.3363 -0.1480
11720TIP3    H156575   0.530   3.356   2.746  0.5196 -2.7910 -0.6316
11720TIP3    H256576   0.497   3.423   2.878  0.4211  1.9589 -2.8587
11721TIP3   OH256577   1.420   4.546   3.156  0.1438  0.4371  0.4378
11721TIP3    H156578   1.370   4.470   3.185  0.6815 -0.0728  0.0600
11721TIP3    H256579   1.373   4.577   3.078  0.5315 -0.1896 -0.0624
11722TIP3   OH256580   5.497   5.269  16.275  0.3456  0.7841  0.3213
11722TIP3    H156581   5.532   5.196  16.326  1.0803  1.5280  0.9029
11722TIP3    H256582   5.405   5.247  16.262  0.5113 -0.1572  0.6356
11723TIP3   OH256583   0.383   3.988  16.115  0.4876  0.0664  0.3155
11723TIP3    H156584   0.396   3.921  16.182  0.4386  0.1320  0.3909
11723TIP3    H256585   0.439   3.961  16.042  3.7130  2.0300  1.8062
11724TIP3   OH256586   0.980   3.417  11.555 -0.5283 -0.0717 -0.6080
11724TIP3    H156587   0.892   3.454  11.562  0.0445  1.2032  0.1974
11724TIP3    H256588   1.017   3.459  11.477 -0.1751  0.4159 -0.1825
11725TIP3   OH256589   3.587   6.576  13.590  0.1608  0.0593  0.7571
11725TIP3    H156590   3.587   6.652  13.532  2.0460  0.5253  1.2970
11725TIP3    H256591   3.679   6.548  13.594 -0.0571 -0.5613  2.6950
11726TIP3   OH256592   0.606   0.093   5.819 -0.2785  0.0298 -0.1698
11726TIP3    H156593   0.522   0.109   5.861 -0.8275  1.0469 -1.5885
11726TIP3    H256594   0.641   0.180   5.800  0.9805 -0.3823  0.1475
11727TIP3   OH256595   4.761   5.075   4.928 -0.2296  0.0876 -0.0467
11727TIP3    H156596   4.753   5.112   4.840 -1.0586  0.0735  0.0185
11727TIP3    H256597   4.723   5.142   4.986  0.0784 -0.0118  0.2774
11728TIP3   OH256598   5.559   2.887  13.343 -0.5754  0.0484  0.7155
11728TIP3    H156599   5.570   2.822  13.413 -0.6829  1.2534  1.8923
11728TIP3    H256600   5.579   2.971  13.385 -1.1193  0.8558 -0.5842
11729TIP3   OH256601   3.523   3.075   3.470  0.6798 -0.3990 -0.0729
11729TIP3    H156602   3.471   3.089   3.391 -0.0124  0.3591  0.5035
11729TIP3    H256603   3.542   3.163   3.503 -0.8597 -0.6882  1.7516
11730TIP3   OH256604   0.239   6.317   0.274  0.4655 -0.3974  0.1668
11730TIP3    H156605   0.274   6.228   0.268  1.0377 -0.0853 -1.6249
11730TIP3    H256606   0.153   6.313   0.232  1.9145  0.5362 -3.2045
11731TIP3   OH256607   1.184   0.059   1.854  0.8977  0.0351 -0.1875
11731TIP3    H156608   1.129   0.097   1.785  0.5362  0.3100  0.2459
11731TIP3    H256609   1.126  -0.003   1.899  1.1595 -0.2088 -0.1841
11732TIP3   OH256610   0.774   6.259  16.552 -0.8543 -0.0073  0.4229
11732TIP3    H156611   0.750   6.166  16.545  0.9390 -0.4258 -1.0816
11732TIP3    H256612   0.768   6.278  16.646  1.4514 -2.4930  1.2238
11733TIP3   OH256613   4.849   1.399   0.172  0.3082  0.6580  0.1903
11733TIP3    H156614   4.805   1.462   0.229  0.1328  0.1666  0.6056
11733TIP3    H256615   4.837   1.315   0.215  1.6473  0.5071  0.3152
11734TIP3   OH256616   6.663   0.230   2.161 -0.1044 -0.4360 -0.5061
11734TIP3    H156617   6.661   0.241   2.066  0.1353  0.0850 -0.4532
11734TIP3    H256618   6.737   0.284   2.190 -1.6813  1.4415  0.2306
11735TIP3   OH256619   5.912   4.289  11.476  0.0994  0.1148  0.7482
11735TIP3    H156620   5.933   4.210  11.426 -2.1482  0.8730 -1.5829
11735TIP3    H256621   5.995   4.314  11.517  1.8938 -1.0725 -1.9065
11736TIP3   OH256622   1.485   5.220   1.929  0.0244  0.1878 -0.1051
11736TIP3    H156623   1.577   5.195   1.942  1.0399  3.0670 -0.8749
11736TIP3    H256624   1.458   5.174   1.850 -0.0236 -2.4871  1.3549
11737TIP3   OH256625   0.604   6.523   1.103 -0.3197  0.1197  0.4042
11737TIP3    H156626   0.564   6.448   1.145  0.1039  0.6003  1.7019
11737TIP3    H256627   0.562   6.599   1.142  0.1169  0.5847 -0.0037
11738TIP3   OH256628   6.373   3.635  12.363 -0.8281 -0.2661  0.5589
11738TIP3    H156629   6.355   3.685  12.443  1.1460  0.9949  0.2809
11738TIP3    H256630   6.401   3.700  12.299 -0.9608 -1.4229 -0.7195
11739TIP3   OH256631   2.781   3.478   6.260  0.4303  0.2162  0.4075
11739TIP3    H156632   2.697   3.442   6.287  0.5216 -0.9730 -0.8103
11739TIP3    H256633   2.837   3.402   6.245  0.7104  0.8088 -1.9659
11740TIP3   OH256634   3.869   6.592   4.423 -0.4645  0.1195 -0.2331
11740TIP3    H156635   3.817   6.671   4.440 -1.9996 -1.1988  1.5783
11740TIP3    H256636   3.943   6.598   4.483  0.4446  1.0061 -1.3844
11741TIP3   OH256637   3.064   1.712  12.356  0.0329 -0.4703  0.1696
11741TIP3    H156638   3.157   1.732  12.371 -0.0831 -0.3032  0.7084
11741TIP3    H256639   3.046   1.745  12.268  0.9326 -2.1379 -0.6913
11742TIP3   OH256640   2.666   1.125  14.405  0.5834 -0.2117 -0.4480
11742TIP3    H156641   2.616   1.208  14.405 -0.1039 -0.5773  1.2690
11742TIP3    H256642   2.609   1.063  14.359  0.7675  0.0690 -1.0694
11743TIP3   OH256643   3.209   4.688   0.305 -0.3301  0.1671  0.1684
11743TIP3    H156644   3.214   4.697   0.400  3.1595  0.3922  0.1018
11743TIP3    H256645   3.241   4.771   0.271 -2.3763  0.4341 -1.2994
11744TIP3   OH256646   0.769   1.416  11.322  0.3657  0.5022 -0.2141
11744TIP3    H156647   0.712   1.458  11.257  0.5666  0.1112 -0.6508
11744TIP3    H256648   0.777   1.480  11.393 -0.2077  0.7605 -0.3807
11745TIP3   OH256649   0.373   4.332  13.350  0.2124  0.1018 -0.1860
11745TIP3    H156650   0.429   4.347  13.426  0.3177 -1.8927  0.1824
11745TIP3    H256651   0.352   4.420  13.318  0.8248  0.9718  1.6522
11746TIP3   OH256652   0.757   6.508  13.138 -0.1888 -0.5310 -0.7597
11746TIP3    H156653   0.798   6.434  13.093  2.6221 -0.4258  1.3678
11746TIP3    H256654   0.809   6.584  13.113  0.3759 -0.2027  1.2143
11747TIP3   OH256655   3.638   5.343  16.682  0.2161 -0.2786  0.2493
11747TIP3    H156656   3.575   5.271  16.694 -1.2591  0.8650 -0.3269
11747TIP3    H256657   3.584   5.421  16.675  1.7767  0.8806  0.5981
11748TIP3   OH256658   2.303   5.016   2.974 -0.5750 -0.5345 -0.3278
11748TIP3    H156659   2.281   5.100   3.013  1.0227 -1.4166  2.8239
11748TIP3    H256660   2.346   5.038   2.892  0.5794  1.8068  0.8165
11749TIP3   OH256661   0.815   2.987  16.947  0.3897  0.9596  0.1980
11749TIP3    H156662   0.835   2.894  16.937 -1.3054  0.6633 -0.8247
11749TIP3    H256663   0.760   3.008  16.871  1.6460  3.0888 -0.2277
11750TIP3   OH256664   3.771   0.733   0.167  0.0043 -0.3269 -0.0769
11750TIP3    H156665   3.740   0.808   0.218  0.1600 -1.3086  1.4988
11750TIP3    H256666   3.847   0.700   0.215  0.9999 -0.4905 -1.6677
11751TIP3   OH256667   6.284   6.345  16.236  0.4825 -0.1385  0.3654
11751TIP3    H156668   6.318   6.368  16.322 -0.3787  0.3421  0.5899
11751TIP3    H256669   6.357   6.359  16.176  1.1811 -0.7647  1.0491
11752TIP3   OH256670   1.923   3.396   1.095 -0.0953 -0.2341 -0.1745
11752TIP3    H156671   2.008   3.380   1.136 -0.6963  1.3817  1.8688
11752TIP3    H256672   1.909   3.320   1.039  2.4589 -0.7755 -0.1945
11753TIP3   OH256673   1.323   4.109   0.316 -0.2855 -0.3330 -0.2285
11753TIP3    H156674   1.405   4.088   0.361 -0.8739 -1.1792  0.4874
11753TIP3    H256675   1.255   4.079   0.376 -1.1028 -1.0817 -1.4803
11754TIP3   OH256676   3.345   1.908  16.036  0.4512  0.1761  0.2651
11754TIP3    H156677   3.422   1.885  15.983  0.7532 -0.9795  1.1514
11754TIP3    H256678   3.350   1.849  16.111 -1.1342  0.3173  0.5075
11755TIP3   OH256679   1.156   0.032  16.851 -0.0159 -0.8613  0.2183
11755TIP3    H156680   1.153   0.119  16.812  0.7254 -0.0259  1.9256
11755TIP3    H256681   1.067  -0.001  16.843 -0.3833  0.1846 -0.1683
11756TIP3   OH256682   4.163   3.894   4.199  0.5619  0.1647  0.4913
11756TIP3    H156683   4.143   3.921   4.289  1.8011 -0.2433  0.9181
11756TIP3    H256684   4.197   3.805   4.208  0.0896 -0.1202 -0.4650
11757TIP3   OH256685   0.810   0.189   1.628 -0.2870  0.1411 -0.2958
11757TIP3    H156686   0.897   0.150   1.627  0.1967  1.1575  0.6624
11757TIP3    H256687   0.760   0.134   1.689  0.3959  0.9817  1.0660
11758TIP3   OH256688   4.354   4.812  12.707  0.5023 -0.3518  0.1731
11758TIP3    H156689   4.357   4.907  12.707 -0.3071 -0.3091 -1.3798
11758TIP3    H256690   4.280   4.790  12.763 -0.1773 -0.0104 -0.5705
11759TIP3   OH256691   1.985   6.059  14.935 -0.3344  0.1229 -0.2883
11759TIP3    H156692   2.014   6.113  14.862  1.1059  0.0190  0.1719
11759TIP3    H256693   1.897   6.091  14.955  0.3547  2.1045 -0.2240
11760TIP3   OH256694   2.251   0.411  14.647 -0.4529 -0.2489 -0.1472
11760TIP3    H156695   2.208   0.427  14.731 -2.7469 -0.5764 -1.1831
11760TIP3    H256696   2.314   0.341  14.666 -0.4438  0.1591  1.4351
11761TIP3   OH256697   0.714   5.935   3.443  0.4422 -0.1057  0.0536
11761TIP3    H156698   0.649   5.938   3.514  0.0009  2.2009 -0.3636
11761TIP3    H256699   0.703   5.848   3.404 -2.4116  0.1539  0.0361
11762TIP3   OH256700   5.824   0.589   5.206  0.1565  0.2178  0.4556
11762TIP3    H156701   5.906   0.542   5.218  0.7567  1.0189 -0.3092
11762TIP3    H256702   5.775   0.575   5.287  1.0234 -0.3192  0.8942
11763TIP3   OH256703   0.672   3.930   1.083 -0.1029 -0.0217 -0.4280
11763TIP3    H156704   0.592   3.900   1.126 -1.3378  2.0600 -1.1253
11763TIP3    H256705   0.673   3.883   0.999  0.9920 -2.1933  0.7077
11764TIP3   OH256706   4.545   3.362   4.712 -0.0158  0.0382 -0.0382
11764TIP3    H156707   4.611   3.321   4.767 -0.3143 -1.1361 -0.5257
11764TIP3    H256708   4.586   3.369   4.626 -0.1301  0.3335 -0.0685
11765TIP3   OH256709   2.244   3.969   1.387 -0.3518 -0.3124 -0.0462
11765TIP3    H156710   2.225   4.025   1.462  2.8600  2.0095 -0.7672
11765TIP3    H256711   2.202   4.014   1.313 -0.2676 -0.4870 -0.1995
11766TIP3   OH256712   3.776   4.214   1.300 -0.3964  0.0531 -0.7460
11766TIP3    H156713   3.713   4.282   1.325 -1.3377 -1.4414  1.2888
11766TIP3    H256714   3.724   4.134   1.295  1.0482 -0.9280 -0.7614
11767TIP3   OH256715   4.026   0.962  15.724  0.5318 -0.0298  0.9035
11767TIP3    H156716   4.004   0.905  15.797 -1.1323  1.0235  1.2920
11767TIP3    H256717   3.958   0.944  15.659  1.3705 -0.1771  0.0480
11768TIP3   OH256718   3.149   0.632  12.390 -0.1267  0.5563 -0.1225
11768TIP3    H156719   3.218   0.677  12.342  0.9280  0.9803  1.7042
11768TIP3    H256720   3.114   0.698  12.450 -0.2779 -0.3532  0.8211
11769TIP3   OH256721   5.780   0.336   2.519  0.0564  0.6975  0.4184
11769TIP3    H156722   5.842   0.371   2.455 -1.4415 -1.4449 -2.4099
11769TIP3    H256723   5.702   0.391   2.510 -0.0333  0.6166  0.7021
11770TIP3   OH256724   6.148   5.650   0.545 -0.3992  0.3265  0.2629
11770TIP3    H156725   6.137   5.720   0.609 -0.0273  0.2847  0.3732
11770TIP3    H256726   6.136   5.569   0.594  0.2889  0.2821  0.3699
11771TIP3   OH256727   3.725   3.147   6.098  0.0052 -0.6225  1.1198
11771TIP3    H156728   3.807   3.122   6.055  1.5772  2.5163  2.0367
11771TIP3    H256729   3.748   3.155   6.190 -1.5732 -0.4722  1.5232
11772TIP3   OH256730   2.033   1.139  16.509 -0.6088 -0.5881 -0.4307
11772TIP3    H156731   2.035   1.210  16.444 -0.8197  1.2669  1.4712
11772TIP3    H256732   1.947   1.099  16.498 -0.9404  0.2049 -0.8113
11773TIP3   OH256733   1.653   1.107   1.265 -0.2015  0.2214 -0.5105
11773TIP3    H156734   1.728   1.143   1.217 -1.0941  1.3732 -1.0877
11773TIP3    H256735   1.577   1.150   1.227 -1.1605 -0.7953  0.1876
11774TIP3   OH256736   4.394   3.091   2.654 -0.0581  0.4417 -0.6471
11774TIP3    H156737   4.404   3.145   2.576 -1.5454 -0.9734 -1.9145
11774TIP3    H256738   4.350   3.012   2.622  0.9010 -0.9700  1.3305
11775TIP3   OH256739   0.663   4.034  11.751  0.0269  0.3421 -0.3376
11775TIP3    H156740   0.666   3.968  11.682 -0.3117  1.2298 -1.2269
11775TIP3    H256741   0.603   3.999  11.816  2.3583 -1.7303  0.8401
11776TIP3   OH256742   1.716   1.664   1.690  0.1998 -0.3991 -0.2193
11776TIP3    H156743   1.673   1.627   1.767  0.3777 -0.6347 -0.2323
11776TIP3    H256744   1.803   1.688   1.720 -0.6322  2.2032  0.4223
11777TIP3   OH256745   1.629   3.206   3.308 -0.2169  0.1396  0.1986
11777TIP3    H156746   1.715   3.209   3.267 -0.9158  0.0342 -1.3553
11777TIP3    H256747   1.647   3.204   3.402  1.5212 -1.6776 -0.1099
11778TIP3   OH256748   3.362   3.577  15.656 -0.3430  0.7849 -0.0190
11778TIP3    H156749   3.300   3.508  15.632  0.5804  0.2910 -1.0876
11778TIP3    H256750   3.439   3.529  15.688 -0.0043  1.3475  0.0152
11779TIP3   OH256751   1.229   1.873   1.019 -0.6121  0.2137 -0.4322
11779TIP3    H156752   1.279   1.798   0.987  0.4226  1.1388 -1.1115
11779TIP3    H256753   1.271   1.896   1.102  0.3734  1.1934 -1.1618
11780TIP3   OH256754   6.678   6.629  12.395  0.0580  0.5449  0.2667
11780TIP3    H156755   6.676   6.553  12.454 -2.3005  0.4561  0.1658
11780TIP3    H256756   6.655   6.593  12.309 -0.9599  1.3088  0.1946
11781TIP3   OH256757   4.776   4.189   2.414  0.3213 -0.3102  0.0112
11781TIP3    H156758   4.791   4.133   2.490  0.0814  0.3199  0.5297
11781TIP3    H256759   4.805   4.136   2.339 -1.4144 -1.7674  0.3088
11782TIP3   OH256760   2.870   3.819   2.500  0.5905 -0.2727  0.0974
11782TIP3    H156761   2.918   3.893   2.535  1.7507 -1.0226  0.1607
11782TIP3    H256762   2.916   3.742   2.534  0.7593 -1.0264 -1.6896
11783TIP3   OH256763   1.069   0.256  15.607 -0.2387 -0.0337  0.1841
11783TIP3    H156764   1.087   0.320  15.676  2.7096 -1.2677  0.7373
11783TIP3    H256765   1.085   0.303  15.526  0.4644  0.3348  0.5278
11784TIP3   OH256766   2.214   0.390   2.312 -0.0434  0.4492  0.1828
11784TIP3    H156767   2.135   0.336   2.315  1.8987 -2.5892  0.4591
11784TIP3    H256768   2.243   0.386   2.221  1.5280 -1.3600  0.6820
11785TIP3   OH256769   6.731   2.313   4.979 -0.4652 -0.4120  0.2863
11785TIP3    H156770   6.690   2.399   4.970  0.6012  0.0259 -0.4918
11785TIP3    H256771   6.694   2.261   4.908 -1.1719 -0.6393  0.8058
11786TIP3   OH256772   2.186   3.769  14.123  0.6479 -0.1687 -0.2021
11786TIP3    H156773   2.212   3.856  14.153  0.4970  0.7170 -2.4294
11786TIP3    H256774   2.090   3.769  14.129  0.7300 -0.9235  1.5915
11787TIP3   OH256775   6.594   5.365  11.620 -0.4182  0.5969  0.5325
11787TIP3    H156776   6.666   5.311  11.589 -0.8055  0.7437 -0.6976
11787TIP3    H256777   6.630   5.415  11.692  0.3893 -0.1461  0.6561
11788TIP3   OH256778   2.047   5.794   6.752  0.0425 -0.0718  0.2281
11788TIP3    H156779   2.108   5.864   6.729  1.0026 -0.7336  0.6842
11788TIP3    H256780   1.961   5.834   6.743  0.5134  0.7599 -0.8610
11789TIP3   OH256781   3.749   2.592   1.760 -0.1239 -0.0186  0.3967
11789TIP3    H156782   3.753   2.501   1.789  2.0807  0.5213  2.0751
11789TIP3    H256783   3.733   2.587   1.666  2.1466 -2.2569  0.0125
11790TIP3   OH256784   3.155   3.144   5.457  0.2367  0.0817 -0.2484
11790TIP3    H156785   3.151   3.096   5.540  1.5632  1.0960  0.4193
11790TIP3    H256786   3.065   3.174   5.443  0.1467  0.5999  1.2533
11791TIP3   OH256787   2.218   6.475   4.133  0.1893  0.1601 -0.3478
11791TIP3    H156788   2.290   6.429   4.176 -0.0675  0.4061  0.3750
11791TIP3    H256789   2.192   6.542   4.197 -0.3630  0.3819 -0.7976
11792TIP3   OH256790   0.091   4.561  13.286 -0.7101  0.0513 -0.1167
11792TIP3    H156791   0.160   4.592  13.344 -2.8205  0.7920  2.1420
11792TIP3    H256792   0.100   4.466  13.286  0.8447  0.1730 -0.6373
11793TIP3   OH256793   0.933   1.482   0.255  0.4772 -0.2170  0.4509
11793TIP3    H156794   0.885   1.410   0.213  0.3419 -1.0103  1.8640
11793TIP3    H256795   1.017   1.443   0.281 -0.4255 -0.5840  3.1695
11794TIP3   OH256796   3.754   4.102   0.172 -0.3161 -0.1903 -0.1656
11794TIP3    H156797   3.680   4.155   0.203  1.6376  0.9757  2.8958
11794TIP3    H256798   3.736   4.014   0.207 -0.0032  0.2534  1.1981
11795TIP3   OH256799   6.484   2.531   2.331 -0.1481  0.1221 -0.6768
11795TIP3    H156800   6.464   2.624   2.343  0.7496  0.2845 -0.4163
11795TIP3    H256801   6.518   2.525   2.241  0.5817  0.1873 -0.4106
11796TIP3   OH256802   6.502   5.035  14.213 -0.0255 -0.0341 -0.7518
11796TIP3    H156803   6.567   5.079  14.268 -0.2738  0.7585 -1.0784
11796TIP3    H256804   6.448   5.106  14.178 -0.7971 -0.6504 -0.8350
11797TIP3   OH256805   3.021   1.517  15.979 -0.2800  0.0817  0.0619
11797TIP3    H156806   2.945   1.462  15.998 -0.3893 -0.0760 -0.7726
11797TIP3    H256807   2.984   1.601  15.951 -0.1377  0.1722  0.1419
11798TIP3   OH256808   0.827   1.398   4.866  0.0790  0.4161 -0.5006
11798TIP3    H156809   0.827   1.398   4.962 -0.5335  1.2205 -0.4858
11798TIP3    H256810   0.903   1.450   4.841 -0.6304  1.5489 -0.4072
11799TIP3   OH256811   0.109   2.147  11.509  0.4330 -0.5130  0.4043
11799TIP3    H156812   0.061   2.221  11.471  0.5357 -0.1392  0.9977
11799TIP3    H256813   0.048   2.107  11.570  0.2309 -1.1842 -0.2266
11800TIP3   OH256814   6.549   6.285  15.568  0.1667 -0.2584  0.2527
11800TIP3    H156815   6.588   6.199  15.553  0.7022 -0.1540  1.0398
11800TIP3    H256816   6.558   6.331  15.484  0.5165 -0.7104  0.0440
11801TIP3   OH256817   3.829   4.948   3.898  0.2523  0.0259 -0.3992
11801TIP3    H156818   3.812   4.895   3.975  0.5251  0.3820 -0.0906
11801TIP3    H256819   3.828   5.039   3.930  0.2866  0.1784 -0.8241
11802TIP3   OH256820   0.753   3.153   1.724  0.2964 -0.6287 -0.0303
11802TIP3    H156821   0.782   3.234   1.766 -1.4154  0.2981 -0.5516
11802TIP3    H256822   0.658   3.152   1.736  0.1041 -1.7605 -1.4061
11803TIP3   OH256823   2.881   3.571  16.054 -0.3740 -0.0487  0.3268
11803TIP3    H156824   2.866   3.501  15.990 -1.1651 -0.2691  0.7424
11803TIP3    H256825   2.937   3.530  16.120  1.7705  0.6369 -0.9879
11804TIP3   OH256826   2.979   5.080   4.046 -0.2437 -0.7282  0.2026
11804TIP3    H156827   3.016   4.993   4.037 -0.2874 -0.6739 -0.5569
11804TIP3    H256828   2.901   5.079   3.991  0.4676  0.1859 -0.8714
11805TIP3   OH256829   5.188   6.521  13.108  0.4016 -0.2223 -0.2554
11805TIP3    H156830   5.140   6.475  13.177 -2.3458  0.7571 -1.3517
11805TIP3    H256831   5.183   6.614  13.134  1.8625 -0.0934 -0.3590
11806TIP3   OH256832   5.373   3.862   3.529  0.1029  0.1512  0.7365
11806TIP3    H156833   5.394   3.830   3.442 -0.8544  1.4127  0.0104
11806TIP3    H256834   5.457   3.858   3.577  0.6444 -0.5045 -0.2391
11807TIP3   OH256835   3.129   3.747   3.407 -0.1985 -0.0742 -0.1713
11807TIP3    H156836   3.078   3.826   3.387 -1.4408 -0.6826  0.4441
11807TIP3    H256837   3.151   3.756   3.500  2.1729  0.8962 -0.7738
11808TIP3   OH256838   4.834   4.480  13.351 -0.1028  0.1864 -0.0758
11808TIP3    H156839   4.912   4.425  13.345  1.1305  2.0049 -1.7934
11808TIP3    H256840   4.796   4.457  13.436  1.7577 -1.4259  0.4022
11809TIP3   OH256841   1.628   3.548   0.692 -0.2802  0.1905  0.2270
11809TIP3    H156842   1.673   3.632   0.697 -0.2508  0.1650  0.3966
11809TIP3    H256843   1.674   3.492   0.756  1.8616 -0.9892 -2.1403
11810TIP3   OH256844   4.750   5.636  13.188 -0.7659  0.3057 -0.1913
11810TIP3    H156845   4.797   5.713  13.157  0.2027 -0.3048 -0.2979
11810TIP3    H256846   4.818   5.581  13.227 -1.2626 -0.9696 -1.0634
11811TIP3   OH256847   3.506   5.101   4.269  0.3111 -0.6011  0.1846
11811TIP3    H156848   3.494   5.179   4.214  1.8884 -1.8786 -2.1409
11811TIP3    H256849   3.506   5.028   4.207 -1.1811 -2.5356  2.2923
11812TIP3   OH256850   0.868   5.722  15.918  0.1746  0.0457  0.1817
11812TIP3    H156851   0.814   5.714  15.997  0.1553  0.0228  0.1665
11812TIP3    H256852   0.921   5.800  15.933  0.0852  0.1098  0.1667
11813TIP3   OH256853   6.266   0.473  14.617  0.4441  0.6865  0.9076
11813TIP3    H156854   6.321   0.465  14.539  0.5419  1.8821  0.8286
11813TIP3    H256855   6.328   0.483  14.689  0.3972 -1.6463  1.3645
11814TIP3   OH256856   3.654   6.516   4.169 -0.2883 -0.5194 -0.1624
11814TIP3    H156857   3.588   6.510   4.100  0.0297  1.4716 -0.7129
11814TIP3    H256858   3.736   6.490   4.127 -0.3879 -1.0934 -0.0118
11815TIP3   OH256859   0.196   5.791   4.700 -0.2774  0.4413 -0.1753
11815TIP3    H156860   0.266   5.803   4.636 -0.6566 -0.1424 -0.7200
11815TIP3    H256861   0.230   5.726   4.761  0.3880  1.5670  0.6936
11816TIP3   OH256862   3.654   1.657   2.010  0.5633  0.0973 -0.3622
11816TIP3    H156863   3.658   1.687   1.919 -0.2440 -1.3690 -0.9189
11816TIP3    H256864   3.648   1.562   2.003 -2.5067  0.0883  1.1144
11817TIP3   OH256865   0.987   2.026  13.747 -0.1374  0.0500  0.0457
11817TIP3    H156866   1.017   1.939  13.721 -1.0885  0.4133 -2.5757
11817TIP3    H256867   1.032   2.043  13.830  0.5069 -2.6777  0.3611
11818TIP3   OH256868   2.075   1.714  11.699 -0.2156 -0.0191  0.2212
11818TIP3    H156869   2.145   1.723  11.763  0.4661 -0.7726 -0.4001
11818TIP3    H256870   2.082   1.623  11.669 -0.5919  0.2951 -0.8399
11819TIP3   OH256871   3.131   0.225   2.285  0.0909  0.3559 -0.0850
11819TIP3    H156872   3.089   0.200   2.203  1.7392  0.4674 -1.0084
11819TIP3    H256873   3.139   0.320   2.280 -0.1230  0.4015  0.3786
11820TIP3   OH256874   5.256   4.546  11.590 -0.0088  0.0976  0.2072
11820TIP3    H156875   5.327   4.598  11.551 -0.6819 -0.0232 -1.2458
11820TIP3    H256876   5.180   4.604  11.588 -0.5327 -0.5916 -0.5226
11821TIP3   OH256877   2.914   0.884   4.344 -0.4066 -0.1903 -0.3572
11821TIP3    H156878   2.966   0.892   4.265 -1.0895  0.5959 -0.7457
11821TIP3    H256879   2.844   0.823   4.321 -0.3028 -0.3802 -0.1817
11822TIP3   OH256880   5.670   6.321   3.673 -0.2554 -0.2455  0.3058
11822TIP3    H156881   5.682   6.360   3.586 -1.9180  0.8534  0.5356
11822TIP3    H256882   5.608   6.249   3.659 -1.7395  0.8952  0.7827
11823TIP3   OH256883   0.037   6.675  11.850 -0.1772  0.3675  0.2076
11823TIP3    H156884   0.050   6.642  11.940 -0.9965 -0.8452 -0.0897
11823TIP3    H256885   0.125   6.681  11.814  0.0488 -1.2446  0.4005
11824TIP3   OH256886   1.233   5.545  11.090  0.0057  0.2582  0.3307
11824TIP3    H156887   1.212   5.468  11.143  1.5931  0.9197  2.0156
11824TIP3    H256888   1.328   5.545  11.084  0.0029  1.7774 -0.1402
11825TIP3   OH256889   6.676   5.043   0.833 -0.9790  0.3056 -0.0688
11825TIP3    H156890   6.747   5.073   0.889 -0.0116  0.8088 -1.5328
11825TIP3    H256891   6.619   4.993   0.892 -0.4196  1.4671  1.5233
11826TIP3   OH256892   4.185   0.980  10.951 -0.3278 -0.8960 -0.7159
11826TIP3    H156893   4.100   1.012  10.918 -1.1797 -2.0430  0.2985
11826TIP3    H256894   4.174   0.885  10.958  0.3292 -0.8567  1.3905
11827TIP3   OH256895   1.715   5.277   0.906  0.5402  0.3006 -0.3520
11827TIP3    H156896   1.807   5.268   0.929  0.3537 -0.2037  0.2148
11827TIP3    H256897   1.698   5.371   0.909  0.8450  0.3353  0.2810
11828TIP3   OH256898   1.394   2.891   5.432  0.0576 -0.1406 -0.3513
11828TIP3    H156899   1.392   2.805   5.389  0.4909 -0.8315  0.9507
11828TIP3    H256900   1.487   2.905   5.452 -0.2619 -0.6227  1.7845
11829TIP3   OH256901   3.009   2.714  14.064 -0.6694 -0.2228 -0.3997
11829TIP3    H156902   2.966   2.757  13.990 -0.4990 -1.7012 -1.4070
11829TIP3    H256903   3.102   2.737  14.054 -0.2499 -2.3356 -2.1208
11830TIP3   OH256904   5.371   2.167   0.363  0.3416 -0.0805 -0.4934
11830TIP3    H156905   5.351   2.142   0.453  0.5257  0.5540 -0.2705
11830TIP3    H256906   5.309   2.117   0.310 -0.4821  0.3220  0.0534
11831TIP3   OH256907   5.937   2.157   3.149 -0.0133  0.1613 -0.1803
11831TIP3    H156908   5.855   2.200   3.176  0.4736  0.6832  0.5054
11831TIP3    H256909   5.999   2.229   3.138  0.2598 -0.2035 -1.0495
11832TIP3   OH256910   4.874   4.398   1.813 -0.2232  0.1680  0.0503
11832TIP3    H156911   4.865   4.347   1.733 -0.0616  2.4833 -1.5432
11832TIP3    H256912   4.968   4.418   1.818 -0.1996 -0.1198  0.9499
11833TIP3   OH256913   3.857   3.395  15.335 -0.3380 -0.7037 -0.0907
11833TIP3    H156914   3.792   3.431  15.275 -1.0315 -2.2278 -0.3062
11833TIP3    H256915   3.810   3.384  15.417  0.2489  0.1349  0.3702
11834TIP3   OH256916   4.607   3.742  16.022 -0.2052 -0.1364 -0.4087
11834TIP3    H156917   4.643   3.723  15.935 -1.1906 -1.3396 -0.5846
11834TIP3    H256918   4.643   3.675  16.079 -1.2552 -0.6919 -0.3674
11835TIP3   OH256919   4.581   1.088  12.822  0.2695  0.4431  0.3452
11835TIP3    H156920   4.548   1.047  12.741 -0.3267  0.6946  0.4560
11835TIP3    H256921   4.530   1.168  12.830  0.6567  0.6501  0.7278
11836TIP3   OH256922   6.262   2.464   5.169  0.3580  0.1187  0.5936
11836TIP3    H156923   6.315   2.542   5.155  0.6892 -0.1907  0.1196
11836TIP3    H256924   6.279   2.408   5.093  0.1336 -0.4229  0.9289
11837TIP3   OH256925   2.068   6.136   5.748  0.0996  0.5200 -0.0442
11837TIP3    H156926   2.101   6.206   5.692  0.9471  0.9918  1.0077
11837TIP3    H256927   1.996   6.098   5.698  0.8029  0.9281 -1.4399
11838TIP3   OH256928   0.487   3.683   0.410 -0.6067  0.2411  0.6721
11838TIP3    H156929   0.493   3.588   0.418 -1.2035  0.3075  2.5405
11838TIP3    H256930   0.432   3.698   0.334  1.2825 -0.8257 -0.9874
11839TIP3   OH256931   4.986   1.537  15.585  0.4527  0.0582  0.0107
11839TIP3    H156932   5.072   1.578  15.577  0.8082 -0.5078  0.7840
11839TIP3    H256933   4.987   1.498  15.673 -0.7773  0.4678  0.2275
11840TIP3   OH256934   1.536   6.058  14.165  0.3154 -0.0091 -0.3413
11840TIP3    H156935   1.536   6.035  14.258 -0.5361 -1.0191 -0.5811
11840TIP3    H256936   1.506   6.149  14.163 -3.2770 -1.0610  0.1464
11841TIP3   OH256937   0.110   4.034   3.470  0.1140  0.3269  0.6726
11841TIP3    H156938   0.101   4.129   3.480 -0.7321  0.9199 -3.8981
11841TIP3    H256939   0.027   3.999   3.502  0.3331  1.0598  2.1508
11842TIP3   OH256940   6.717   6.539  16.774 -0.3215 -0.1256 -0.2692
11842TIP3    H156941   6.679   6.519  16.689  0.7375  0.0071 -0.7942
11842TIP3    H256942   6.659   6.603  16.813  0.8706  2.3633 -2.3017
11843TIP3   OH256943   1.960   1.211  16.904  0.7469 -0.4098  0.1204
11843TIP3    H156944   2.009   1.272  16.959  2.0229 -1.1596 -0.1420
11843TIP3    H256945   1.940   1.137  16.961  1.5296 -0.9090 -0.2284
11844TIP3   OH256946   2.782   6.031  12.756 -0.2699  0.3735  0.3656
11844TIP3    H156947   2.701   6.016  12.804 -0.6442  0.3933 -0.2532
11844TIP3    H256948   2.754   6.047  12.666  0.3814  0.9213  0.2514
11845TIP3   OH256949   5.234   3.072  14.880 -0.1947  0.0908 -0.3529
11845TIP3    H156950   5.223   2.988  14.835  0.5043 -0.6429  0.8051
11845TIP3    H256951   5.226   3.051  14.973  1.2497  1.0866  0.0252
11846TIP3   OH256952   3.137   2.752  13.187  0.0723 -0.3357 -0.5653
11846TIP3    H156953   3.072   2.822  13.179  0.4442  0.0957  0.1258
11846TIP3    H256954   3.094   2.675  13.150 -0.3459  0.2531 -1.3229
11847TIP3   OH256955   2.206   2.966   0.969  0.1807  0.1412  0.1576
11847TIP3    H156956   2.190   3.008   1.054 -1.4050 -0.3573  0.1343
11847TIP3    H256957   2.255   2.887   0.990  0.5992  0.4779  0.4935
11848TIP3   OH256958   1.770   0.246   1.089 -0.2828  0.4797 -0.2570
11848TIP3    H156959   1.762   0.168   1.144  1.8897 -0.0034 -0.5261
11848TIP3    H256960   1.747   0.319   1.146 -2.2136 -0.3079  0.0406
11849TIP3   OH256961   5.694   5.894   0.251  0.4009 -0.1094  0.8187
11849TIP3    H156962   5.766   5.956   0.258 -0.0173  0.4203  0.5141
11849TIP3    H256963   5.615   5.946   0.268  0.0477 -0.5696  0.6338
11850TIP3   OH256964   6.653   6.437   2.231 -0.2674  0.1659  0.3794
11850TIP3    H156965   6.741   6.473   2.216 -0.7131  0.4987 -1.6719
11850TIP3    H256966   6.612   6.500   2.290  0.1311  1.2082 -0.4243
11851TIP3   OH256967   0.036   6.115  14.947  0.4966  0.2996 -0.4115
11851TIP3    H156968  -0.035   6.066  14.907 -0.9408  1.3874  0.6716
11851TIP3    H256969  -0.006   6.195  14.981  1.4057 -0.6348  3.5071
11852TIP3   OH256970   2.774   4.690   6.780  0.5623 -0.1276  0.3502
11852TIP3    H156971   2.788   4.596   6.788  0.7797  0.0398  2.7383
11852TIP3    H256972   2.813   4.727   6.860 -1.2088  1.7743  0.4187
11853TIP3   OH256973   6.782   3.359  12.536  0.1706  0.3697 -0.4420
11853TIP3    H156974   6.812   3.270  12.518 -1.7326 -0.4584  0.2612
11853TIP3    H256975   6.687   3.352  12.543  0.1410  1.8731  2.4909
11854TIP3   OH256976   3.195   3.855   2.919  0.0640  0.2236  0.2080
11854TIP3    H156977   3.221   3.903   2.997  1.7474  1.0815 -0.8092
11854TIP3    H256978   3.116   3.899   2.889  0.3641  0.9798  0.5011
11855TIP3   OH256979   3.513   5.330   3.590 -0.3237  0.1424  0.0022
11855TIP3    H156980   3.565   5.388   3.533 -0.2574  0.0407 -0.0419
11855TIP3    H256981   3.503   5.379   3.671 -3.1196  1.6902 -1.1190
11856TIP3   OH256982   1.983   1.046  13.136 -0.2526  0.5164  0.1225
11856TIP3    H156983   1.909   1.015  13.188  0.1972  0.5608  0.7971
11856TIP3    H256984   1.946   1.063  13.049 -0.7716 -0.6842  0.0885
11857TIP3   OH256985   5.051   4.836  12.361 -0.3345 -0.8613  0.0692
11857TIP3    H156986   5.112   4.768  12.389  0.8650 -0.2206 -0.8729
11857TIP3    H256987   5.001   4.795  12.290  0.1044 -0.8906 -0.2262
11858TIP3   OH256988   5.272   0.709   1.365  0.2716  0.1368 -0.5769
11858TIP3    H156989   5.300   0.729   1.276 -1.1402  2.3996 -0.6035
11858TIP3    H256990   5.352   0.681   1.410  0.9616 -1.2921 -2.5638
11859TIP3   OH256991   2.336   5.610  15.145 -0.4310 -0.5614 -0.4923
11859TIP3    H156992   2.258   5.556  15.158 -1.4984  1.2595  1.1525
11859TIP3    H256993   2.339   5.668  15.221  2.2576 -0.1914 -0.7579
11860TIP3   OH256994   3.303   4.584  13.667 -0.1752 -0.1438 -0.0203
11860TIP3    H156995   3.227   4.555  13.717  1.6949 -2.4853  1.7141
11860TIP3    H256996   3.295   4.539  13.583 -0.7773 -0.2158  0.0673
11861TIP3   OH256997   0.466   3.780   1.251 -0.6109 -0.7420 -0.0298
11861TIP3    H156998   0.434   3.856   1.300 -2.2693 -1.2086 -0.3070
11861TIP3    H256999   0.523   3.734   1.312  0.4166  0.7090  0.1364
11862TIP3   OH257000   0.204   1.781   1.600 -0.2351 -0.3179  0.6481
11862TIP3    H157001   0.273   1.826   1.648 -1.1130  1.6031  0.2006
11862TIP3    H257002   0.245   1.700   1.570  1.6587  0.5024  0.8786
11863TIP3   OH257003   1.803   5.438  12.355 -0.3786  0.7826  0.6066
11863TIP3    H157004   1.835   5.375  12.290  0.1340  2.0993 -0.4469
11863TIP3    H257005   1.882   5.474  12.395 -0.6660  0.8722  1.1109
11864TIP3   OH257006   0.739   0.570   6.433 -0.4391 -0.2571 -0.5846
11864TIP3    H157007   0.801   0.574   6.507 -0.4938 -0.3682 -0.5328
11864TIP3    H257008   0.789   0.528   6.363  0.2473  1.5509 -1.2332
11865TIP3   OH257009   2.457   4.400   2.508  0.8302 -0.2998  0.2339
11865TIP3    H157010   2.482   4.339   2.438  0.3498  0.5161 -0.6841
11865TIP3    H257011   2.512   4.477   2.494 -1.5108  1.2390 -1.3834
11866TIP3   OH257012   1.256   5.122   5.643  0.2461  0.2939  0.1229
11866TIP3    H157013   1.188   5.167   5.593  0.2661 -1.4556 -1.6141
11866TIP3    H257014   1.338   5.144   5.599  0.5008  0.2989  0.5907
11867TIP3   OH257015   4.114   5.170  12.647 -0.4221 -0.2729  0.2945
11867TIP3    H157016   4.065   5.101  12.690  0.1724 -0.6181  0.4211
11867TIP3    H257017   4.099   5.156  12.553  0.5292 -1.2097  0.2656
11868TIP3   OH257018   1.249   3.667  11.925  0.0506  0.9677  0.9214
11868TIP3    H157019   1.215   3.749  11.961 -2.1126  0.8108 -0.5307
11868TIP3    H257020   1.171   3.623  11.892  1.2828 -1.2967  0.8922
11869TIP3   OH257021   6.773   4.500   3.715 -0.0158  0.2855  0.7969
11869TIP3    H157022   6.809   4.478   3.800  0.6000 -0.3762  0.3829
11869TIP3    H257023   6.832   4.567   3.680  0.3584 -0.2121  0.4572
11870TIP3   OH257024   1.457   0.841  10.935  0.1168  0.0223  0.1714
11870TIP3    H157025   1.501   0.908  10.882  1.8611  0.5520  2.1802
11870TIP3    H257026   1.405   0.890  10.998  0.6807 -0.4984  1.0647
11871TIP3   OH257027   0.522   6.013   1.901  0.0296  0.0820 -0.3075
11871TIP3    H157028   0.503   5.969   1.818  3.2501 -0.6963 -0.7562
11871TIP3    H257029   0.568   5.947   1.953 -1.7235  0.6057  2.1143
11872TIP3   OH257030   0.106   2.607   4.492  0.4756  0.8489 -0.8011
11872TIP3    H157031   0.051   2.661   4.435 -1.4145  0.8030  0.8730
11872TIP3    H257032   0.132   2.666   4.563  1.6686  0.5391 -0.9432
11873TIP3   OH257033   4.624   4.311  14.657 -0.4391  0.5070  0.5328
11873TIP3    H157034   4.546   4.352  14.620 -0.2483 -0.3268 -0.8754
11873TIP3    H257035   4.676   4.287  14.581 -0.2495 -1.7622  1.3109
11874TIP3   OH257036   3.119   5.898  12.918 -0.2464 -0.5309  0.3800
11874TIP3    H157037   3.051   5.963  12.935 -1.5959 -1.9542  0.6674
11874TIP3    H257038   3.179   5.942  12.857 -0.4357  1.3809  1.4773
11875TIP3   OH257039   6.064   2.049  16.047 -0.3545 -0.2451 -0.7436
11875TIP3    H157040   6.036   1.970  16.093  1.4728  1.0248  2.8658
11875TIP3    H257041   6.149   2.027  16.010  1.0697  0.4363  1.9017
11876TIP3   OH257042   3.846   1.131  11.849 -0.2093 -0.4579  0.1718
11876TIP3    H157043   3.915   1.090  11.798  0.9577  0.2034  1.1660
11876TIP3    H257044   3.792   1.177  11.784  0.8305 -0.2029 -0.5298
11877TIP3   OH257045   3.448   5.872   2.183  0.3996 -0.3353 -0.0057
11877TIP3    H157046   3.497   5.945   2.219  0.6332 -0.2048 -0.5710
11877TIP3    H257047   3.397   5.837   2.257  0.4182  0.2842  0.3022
11878TIP3   OH257048   4.466   4.626   2.094 -0.6161  0.9241  0.0044
11878TIP3    H157049   4.460   4.569   2.170  1.4450  0.5957 -0.0330
11878TIP3    H257050   4.476   4.714   2.130 -0.1282  0.8261  0.1073
11879TIP3   OH257051   2.214   0.277  14.390 -0.6260  0.3168 -0.0147
11879TIP3    H157052   2.220   0.297  14.483 -1.6191  1.3681 -0.1514
11879TIP3    H257053   2.255   0.191  14.380  2.2932  1.4866  0.9145
11880TIP3   OH257054   1.376   3.459  16.383  0.6562  0.2957  0.2024
11880TIP3    H157055   1.463   3.426  16.361  0.4294  0.4422 -0.9668
11880TIP3    H257056   1.385   3.554  16.380  0.2850  0.3148 -0.7027
11881TIP3   OH257057   0.357   0.013  12.639 -0.2421 -0.3585  0.3907
11881TIP3    H157058   0.343   0.108  12.635 -1.1603 -0.5212 -0.7795
11881TIP3    H257059   0.268  -0.024  12.637  0.1380 -1.2698 -0.2277
11882TIP3   OH257060   2.168   3.232   0.846 -0.4150  0.0529 -0.4497
11882TIP3    H157061   2.256   3.266   0.859 -0.5151  0.3177 -0.4542
11882TIP3    H257062   2.165   3.152   0.899 -0.0447 -0.1786 -0.7763
11883TIP3   OH257063   0.793   6.216  10.575 -0.0449  0.0108 -0.0167
11883TIP3    H157064   0.721   6.175  10.527  0.2039  0.1944 -0.5522
11883TIP3    H257065   0.764   6.216  10.666 -0.6770 -0.0063 -0.2149
11884TIP3   OH257066   1.617   0.223  15.107 -0.5032  0.4674 -0.3772
11884TIP3    H157067   1.552   0.199  15.173 -0.8503  1.4533 -0.3374
11884TIP3    H257068   1.680   0.278  15.155 -0.8196  1.2830 -0.8795
11885TIP3   OH257069   3.372   0.676  11.495 -0.4904  0.4909  0.2130
11885TIP3    H157070   3.405   0.649  11.409  0.9848 -0.6748  1.0774
11885TIP3    H257071   3.278   0.686  11.483 -0.5008 -0.8847 -1.2414
11886TIP3   OH257072   0.424   0.938   5.540  0.9116  0.2174  0.2750
11886TIP3    H157073   0.438   0.898   5.454  1.4000  0.7251  0.1077
11886TIP3    H257074   0.411   0.864   5.600 -4.2841 -0.2649 -0.9158
11887TIP3   OH257075   5.923   1.511  15.610  0.0259  0.9525  0.2080
11887TIP3    H157076   6.007   1.491  15.652 -0.0964  0.7887  0.3737
11887TIP3    H257077   5.878   1.427  15.605 -0.0340  1.0014 -0.0926
11888TIP3   OH257078   0.118   6.749  16.363 -0.1692 -0.5187  0.2953
11888TIP3    H157079   0.205   6.715  16.343  1.3627  3.6982 -1.2709
11888TIP3    H257080   0.068   6.738  16.282 -0.2678 -0.5892  0.3645
11889TIP3   OH257081   4.387   6.259   1.299 -0.9593  0.1068  0.0701
11889TIP3    H157082   4.471   6.243   1.341 -1.2217 -2.0530 -0.1311
11889TIP3    H257083   4.328   6.281   1.371 -0.9714 -1.6778  0.6407
11890TIP3   OH257084   2.267   1.175   0.132  0.0726 -0.0155 -0.0924
11890TIP3    H157085   2.323   1.110   0.090  0.8603  0.2785  0.4845
11890TIP3    H257086   2.266   1.249   0.071  0.3157 -0.0241 -0.1071
11891TIP3   OH257087   4.718   1.813   3.779  0.1195  0.0879  0.1748
11891TIP3    H157088   4.761   1.891   3.745  0.4537 -0.4661 -0.7445
11891TIP3    H257089   4.658   1.845   3.847 -0.3827  1.2371 -0.7686
11892TIP3   OH257090   6.517   5.213  15.143 -0.1446 -0.1931  0.5252
11892TIP3    H157091   6.449   5.156  15.106  2.8645 -3.2608 -0.8759
11892TIP3    H257092   6.499   5.299  15.105 -0.8195 -1.8435 -3.4955
11893TIP3   OH257093   0.729   6.113  13.300 -0.2914 -0.3089 -0.0822
11893TIP3    H157094   0.642   6.121  13.341 -0.0828 -0.5826  0.4244
11893TIP3    H257095   0.714   6.055  13.225 -0.5132 -0.5043  0.1092
11894TIP3   OH257096   0.687   1.777   5.901 -0.0290  0.8163 -0.9648
11894TIP3    H157097   0.619   1.759   5.967 -1.5317 -3.2217 -3.2361
11894TIP3    H257098   0.644   1.832   5.837  0.0227  1.1996 -0.6730
11895TIP3   OH257099   1.993   5.792  15.365 -0.1726  0.4532  0.1995
11895TIP3    H157100   1.922   5.842  15.324 -0.7644  1.2505  2.0852
11895TIP3    H257101   1.973   5.794  15.459  2.6887  1.2744  0.8865
11896TIP3   OH257102   1.944   0.206   3.230 -0.1849 -0.0646 -0.0562
11896TIP3    H157103   1.884   0.179   3.300  0.4166 -2.4533 -0.3772
11896TIP3    H257104   2.014   0.253   3.275 -0.3353 -0.6563  0.8145
11897TIP3   OH257105   6.670   5.892   4.130  0.5085  0.0963  0.9880
11897TIP3    H157106   6.703   5.981   4.141 -1.9529  0.8221  3.8212
11897TIP3    H257107   6.677   5.852   4.217  2.1694 -2.8110 -0.3315
11898TIP3   OH257108   0.171   4.952  11.686 -0.1251  0.5043 -0.1717
11898TIP3    H157109   0.236   5.021  11.676 -0.6685  0.8921 -1.2338
11898TIP3    H257110   0.188   4.914  11.772  2.2240 -0.1822 -0.8906
11899TIP3   OH257111   3.158   1.292  13.994  0.3851 -0.4509 -0.0306
11899TIP3    H157112   3.203   1.366  13.953 -0.9944  0.5082  0.1118
11899TIP3    H257113   3.068   1.322  14.005  0.1309 -1.6168  1.3941
11900TIP3   OH257114   4.594   4.911   3.193  0.6239  0.4107  0.0316
11900TIP3    H157115   4.627   4.835   3.241 -0.7705 -0.6650 -0.6515
11900TIP3    H257116   4.574   4.975   3.260 -0.5455 -0.7697  0.8499
11901TIP3   OH257117   3.751   4.572  10.666  0.4948 -0.3948 -0.1689
11901TIP3    H157118   3.658   4.596  10.670  0.7350  0.7395 -0.9596
11901TIP3    H257119   3.793   4.629  10.732  0.4802 -1.8001  1.1140
11902TIP3   OH257120   2.908   5.675  12.713  0.3281  0.0854 -0.2563
11902TIP3    H157121   2.919   5.752  12.658  2.7705 -0.3473 -0.4929
11902TIP3    H257122   2.822   5.685  12.751 -0.1264  2.0405 -1.6377
11903TIP3   OH257123   1.325   6.414   3.191 -0.0692  0.1681 -0.4601
11903TIP3    H157124   1.298   6.481   3.254  2.7581  1.0151 -0.0289
11903TIP3    H257125   1.250   6.355   3.186 -1.6346  1.8688  1.1967
11904TIP3   OH257126   4.529   0.434   5.411  0.1667 -0.5138  0.3245
11904TIP3    H157127   4.514   0.485   5.331  1.9445 -1.0759 -0.4225
11904TIP3    H257128   4.545   0.345   5.380  0.4040 -0.8410  1.3457
11905TIP3   OH257129   2.223   2.420   0.214 -0.3841 -0.4085  0.0601
11905TIP3    H157130   2.184   2.491   0.163  0.3574 -0.3267 -0.3963
11905TIP3    H257131   2.171   2.343   0.191 -0.2148 -0.3210 -0.6146
11906TIP3   OH257132   5.413   0.832   5.669 -0.1136  0.3277  0.2048
11906TIP3    H157133   5.479   0.899   5.691  0.1936 -0.1433  0.7449
11906TIP3    H257134   5.360   0.873   5.601 -1.0348  1.8262  1.7404
11907TIP3   OH257135   5.162   5.484   1.506  0.0353  0.0421 -0.6717
11907TIP3    H157136   5.208   5.402   1.523 -2.3164 -0.9732  1.4787
11907TIP3    H257137   5.208   5.548   1.561  0.4003 -0.3622 -0.4959
11908TIP3   OH257138   3.729   0.275  13.921  0.0991 -0.2921  0.3271
11908TIP3    H157139   3.654   0.258  13.978  0.9058 -0.3779  1.3729
11908TIP3    H257140   3.731   0.200  13.861 -0.4751 -0.4358  0.4823
11909TIP3   OH257141   5.973   4.845  13.060  0.2001 -0.5116  0.5634
11909TIP3    H157142   5.934   4.894  13.132  1.5593  0.6138  0.5641
11909TIP3    H257143   6.031   4.782  13.101 -0.4935 -1.2171  0.5003
11910TIP3   OH257144   3.877   4.961   3.154  0.0849 -0.5842 -0.3361
11910TIP3    H157145   3.858   4.949   3.061 -0.4734 -0.7835 -0.2033
11910TIP3    H257146   3.796   4.936   3.198 -0.2410  1.1280  0.1167
11911TIP3   OH257147   2.189   4.383   0.305 -0.0610  0.1718  0.4808
11911TIP3    H157148   2.244   4.428   0.369  0.1345  0.8071 -0.1176
11911TIP3    H257149   2.160   4.303   0.350  0.2825  0.4736  1.2613
11912TIP3   OH257150   1.317   0.534  13.560 -0.6124  0.2485  0.0564
11912TIP3    H157151   1.248   0.484  13.517  0.3574 -0.0058 -1.2420
11912TIP3    H257152   1.345   0.598  13.495  1.3966 -0.6176 -0.0093
11913TIP3   OH257153   6.379   1.951  12.735 -0.3503 -0.1165 -0.3196
11913TIP3    H157154   6.318   2.009  12.689  0.2886  1.4748  0.7182
11913TIP3    H257155   6.338   1.935  12.820  1.3093  2.3988  1.0957
11914TIP3   OH257156   0.161   1.458   6.203  0.2799  0.3290  0.5321
11914TIP3    H157157   0.159   1.369   6.167  1.6407  0.0338  1.1128
11914TIP3    H257158   0.143   1.446   6.296 -1.0081  0.8470  0.3713
11915TIP3   OH257159   6.370   5.455   4.280 -0.2834 -0.2304 -0.5681
11915TIP3    H157160   6.421   5.512   4.224 -1.3071  0.3125 -0.9836
11915TIP3    H257161   6.321   5.399   4.219  0.1290 -1.0445 -0.1783
11916TIP3   OH257162   3.795   4.986  15.909 -0.1395 -0.4282  0.1843
11916TIP3    H157163   3.874   4.966  15.859 -1.0466 -2.1863 -0.6144
11916TIP3    H257164   3.828   5.004  15.998  1.0859 -2.2390  0.1467
11917TIP3   OH257165   0.609   3.463  13.105  0.4163 -0.5687  0.6809
11917TIP3    H157166   0.600   3.500  13.017 -0.6903 -2.4427 -0.0743
11917TIP3    H257167   0.703   3.453  13.117  0.5750 -0.6565 -0.4893
11918TIP3   OH257168   4.757   2.275   3.149  0.0402 -0.1722 -0.1942
11918TIP3    H157169   4.697   2.336   3.108 -0.0390  0.8409  1.3228
11918TIP3    H257170   4.843   2.317   3.142  0.2262 -0.5923 -0.4625
11919TIP3   OH257171   6.348   1.100   3.266 -0.3279  0.1239 -0.4691
11919TIP3    H157172   6.279   1.040   3.240  1.0828 -1.6735 -0.2904
11919TIP3    H257173   6.304   1.166   3.321 -1.8421 -1.0803 -0.1764
11920TIP3   OH257174   1.409   2.571   6.000 -0.1535  0.2274 -0.5106
11920TIP3    H157175   1.481   2.634   6.012  0.0797 -0.0651 -0.3552
11920TIP3    H257176   1.437   2.494   6.049 -0.6633  0.1798 -0.2923
11921TIP3   OH257177   5.973   2.746   0.364  0.1955  0.2975 -0.2362
11921TIP3    H157178   6.009   2.703   0.287  2.0412  1.1811  0.0758
11921TIP3    H257179   6.035   2.816   0.383  0.7665 -0.9436  3.0801
11922TIP3   OH257180   4.228   5.754  14.826  0.3464  0.3279 -0.0997
11922TIP3    H157181   4.308   5.720  14.787 -0.3909 -0.1421 -1.2900
11922TIP3    H257182   4.158   5.707  14.780 -0.6259  1.1814  0.4633
11923TIP3   OH257183   4.089   2.403  14.144 -0.3391  0.1027  1.2142
11923TIP3    H157184   4.007   2.399  14.094  1.1155 -0.5451 -1.2496
11923TIP3    H257185   4.103   2.313  14.173 -0.1321  0.0586  0.9819
11924TIP3   OH257186   5.660   4.683   3.683  0.2771  0.0451 -0.5742
11924TIP3    H157187   5.709   4.615   3.636  1.1094  1.8606 -2.5035
11924TIP3    H257188   5.724   4.754   3.695 -1.5842  2.2476 -2.6117
11925TIP3   OH257189   0.438   2.573  12.580  0.0336 -0.3035  0.5833
11925TIP3    H157190   0.408   2.641  12.640  0.5530 -0.0489  0.5573
11925TIP3    H257191   0.358   2.526  12.554 -0.3211  0.2778  0.6201
11926TIP3   OH257192   3.550   3.078   1.786 -0.2961  0.0115 -0.3453
11926TIP3    H157193   3.519   3.073   1.696  1.2246  0.6338 -0.9206
11926TIP3    H257194   3.487   3.025   1.835  1.8390 -5.3665 -2.5832
11927TIP3   OH257195   1.961   6.701   1.560  0.2729 -0.0490 -0.0541
11927TIP3    H157196   2.023   6.629   1.568  0.1179 -0.0317  1.5093
11927TIP3    H257197   1.882   6.660   1.522  0.8754 -0.2533 -1.1426
11928TIP3   OH257198   1.613   4.089  10.691  0.4061  0.0961 -0.1553
11928TIP3    H157199   1.549   4.125  10.630  2.8364  3.2700 -1.0684
11928TIP3    H257200   1.626   4.158  10.756  1.2843 -1.3934  1.3372
11929TIP3   OH257201   3.329   2.611  10.688  0.3099 -0.1651 -0.3186
11929TIP3    H157202   3.351   2.703  10.702 -0.8736  0.3465 -1.5105
11929TIP3    H257203   3.405   2.573  10.645  1.1390  0.0200  0.9426
11930TIP3   OH257204   1.952   0.611  14.440  0.1452 -0.0891 -0.1796
11930TIP3    H157205   1.949   0.530  14.491 -1.2596  0.6314  0.9751
11930TIP3    H257206   2.037   0.649  14.459  0.2573 -0.6057  0.3866
11931TIP3   OH257207   4.851   4.522  15.976 -0.0118  0.0851  0.3270
11931TIP3    H157208   4.802   4.503  15.896 -2.7131 -1.9950  2.3006
11931TIP3    H257209   4.811   4.602  16.011 -0.6453 -0.4511  0.8662
11932TIP3   OH257210   4.312   0.295   2.566 -0.0167 -0.1272  0.1656
11932TIP3    H157211   4.283   0.251   2.646 -0.9428  1.3858  0.6995
11932TIP3    H257212   4.387   0.243   2.536 -1.3739 -2.3450  0.4372
11933TIP3   OH257213   2.845   4.670  13.855  0.0323  0.2229 -0.0602
11933TIP3    H157214   2.771   4.612  13.838 -2.0191  2.7134 -0.3325
11933TIP3    H257215   2.817   4.722  13.931  2.4221 -0.1142  1.1274
11934TIP3   OH257216   5.852   4.085  11.068  0.5260 -0.1768 -0.1882
11934TIP3    H157217   5.760   4.061  11.060  0.5843 -0.1404 -1.1568
11934TIP3    H257218   5.898   4.024  11.010  0.8792  1.0553 -1.2638
11935TIP3   OH257219   6.605   5.266   2.587 -0.1287  0.1096 -0.2889
11935TIP3    H157220   6.678   5.234   2.639 -0.8541  1.1002  1.4021
11935TIP3    H257221   6.531   5.269   2.647 -0.9671  1.4390 -1.3135
11936TIP3   OH257222   0.659   3.310   0.596  0.1836  0.2842 -0.0409
11936TIP3    H157223   0.650   3.306   0.691  2.3011  3.1658  0.4026
11936TIP3    H257224   0.592   3.372   0.567  0.6021  0.6596 -0.2130
11937TIP3   OH257225   2.649   1.076  13.886 -0.0115  0.1629  0.2264
11937TIP3    H157226   2.668   0.989  13.850 -1.0371  0.1886 -0.4015
11937TIP3    H257227   2.707   1.135  13.837 -0.2794 -0.0002 -0.2936
11938TIP3   OH257228   3.001   0.412  12.253 -0.2731  0.8043 -0.7299
11938TIP3    H157229   3.065   0.461  12.305  1.4820 -1.7021 -0.3507
11938TIP3    H257230   3.003   0.454  12.167 -0.6155  2.8178  0.1875
11939TIP3   OH257231   5.373   6.026  15.701 -0.1122 -0.5411  0.2073
11939TIP3    H157232   5.422   5.961  15.651 -0.3201 -1.4008  1.0901
11939TIP3    H257233   5.284   5.990  15.707 -0.4510  0.2249  0.0138
11940TIP3   OH257234   6.636   3.726  10.977 -0.0317 -0.2733  0.5398
11940TIP3    H157235   6.638   3.822  10.983  1.3567 -0.1043 -1.3445
11940TIP3    H257236   6.584   3.709  10.898 -0.6364 -1.1102  1.1097
11941TIP3   OH257237   6.662   1.434  10.765 -0.1934 -0.0954  0.3577
11941TIP3    H157238   6.725   1.472  10.704 -0.4340  0.1502  0.2599
11941TIP3    H257239   6.669   1.487  10.844  0.0376 -0.3435  0.5033
11942TIP3   OH257240   6.179   2.521   3.678 -0.2250 -0.1532  0.0370
11942TIP3    H157241   6.150   2.507   3.768 -0.5494 -0.0771 -0.0533
11942TIP3    H257242   6.126   2.460   3.626  1.2850 -1.5591  0.1001
11943TIP3   OH257243   1.789   1.938   2.317 -0.1309  0.5436  0.3157
11943TIP3    H157244   1.716   1.894   2.360  0.3768 -0.8895 -0.2411
11943TIP3    H257245   1.867   1.888   2.342  0.6198  1.7485  0.4958
11944TIP3   OH257246   5.489   3.480   1.707  0.7707 -0.2895  0.1258
11944TIP3    H157247   5.458   3.396   1.741  0.4902 -0.1240  0.2858
11944TIP3    H257248   5.415   3.540   1.719  1.3680  0.2880  1.1372
11945TIP3   OH257249   1.533   4.688   2.831  0.0501 -0.0954 -0.1702
11945TIP3    H157250   1.481   4.608   2.836  1.6915 -1.1319  0.9567
11945TIP3    H257251   1.469   4.758   2.847 -1.3772 -1.1431 -1.0096
11946TIP3   OH257252   6.261   3.901   0.276  0.1282  0.4423  0.0977
11946TIP3    H157253   6.179   3.945   0.296  0.2878  1.0654 -0.5719
11946TIP3    H257254   6.258   3.888   0.181  0.6737  0.1979  0.1113
11947TIP3   OH257255   3.182   2.373  16.383  0.3215  0.3295  0.1225
11947TIP3    H157256   3.101   2.380  16.433 -1.1292 -1.2270 -1.8275
11947TIP3    H257257   3.162   2.417  16.300  1.9365  1.0673  0.0961
11948TIP3   OH257258   3.886   0.374  16.819  0.0602 -0.0116 -0.0577
11948TIP3    H157259   3.942   0.383  16.742  0.5500  1.2671  0.4274
11948TIP3    H257260   3.861   0.463  16.842  0.3195 -0.3185  1.5500
11949TIP3   OH257261   2.151   5.554  15.853 -0.5141  0.1009  0.2496
11949TIP3    H157262   2.222   5.568  15.915  0.5108 -1.7133 -0.4260
11949TIP3    H257263   2.188   5.578  15.768 -1.6588  1.8394  0.1930
11950TIP3   OH257264   0.481   4.743  11.285 -0.2637 -0.2780 -0.4137
11950TIP3    H157265   0.439   4.829  11.281 -0.3709 -0.2631  0.5998
11950TIP3    H257266   0.532   4.746  11.366 -0.3501 -1.2019 -0.3164
11951TIP3   OH257267   0.110   3.602  13.510  1.6373  0.5473  0.1998
11951TIP3    H157268   0.152   3.573  13.591 -0.4791  0.4108  1.3362
11951TIP3    H257269   0.061   3.680  13.535  0.0090 -0.1503 -0.6157
11952TIP3   OH257270   0.477   1.837  10.674  0.7075  0.1694  0.4815
11952TIP3    H157271   0.423   1.901  10.627 -0.9157 -0.0413  1.9588
11952TIP3    H257272   0.530   1.891  10.734  1.4363  0.2980 -0.2531
11953TIP3   OH257273   1.556   5.035  13.423 -0.3582 -0.5182  0.0761
11953TIP3    H157274   1.483   5.074  13.373  1.1748 -0.9338 -2.7049
11953TIP3    H257275   1.629   5.095  13.409  0.1306 -0.6315  1.9823
11954TIP3   OH257276   4.188   2.232   3.847  0.2566 -0.4462  0.3947
11954TIP3    H157277   4.156   2.142   3.835 -0.3372 -0.2682  0.6177
11954TIP3    H257278   4.265   2.238   3.791 -1.1882 -0.2890 -1.6828
11955TIP3   OH257279   4.710   3.950   4.324 -0.3977  0.1375 -0.0919
11955TIP3    H157280   4.680   3.901   4.401 -1.1258 -0.1310 -0.5334
11955TIP3    H257281   4.702   4.042   4.350  0.1332  0.0438  0.4317
11956TIP3   OH257282   4.268   6.391   1.767 -0.0878  0.0251  0.3972
11956TIP3    H157283   4.303   6.352   1.847 -2.0766  0.2038  1.3981
11956TIP3    H257284   4.336   6.452   1.738  0.9105 -0.4789  1.6039
11957TIP3   OH257285   0.500   6.480   1.813  0.0373  0.2655 -0.5268
11957TIP3    H157286   0.507   6.573   1.790 -2.0916  0.9575  1.2520
11957TIP3    H257287   0.533   6.476   1.903 -1.7152 -0.2782  0.1364
11958TIP3   OH257288   0.153   3.324  14.213 -0.2311 -0.3284  0.0190
11958TIP3    H157289   0.128   3.306  14.304 -2.4600 -1.2566 -0.7167
11958TIP3    H257290   0.195   3.410  14.217  0.9165 -0.9179  2.0936
11959TIP3   OH257291   3.364   2.715  16.353 -0.4393 -0.3377 -0.8753
11959TIP3    H157292   3.378   2.683  16.443 -0.8789  0.0343 -0.6692
11959TIP3    H257293   3.439   2.683  16.304  0.5391  0.6187 -0.0637
11960TIP3   OH257294   0.447   2.661   0.650 -0.1832  0.0429  0.7457
11960TIP3    H157295   0.538   2.691   0.653 -0.4557  0.8532  0.9773
11960TIP3    H257296   0.440   2.618   0.564  0.2919  0.3814  0.5269
11961TIP3   OH257297   3.917   0.720  16.560  0.3250 -0.3818 -0.2613
11961TIP3    H157298   3.957   0.645  16.516  1.6179 -0.8104  1.5236
11961TIP3    H257299   3.987   0.786  16.564 -0.4625  0.5285 -0.8237
11962TIP3   OH257300   4.658   6.570   2.789 -0.2975  0.5396  0.0451
11962TIP3    H157301   4.584   6.631   2.792 -0.2211  0.6525 -0.4247
11962TIP3    H257302   4.733   6.620   2.819 -0.7732 -0.1323  2.6552
11963TIP3   OH257303   1.450   5.235  13.708 -0.1420  0.1537  0.1363
11963TIP3    H157304   1.367   5.234  13.660  0.5090 -2.7522 -1.1298
11963TIP3    H257305   1.447   5.316  13.758 -2.5130  1.5276 -1.9778
11964TIP3   OH257306   6.735   4.271  11.036 -0.0556  0.2201 -0.1869
11964TIP3    H157307   6.654   4.321  11.034  0.4145  1.0023  0.0476
11964TIP3    H257308   6.803   4.334  11.058  0.5231 -0.5600  0.3480
11965TIP3   OH257309   1.225   2.030   5.222  0.3533  0.2173  0.6267
11965TIP3    H157310   1.314   2.010   5.252  0.3903 -1.4402 -0.4352
11965TIP3    H257311   1.174   1.953   5.249 -0.2921  0.1822 -0.6342
11966TIP3   OH257312   2.516   4.015  13.354 -0.8836 -0.6297  0.5355
11966TIP3    H157313   2.547   3.925  13.348 -0.3549 -0.5174  1.3440
11966TIP3    H257314   2.596   4.066  13.371 -1.4544 -0.3283  2.6895
11967TIP3   OH257315   6.645   0.566  12.241 -0.4004 -0.1097 -0.2110
11967TIP3    H157316   6.712   0.557  12.173 -0.8299 -0.1900 -0.6288
11967TIP3    H257317   6.616   0.476  12.257  0.2596 -0.1804  0.6571
11968TIP3   OH257318   6.266   2.351  14.290  0.3327  0.7083  0.3968
11968TIP3    H157319   6.312   2.340  14.206 -1.5915 -1.3388 -0.5061
11968TIP3    H257320   6.175   2.329  14.270 -0.3847  1.2014  2.8324
11969TIP3   OH257321   2.115   2.814   4.232  0.0880 -0.2818 -0.5985
11969TIP3    H157322   2.054   2.806   4.305 -0.1635  3.3544 -0.2504
11969TIP3    H257323   2.198   2.780   4.267 -0.8514 -1.9545  0.1077
11970TIP3   OH257324   1.595   6.673  13.153  0.0071 -0.1743  0.3367
11970TIP3    H157325   1.613   6.583  13.127  1.8039  0.2402 -0.0352
11970TIP3    H257326   1.529   6.703  13.091 -0.2527 -1.0801  0.1579
11971TIP3   OH257327   3.934   0.133   0.702  0.1393 -0.3627 -0.4885
11971TIP3    H157328   3.878   0.069   0.659 -1.5421  0.4400  0.4150
11971TIP3    H257329   3.943   0.101   0.792 -0.0455  0.2163 -0.2532
11972TIP3   OH257330   1.694   3.142  13.952  0.3190 -0.2084  0.5131
11972TIP3    H157331   1.664   3.052  13.946  1.8109 -0.6567 -1.2688
11972TIP3    H257332   1.614   3.194  13.952 -0.5473 -1.4288 -1.5458
11973TIP3   OH257333   1.714   5.919  13.411  0.4194 -0.2961 -0.0486
11973TIP3    H157334   1.684   5.841  13.459  0.8538 -0.2993  0.2205
11973TIP3    H257335   1.636   5.974  13.405  0.4755 -0.0621  1.1256
11974TIP3   OH257336   4.937   2.307  16.568  0.0410  0.1592 -0.4069
11974TIP3    H157337   4.988   2.304  16.649  1.4071 -0.5153 -1.2593
11974TIP3    H257338   4.856   2.260  16.589  1.1784 -1.6991  0.0605
11975TIP3   OH257339   5.360   0.513   5.676  0.1484 -0.1726 -0.0550
11975TIP3    H157340   5.310   0.594   5.667 -0.5979 -0.7347 -1.1204
11975TIP3    H257341   5.398   0.498   5.590  0.2219 -0.9985  0.1141
11976TIP3   OH257342   6.560   5.071  16.014  0.2280  0.5016  0.1127
11976TIP3    H157343   6.614   5.111  16.083  0.2044  0.2792  0.2603
11976TIP3    H257344   6.476   5.054  16.057  0.5830 -0.7152  0.3664
11977TIP3   OH257345   5.116   4.392   2.251 -0.3463  0.3848 -0.8651
11977TIP3    H157346   5.070   4.330   2.196  0.5538 -0.7169 -0.4151
11977TIP3    H257347   5.169   4.443   2.190 -0.5604  0.2447 -1.1709
11978TIP3   OH257348   0.738   4.560  16.263  0.4742  0.3460 -0.3303
11978TIP3    H157349   0.652   4.576  16.303 -0.1155  1.6904 -2.0100
11978TIP3    H257350   0.718   4.534  16.173  1.8297  0.5884 -0.7228
11979TIP3   OH257351   3.098   6.355   2.687  0.2090 -0.1235 -0.3386
11979TIP3    H157352   3.029   6.371   2.751  1.6421  2.1955  0.7759
11979TIP3    H257353   3.054   6.360   2.603 -1.2785 -0.6125  0.3710
11980TIP3   OH257354   4.386   0.453   3.120 -0.5097  0.3778 -0.2376
11980TIP3    H157355   4.454   0.424   3.180 -2.1634  0.0291  1.5516
11980TIP3    H257356   4.389   0.389   3.049  1.4952  0.8200 -0.6225
11981TIP3   OH257357   3.500   5.675  11.197  0.8418  0.2409  0.3629
11981TIP3    H157358   3.458   5.714  11.120  0.5034  1.1728  1.0007
11981TIP3    H257359   3.431   5.669  11.262  1.5431  1.2629  1.2335
11982TIP3   OH257360   2.990   5.781   0.905 -0.3876  0.0367  0.4142
11982TIP3    H157361   2.926   5.773   0.834 -0.4544  1.2322  0.3308
11982TIP3    H257362   2.981   5.699   0.953 -1.1019 -0.3413 -0.3213
11983TIP3   OH257363   6.337   4.258   3.608  0.1460 -0.3693 -0.2303
11983TIP3    H157364   6.393   4.255   3.685 -0.1287  3.5319  0.3580
11983TIP3    H257365   6.395   4.286   3.536 -0.2743 -0.2410 -0.5290
11984TIP3   OH257366   4.365   6.094   1.596  0.3914  0.4537 -0.1145
11984TIP3    H157367   4.407   6.097   1.682  3.4935 -1.1114 -1.3988
11984TIP3    H257368   4.399   6.171   1.550  2.4474 -1.0674 -1.3209
11985TIP3   OH257369   2.396   4.020  17.116  0.1096  0.1494  0.2738
11985TIP3    H157370   2.360   4.068  17.041  1.0933  0.2863 -0.1184
11985TIP3    H257371   2.475   3.977  17.082  1.2774  1.2287  1.5183
11986TIP3   OH257372   1.454   5.475   0.553  0.6169 -0.1759 -0.1822
11986TIP3    H157373   1.424   5.506   0.467  1.2021 -0.7304 -0.5980
11986TIP3    H257374   1.501   5.394   0.533  2.3369  0.6338  0.4666
11987TIP3   OH257375   1.465   4.328  13.846 -0.5173 -0.8484 -0.2415
11987TIP3    H157376   1.466   4.233  13.855 -0.6686 -0.8873 -0.6490
11987TIP3    H257377   1.539   4.349  13.789 -2.2376 -0.9920 -2.6884
11988TIP3   OH257378   2.436   3.887  12.660  0.1477  0.0858 -0.4593
11988TIP3    H157379   2.366   3.941  12.698  1.5825  2.6686 -1.2054
11988TIP3    H257380   2.391   3.830  12.597 -1.4383  0.7137  0.0578
11989TIP3   OH257381   2.207   3.197  16.185  0.2941 -0.6131  0.0417
11989TIP3    H157382   2.237   3.268  16.242  0.1614 -0.7517  0.2834
11989TIP3    H257383   2.200   3.121  16.242  2.2237 -1.3042 -0.5502
11990TIP3   OH257384   4.940   4.503  15.445 -0.4057  0.0997  0.0398
11990TIP3    H157385   4.906   4.477  15.359 -0.6102 -1.9552  0.6927
11990TIP3    H257386   4.884   4.457  15.508  1.3370 -0.5169  1.2185
11991TIP3   OH257387   0.342   0.861  17.069  0.6261  0.0273 -0.1710
11991TIP3    H157388   0.304   0.826  16.988  0.9298 -0.0467 -0.2840
11991TIP3    H257389   0.380   0.945  17.042  0.2790  0.2442  0.0060
11992TIP3   OH257390   6.060   2.742   2.855  0.5447  0.1903 -0.0513
11992TIP3    H157391   5.994   2.801   2.819  0.7550  1.6763  1.7920
11992TIP3    H257392   6.137   2.756   2.799 -0.2498 -0.5034 -1.3566
11993TIP3   OH257393   6.602   3.115   3.730 -0.1029 -0.3045  0.6162
11993TIP3    H157394   6.576   3.066   3.808 -0.5866  1.7761  1.8586
11993TIP3    H257395   6.607   3.206   3.760 -0.8052  0.6543 -1.8881
11994TIP3   OH257396   6.506   5.348   1.816  1.0031  0.1324 -0.0001
11994TIP3    H157397   6.430   5.372   1.764 -0.1632 -2.2499  0.4923
11994TIP3    H257398   6.554   5.285   1.763  1.2765 -0.2706  0.7036
11995TIP3   OH257399   5.865   0.615  13.305 -0.2571  0.3473 -0.4791
11995TIP3    H157400   5.917   0.695  13.303 -0.9280  0.8906  1.3467
11995TIP3    H257401   5.901   0.565  13.378 -1.4023  0.1234 -0.0446
11996TIP3   OH257402   3.804   5.671  11.155  0.0735 -0.6683  0.2100
11996TIP3    H157403   3.785   5.718  11.236  2.5923 -0.1702  0.6161
11996TIP3    H257404   3.723   5.674  11.105 -0.6891  1.6415  1.4510
11997TIP3   OH257405   2.480   4.620  15.382 -0.2745 -0.2592  0.1872
11997TIP3    H157406   2.433   4.573  15.312  0.1693 -0.3885 -0.0284
11997TIP3    H257407   2.572   4.600  15.366 -0.0382  1.0842 -0.1959
11998TIP3   OH257408   4.227   3.715  16.309 -0.1510 -0.3147  0.6555
11998TIP3    H157409   4.135   3.691  16.302  0.1610 -2.1328  2.1483
11998TIP3    H257410   4.237   3.750  16.397  0.6647 -0.4971  0.6465
11999TIP3   OH257411   4.125   0.936   1.191  0.2981 -0.9325  1.0391
11999TIP3    H157412   4.194   0.997   1.164  1.4825 -1.8960  1.8144
11999TIP3    H257413   4.069   0.928   1.114 -0.3815  1.7567  1.1559
12000TIP3   OH257414   2.501   2.360   2.366 -0.2643  0.2574  0.4088
12000TIP3    H157415   2.560   2.433   2.386  0.2206  0.0585 -0.2653
12000TIP3    H257416   2.443   2.354   2.442 -0.9350  1.9444  0.0766
12001TIP3   OH257417   4.811   6.300  12.825 -0.5084 -1.1645 -0.0218
12001TIP3    H157418   4.853   6.386  12.830  0.2790 -1.5239 -0.1640
12001TIP3    H257419   4.848   6.261  12.746  0.8122 -2.4616  1.1609
12002TIP3   OH257420   0.268   0.815   5.983  0.3023  0.2120 -0.2135
12002TIP3    H157421   0.178   0.844   5.971 -0.3064 -0.6004  2.0182
12002TIP3    H257422   0.306   0.876   6.046 -0.4699 -2.4841  3.1683
12003TIP3   OH257423   2.055   1.171  16.036  0.9445 -0.6079  0.2166
12003TIP3    H157424   1.972   1.172  16.082  0.8503 -1.9311  0.1167
12003TIP3    H257425   2.065   1.080  16.006  1.2257  0.0692 -1.9406
12004TIP3   OH257426   4.121   1.395   3.589  0.6073  0.1467 -0.2335
12004TIP3    H157427   4.160   1.481   3.603  1.9379 -0.2661 -1.1861
12004TIP3    H257428   4.177   1.335   3.639  0.6673 -0.3553 -0.8960
12005TIP3   OH257429   3.139   5.172  15.454  0.6262 -0.4277 -0.3536
12005TIP3    H157430   3.108   5.222  15.529 -0.0818 -1.0007 -0.2592
12005TIP3    H257431   3.235   5.180  15.458  0.5371  1.0901 -0.4689
12006TIP3   OH257432   1.291   5.889  12.831  0.3800 -0.0422  0.5655
12006TIP3    H157433   1.344   5.854  12.759  0.5788  1.3414 -0.0118
12006TIP3    H257434   1.225   5.943  12.787  1.1232  1.6415  1.4294
12007TIP3   OH257435   4.503   2.918  14.377 -0.1179  0.0968 -0.2204
12007TIP3    H157436   4.537   2.862  14.308 -0.6259  0.7625 -1.0310
12007TIP3    H257437   4.562   2.993  14.379 -1.0745  0.9111 -1.1439
12008TIP3   OH257438   4.534   3.127  12.943 -0.3273  0.0526 -0.4151
12008TIP3    H157439   4.443   3.097  12.951 -0.0117 -0.7019  0.5250
12008TIP3    H257440   4.583   3.072  13.004  0.5456  1.4276  0.1671
12009TIP3   OH257441   1.093   2.899  15.638  0.9090 -0.4407 -0.4045
12009TIP3    H157442   1.081   2.849  15.557  0.2451  0.2377 -0.7373
12009TIP3    H257443   1.005   2.923  15.665  1.1784 -0.0015  0.1051
12010TIP3   OH257444   6.718   2.332  13.098  0.0443 -0.3017  0.2018
12010TIP3    H157445   6.639   2.301  13.054 -0.2690  0.0401  0.5070
12010TIP3    H257446   6.782   2.345  13.028 -0.1625 -0.6058 -0.0449
12011TIP3   OH257447   2.836   1.652  14.593  0.3872  0.2663 -0.3590
12011TIP3    H157448   2.874   1.648  14.681  0.7454  1.7683 -0.4117
12011TIP3    H257449   2.752   1.697  14.606 -0.5307 -1.3148 -0.5192
12012TIP3   OH257450   1.390   0.029  10.514 -0.1033  0.1615  0.4912
12012TIP3    H157451   1.337   0.061  10.587 -1.0332 -0.9028  0.3141
12012TIP3    H257452   1.336   0.046  10.437  1.0059  1.5752 -0.0158
12013TIP3   OH257453   4.839   0.968  16.499 -0.4485 -0.6141 -0.1351
12013TIP3    H157454   4.751   0.998  16.522  0.3369  1.3373  0.4962
12013TIP3    H257455   4.850   0.991  16.407 -1.3948 -2.9923 -0.9218
12014TIP3   OH257456   0.813   4.924  16.430  0.0802  0.5480 -0.3915
12014TIP3    H157457   0.783   4.912  16.340  0.9719 -0.8208 -0.5285
12014TIP3    H257458   0.900   4.963  16.422 -0.7920  2.7223 -0.0305
12015TIP3   OH257459   1.349   5.042  15.146 -0.2657  0.0269 -0.8060
12015TIP3    H157460   1.314   4.998  15.069 -0.8325  0.8176 -1.0042
12015TIP3    H257461   1.291   5.015  15.217 -0.5920  0.4379 -0.9206
12016TIP3   OH257462   2.896   0.215  13.542 -0.7714 -0.3893  0.6119
12016TIP3    H157463   2.899   0.137  13.487  1.3784  0.6320 -0.8536
12016TIP3    H257464   2.968   0.204  13.604 -0.5942  0.3265  0.5404
12017TIP3   OH257465   2.515   4.816  16.399 -0.4924  0.8197  0.5314
12017TIP3    H157466   2.596   4.790  16.443 -0.2555 -1.0100 -0.8937
12017TIP3    H257467   2.538   4.899  16.356  0.6479  0.3465  0.1693
12018TIP3   OH257468   3.183   5.795  14.495  0.5465 -0.5786 -0.3127
12018TIP3    H157469   3.097   5.800  14.537  0.2365 -1.1887 -0.8648
12018TIP3    H257470   3.167   5.751  14.412  1.5626 -1.6974  0.0562
12019TIP3   OH257471   5.917   5.366   4.902  0.6598  0.2479 -0.5237
12019TIP3    H157472   5.864   5.320   4.968 -1.0860  0.3136 -1.8172
12019TIP3    H257473   5.859   5.375   4.826  3.3482 -2.0802 -3.0904
12020TIP3   OH257474   2.859   1.603  16.248  0.1068  0.2894  0.3508
12020TIP3    H157475   2.930   1.661  16.275  0.4953 -0.6740  1.4959
12020TIP3    H257476   2.903   1.521  16.226 -0.4653  0.3014 -0.9153
12021TIP3   OH257477   5.250   3.189   1.556 -0.4167 -0.3126 -0.4761
12021TIP3    H157478   5.287   3.276   1.569 -1.8526  0.3136 -0.4005
12021TIP3    H257479   5.251   3.176   1.462  0.9252 -0.7450 -0.4201
12022TIP3   OH257480   4.169   5.579  16.157  0.4042 -0.1469  0.4424
12022TIP3    H157481   4.229   5.651  16.180  2.5483 -2.0618  1.3332
12022TIP3    H257482   4.224   5.501  16.163 -1.7564 -1.8464 -0.7668
12023TIP3   OH257483   6.077   0.992  11.313  0.2369 -0.1665 -0.6619
12023TIP3    H157484   6.001   0.935  11.318  0.4648 -0.5019 -0.9730
12023TIP3    H257485   6.079   1.023  11.223 -0.2909  0.9074 -0.3226
12024TIP3   OH257486   5.192   4.908   3.205  0.1955 -0.0594 -0.5005
12024TIP3    H157487   5.217   4.953   3.125 -1.1270 -1.2167 -1.6163
12024TIP3    H257488   5.213   4.816   3.188 -3.3874 -0.9185 -1.0275
12025TIP3   OH257489   0.187   0.011   1.644  0.4412  0.5642 -0.6524
12025TIP3    H157490   0.164   0.021   1.552 -2.9000  1.5548  0.1314
12025TIP3    H257491   0.185   0.101   1.678 -0.3655  0.0461  0.7408
12026TIP3   OH257492   2.156   3.867  14.861 -0.3306 -0.1139 -0.5473
12026TIP3    H157493   2.247   3.894  14.849 -0.5645  0.8982 -0.1005
12026TIP3    H257494   2.106   3.949  14.865 -1.1845 -0.6339 -0.1476
12027TIP3   OH257495   0.241   2.173  13.625 -0.2350 -0.0092 -0.3577
12027TIP3    H157496   0.311   2.139  13.680 -0.4196  1.1030  0.6254
12027TIP3    H257497   0.200   2.241  13.679 -2.9584 -1.5280 -0.3634
12028TIP3   OH257498   4.409   2.248  13.610 -0.4918 -0.0109 -0.5147
12028TIP3    H157499   4.449   2.333  13.591  1.6489 -1.0964 -1.1534
12028TIP3    H257500   4.400   2.247  13.705  0.2472  0.6086 -0.4201
12029TIP3   OH257501   2.498   1.651  12.892  0.3810  0.0886  0.0499
12029TIP3    H157502   2.581   1.650  12.844  0.9928  1.7024  0.9626
12029TIP3    H257503   2.460   1.565  12.878  1.7273 -0.3283 -1.2411
12030TIP3   OH257504   0.715   2.379   3.171  0.5308  0.2110  0.0418
12030TIP3    H157505   0.718   2.309   3.106  0.5537 -1.0091  1.3344
12030TIP3    H257506   0.803   2.417   3.168  0.6204 -0.0182 -0.4335
12031TIP3   OH257507   3.107   4.979  15.092 -0.3196 -0.0774  0.0764
12031TIP3    H157508   3.176   5.013  15.149  0.1778 -0.1038 -0.4972
12031TIP3    H257509   3.079   4.897  15.133  0.4393 -0.3919 -0.0168
12032TIP3   OH257510   1.552   4.868  16.863 -0.2924  0.2793  0.4267
12032TIP3    H157511   1.602   4.789  16.885 -0.7935  0.1297  1.0393
12032TIP3    H257512   1.517   4.851  16.775  1.5444  0.7935 -0.4597
12033TIP3   OH257513   0.633   3.893   3.266  0.0379  0.1656 -0.0156
12033TIP3    H157514   0.654   3.938   3.185  0.5136 -0.6893 -0.3859
12033TIP3    H257515   0.550   3.930   3.294  0.5700  1.4743 -0.1315
12034TIP3   OH257516   3.295   4.744   5.900 -0.1433  0.2704 -0.5516
12034TIP3    H157517   3.225   4.684   5.874 -1.1515  1.5025 -0.7851
12034TIP3    H257518   3.309   4.726   5.993 -0.3832 -0.3734 -0.6378
12035TIP3   OH257519   4.888   2.969  12.801  0.0946  0.3783  0.4674
12035TIP3    H157520   4.950   2.990  12.731  1.1542  1.1101  1.5798
12035TIP3    H257521   4.802   2.989  12.764  0.5014 -0.4098 -1.0253
12036TIP3   OH257522   5.760   3.445  16.944 -0.0848  0.2280 -0.1988
12036TIP3    H157523   5.822   3.480  16.879  0.7426 -1.3199 -0.2701
12036TIP3    H257524   5.686   3.506  16.940  0.1473  0.4721 -2.2513
12037TIP3   OH257525   5.477   5.996   4.457  0.4348  0.4292  0.4034
12037TIP3    H157526   5.506   6.004   4.366 -2.0055  0.0516 -0.4952
12037TIP3    H257527   5.426   6.075   4.473 -2.3874 -1.2045  0.0656
12038TIP3   OH257528   5.580   4.817  16.927 -0.0706 -0.4452  0.2621
12038TIP3    H157529   5.586   4.735  16.976 -1.5062 -0.4545  0.4668
12038TIP3    H257530   5.513   4.800  16.860  3.3440 -1.2041 -3.3181
12039TIP3   OH257531   3.428   6.613  11.681 -0.0918  0.2809  0.3415
12039TIP3    H157532   3.449   6.702  11.710  1.4658  0.5243 -1.3011
12039TIP3    H257533   3.504   6.587  11.628 -0.5701 -1.9884  0.6677
12040TIP3   OH257534   1.840   4.366   1.105  0.5419  1.0374 -0.2065
12040TIP3    H157535   1.757   4.391   1.144 -0.7746  0.2879 -2.3488
12040TIP3    H257536   1.871   4.292   1.158 -1.2521 -0.0482 -0.6044
12041TIP3   OH257537   1.756   6.200   5.734  0.5253  0.3001 -0.2955
12041TIP3    H157538   1.725   6.192   5.644 -0.7631  1.1681  0.0373
12041TIP3    H257539   1.806   6.282   5.734 -1.5938  1.6777  0.2840
12042TIP3   OH257540   3.401   1.138   3.817 -0.0397  0.6321 -0.6045
12042TIP3    H157541   3.397   1.219   3.767  0.3449 -0.0391 -1.7593
12042TIP3    H257542   3.483   1.097   3.790  0.6823  0.7065  1.3414
12043TIP3   OH257543   1.552   6.603   2.806  0.1133  0.4178 -0.0462
12043TIP3    H157544   1.522   6.694   2.800 -0.8033  0.2170  1.1095
12043TIP3    H257545   1.473   6.553   2.829  0.8745 -0.4657  0.7591
12044TIP3   OH257546   4.659   0.544  12.003  0.4584 -0.4245 -0.3162
12044TIP3    H157547   4.651   0.449  11.993  1.5449 -0.6130  0.4046
12044TIP3    H257548   4.746   0.565  11.968  0.7618  0.1006  0.7120
12045TIP3   OH257549   1.678   2.423  14.594  0.7430 -0.2509  0.0985
12045TIP3    H157550   1.645   2.485  14.659  2.3740  2.4757 -1.4968
12045TIP3    H257551   1.724   2.356  14.645  1.2817  1.3396  1.7901
12046TIP3   OH257552   6.022   6.334   4.161  0.0306 -0.2924  0.0308
12046TIP3    H157553   6.115   6.315   4.153  0.5529  1.4948  1.2188
12046TIP3    H257554   6.005   6.331   4.256 -1.5019 -2.0561 -0.2309
12047TIP3   OH257555   6.140   4.255  11.632  0.1236 -0.0606 -0.1464
12047TIP3    H157556   6.201   4.321  11.599  0.6138  0.1344  1.0990
12047TIP3    H257557   6.131   4.274  11.725 -1.1723 -0.6330 -0.1299
12048TIP3   OH257558   4.434   3.494  14.343  0.0522 -0.0804 -0.5603
12048TIP3    H157559   4.483   3.418  14.312  0.2273  0.5883 -1.9980
12048TIP3    H257560   4.349   3.487  14.300 -0.3857 -0.1179  0.2898
12049TIP3   OH257561   3.330   4.575   0.897 -0.3309  0.4765  0.4533
12049TIP3    H157562   3.402   4.594   0.957 -0.5478  1.9550  0.2829
12049TIP3    H257563   3.285   4.501   0.938  0.5512  0.3305  1.2032
12050TIP3   OH257564   6.276   3.429   4.912 -0.2657 -0.2923 -0.1756
12050TIP3    H157565   6.235   3.509   4.880 -0.4621  0.1460  1.1255
12050TIP3    H257566   6.350   3.415   4.853  0.5810  1.5997  0.3592
12051TIP3   OH257567   3.848   5.775   0.074 -0.0129  0.1963 -0.3483
12051TIP3    H157568   3.915   5.840   0.095  1.0609 -0.5588 -1.3346
12051TIP3    H257569   3.848   5.771  -0.022 -1.2075 -0.0934 -0.3491
12052TIP3   OH257570   1.575   3.873  11.467  0.0616 -0.1610 -0.5239
12052TIP3    H157571   1.650   3.909  11.514 -0.7405 -0.9354  1.4621
12052TIP3    H257572   1.590   3.778  11.467  0.1167 -0.1892 -2.0557
12053TIP3   OH257573   3.709   1.769   0.355  0.5001  0.0553 -0.1467
12053TIP3    H157574   3.765   1.715   0.299  1.0183 -0.5349  0.9166
12053TIP3    H257575   3.771   1.818   0.410 -0.0201 -0.1464  0.6264
12054TIP3   OH257576   1.329   1.284  10.528  0.0928 -0.1139 -0.2487
12054TIP3    H157577   1.361   1.272  10.618 -1.1144 -1.2907  0.0614
12054TIP3    H257578   1.405   1.266  10.473  0.6752 -0.0752  0.5222
12055TIP3   OH257579   2.169   4.754  14.029 -0.2862 -0.0152 -0.1620
12055TIP3    H157580   2.151   4.661  14.015 -1.1696  0.3644 -1.8517
12055TIP3    H257581   2.208   4.783  13.947  0.4352  1.0086  0.5291
12056TIP3   OH257582   4.388   0.540   2.775  0.0325 -0.1343  0.3354
12056TIP3    H157583   4.371   0.450   2.803  1.4185 -1.3431 -2.3632
12056TIP3    H257584   4.460   0.533   2.712 -0.0975  2.8305 -0.3107
12057TIP3   OH257585   5.908   0.376   4.827 -0.1959  0.0391 -0.4789
12057TIP3    H157586   5.871   0.340   4.908  0.0441  0.6690 -0.0837
12057TIP3    H257587   5.834   0.377   4.765 -0.0652 -1.7485 -0.7307
12058TIP3   OH257588   1.090   3.824   4.251  0.1194  0.0433 -0.2235
12058TIP3    H157589   1.159   3.778   4.203  1.9796  2.2216  0.1666
12058TIP3    H257590   1.134   3.860   4.327 -1.3972  1.6919 -0.0628
12059TIP3   OH257591   2.075   6.355   2.395 -0.6132  0.0870  0.1779
12059TIP3    H157592   2.152   6.409   2.377 -1.5039  1.2891 -0.2194
12059TIP3    H257593   2.098   6.268   2.364 -0.3662  1.0126 -2.4753
12060TIP3   OH257594   0.211   1.330   3.552 -0.3388 -0.0029 -0.3846
12060TIP3    H157595   0.246   1.395   3.490 -0.2341 -0.1842 -0.5151
12060TIP3    H257596   0.158   1.272   3.498  0.3322 -0.5930 -0.4295
12061TIP3   OH257597   3.181   1.179   5.085 -0.0563 -0.1360 -0.4497
12061TIP3    H157598   3.095   1.161   5.124 -0.3584 -0.1132 -1.0901
12061TIP3    H257599   3.184   1.274   5.077 -0.6965 -0.2128 -1.9911
12062TIP3   OH257600   0.976   4.792   6.543 -0.3203  0.2808  0.1629
12062TIP3    H157601   0.979   4.715   6.600  0.0181 -0.1660 -0.4399
12062TIP3    H257602   0.884   4.804   6.523 -0.7390  1.9082  2.7208
12063TIP3   OH257603   3.983   0.080  15.009 -0.3513  0.0186  0.0005
12063TIP3    H157604   3.915   0.053  15.070  1.7215 -0.4384  2.2914
12063TIP3    H257605   4.048   0.009  15.013 -0.1301 -0.0510 -2.8313
12064TIP3   OH257606   4.792   4.990  10.655 -0.4669  0.4156 -0.7165
12064TIP3    H157607   4.797   5.056  10.586 -1.1840  0.2722 -0.9134
12064TIP3    H257608   4.750   4.914  10.614 -2.0082  0.7408  0.1500
12065TIP3   OH257609   3.679   4.095   3.421  0.2520 -0.5690 -0.0027
12065TIP3    H157610   3.595   4.054   3.400 -2.6295  3.8130  1.5601
12065TIP3    H257611   3.704   4.140   3.340  1.3052 -1.9881 -0.5116
12066TIP3   OH257612   0.561   5.028  11.665 -0.7646 -0.0374 -0.7606
12066TIP3    H157613   0.491   5.093  11.662  0.9595  1.9033 -0.4856
12066TIP3    H257614   0.583   5.020  11.758 -0.8822 -0.9931 -0.7966
12067TIP3   OH257615   3.653   4.241  16.188  0.0582 -0.6136  0.3467
12067TIP3    H157616   3.593   4.282  16.125  1.9557  1.5692 -0.1824
12067TIP3    H257617   3.680   4.159  16.145 -0.8947 -0.5830 -0.3514
12068TIP3   OH257618   0.919   6.686  13.349 -0.5065 -0.3064 -0.6519
12068TIP3    H157619   0.830   6.687  13.312  0.2617  1.6286 -2.6405
12068TIP3    H257620   0.967   6.626  13.291 -0.4040 -1.0890  0.2236
12069TIP3   OH257621   2.439   1.943  16.432 -0.3243  0.1895 -0.0182
12069TIP3    H157622   2.515   1.996  16.457 -1.3349  2.2594 -1.1053
12069TIP3    H257623   2.451   1.925  16.339  0.5481 -2.5709  0.5271
12070TIP3   OH257624   0.492   0.483   4.851 -0.1345  0.1168 -0.1545
12070TIP3    H157625   0.535   0.504   4.934  3.3341 -3.8375 -0.6610
12070TIP3    H257626   0.548   0.521   4.784 -1.1402  0.5119 -0.8023
12071TIP3   OH257627   0.661   5.644   4.819 -0.4351 -0.2039  0.0643
12071TIP3    H157628   0.643   5.556   4.854 -2.5476  0.2363  0.2090
12071TIP3    H257629   0.706   5.689   4.890 -0.4321 -0.7721  0.4319
12072TIP3   OH257630   0.404   0.860   2.806  0.1905  0.1072  0.0787
12072TIP3    H157631   0.311   0.864   2.831 -0.2814 -1.1339 -1.3318
12072TIP3    H257632   0.442   0.796   2.866  0.6170  1.9515  1.8976
12073TIP3   OH257633   6.048   3.172  15.926 -0.1177 -0.4479  0.1990
12073TIP3    H157634   6.133   3.171  15.882 -1.4375  0.1873 -2.5210
12073TIP3    H257635   5.985   3.145  15.860 -2.2058  0.1377  1.8185
12074TIP3   OH257636   2.975   3.606  13.543  0.5019 -0.6195 -0.1029
12074TIP3    H157637   3.038   3.656  13.491 -0.0986  1.3977  1.0053
12074TIP3    H257638   3.029   3.554  13.602  1.1469 -0.1130 -0.2323
12075TIP3   OH257639   6.291   4.950  13.048 -0.0953 -0.1147  0.2028
12075TIP3    H157640   6.372   4.903  13.028 -0.5006 -1.9336  2.4258
12075TIP3    H257641   6.241   4.889  13.102 -2.0146  1.7922  0.6972
12076TIP3   OH257642   2.365   2.594   5.952 -0.4315 -0.2820 -0.1195
12076TIP3    H157643   2.456   2.613   5.975 -0.5676  2.2940 -1.3531
12076TIP3    H257644   2.321   2.582   6.037  0.6496  0.6826  0.6023
12077TIP3   OH257645   5.539   6.287  12.848  0.2458  0.1317  0.5108
12077TIP3    H157646   5.493   6.366  12.875 -1.0972 -0.4639  0.0619
12077TIP3    H257647   5.470   6.222  12.833  1.0924 -0.3677 -1.6584
12078TIP3   OH257648   3.294   5.130   1.287 -0.4303 -0.6953 -0.5364
12078TIP3    H157649   3.339   5.168   1.362 -0.8196 -0.7658 -0.2650
12078TIP3    H257650   3.202   5.155   1.299 -0.8148 -2.2567 -0.0036
12079TIP3   OH257651   4.756   0.792   3.533 -0.2411 -0.1464  0.1421
12079TIP3    H157652   4.773   0.704   3.566 -0.7392  0.3998  1.9587
12079TIP3    H257653   4.752   0.847   3.612 -1.5594  1.2185 -0.8288
12080TIP3   OH257654   0.283   1.702  15.280 -0.5051  0.2063 -0.3654
12080TIP3    H157655   0.278   1.668  15.369 -1.9982 -0.3874 -0.6500
12080TIP3    H257656   0.326   1.787  15.289  0.5108 -0.4027  0.7398
12081TIP3   OH257657   0.534   1.778  16.387 -0.1551  0.3660  0.0509
12081TIP3    H157658   0.530   1.686  16.360  2.1415  0.0462  0.6400
12081TIP3    H257659   0.446   1.812  16.368 -0.0587 -0.9853 -3.5507
12082TIP3   OH257660   0.837   1.644   5.403 -0.0366 -0.5314  0.4281
12082TIP3    H157661   0.883   1.673   5.325  0.5406 -2.0578  0.1688
12082TIP3    H257662   0.744   1.645   5.378  0.0186  0.3925  0.2203
12083TIP3   OH257663   2.958   2.741   1.867 -0.0072 -0.4067 -0.3301
12083TIP3    H157664   2.914   2.746   1.783 -2.5770 -1.4894  0.8490
12083TIP3    H257665   2.982   2.649   1.877 -0.9063 -0.5482  0.6574
12084TIP3   OH257666   6.073   4.027   4.608 -0.0039  0.2163 -0.4474
12084TIP3    H157667   6.085   4.106   4.661  1.0789 -0.1738 -0.0670
12084TIP3    H257668   5.979   4.017   4.600 -0.1853  0.5063  1.0816
12085TIP3   OH257669   0.482   2.038   4.885 -0.2951 -0.0076  0.0669
12085TIP3    H157670   0.516   2.109   4.831  1.0396 -0.8666 -0.2699
12085TIP3    H257671   0.549   1.971   4.881 -2.3866 -2.1956 -1.3480
12086TIP3   OH257672   3.144   0.807  12.621 -0.1367  0.7222  0.5682
12086TIP3    H157673   3.125   0.885  12.673 -1.1236  1.1294 -0.3792
12086TIP3    H257674   3.123   0.733  12.679  0.6235  1.1405  1.4026
12087TIP3   OH257675   6.477   4.608  16.733  0.2277 -0.0738  0.2594
12087TIP3    H157676   6.567   4.638  16.721  0.3478  0.3589  1.9680
12087TIP3    H257677   6.485   4.512  16.737  0.6717 -0.0247  0.7370
12088TIP3   OH257678   6.530   4.512   4.111  0.7893  0.8797 -0.5738
12088TIP3    H157679   6.490   4.443   4.058 -1.4265 -0.5131  2.6024
12088TIP3    H257680   6.604   4.469   4.154 -1.3135 -0.1029  2.3601
12089TIP3   OH257681   5.509   3.181   6.228  0.0941  0.2984  0.1802
12089TIP3    H157682   5.487   3.248   6.294 -1.2567 -0.3129  0.3899
12089TIP3    H257683   5.457   3.206   6.151  0.7366  0.3212 -0.2534
12090TIP3   OH257684   1.463   3.765  17.218  0.2312  0.3679  0.2743
12090TIP3    H157685   1.382   3.812  17.199  0.8747  1.1921 -0.4648
12090TIP3    H257686   1.501   3.812  17.292 -0.3287 -0.4941  1.1441
12091TIP3   OH257687   2.646   4.581   4.110 -0.3504  0.0710  0.1339
12091TIP3    H157688   2.689   4.498   4.091  1.1711  0.4164  1.7596
12091TIP3    H257689   2.598   4.566   4.192  1.1058  1.0972  1.2438
12092TIP3   OH257690   2.871   5.077   5.739 -0.0721  0.9365  0.1733
12092TIP3    H157691   2.911   5.107   5.657 -1.8336  1.5096 -0.5235
12092TIP3    H257692   2.878   4.981   5.734  3.9973  0.9336  1.6093
12093TIP3   OH257693   5.662   3.382  12.851  0.4888  0.2579  0.5206
12093TIP3    H157694   5.665   3.472  12.886  0.8656  0.2550  0.4925
12093TIP3    H257695   5.720   3.384  12.775  0.7828 -0.1037  0.7350
12094TIP3   OH257696   0.110   2.954   5.792 -0.3625 -0.1009  0.1291
12094TIP3    H157697   0.054   3.031   5.784  0.8262  0.6180 -2.2707
12094TIP3    H257698   0.052   2.880   5.776 -1.0996  0.4486  0.2230
12095TIP3   OH257699   6.394   5.870   3.102 -0.1386 -0.8154 -0.6307
12095TIP3    H157700   6.322   5.933   3.094 -0.7559 -1.5253 -0.8278
12095TIP3    H257701   6.467   5.921   3.137 -1.4296 -0.5539  1.9372
12096TIP3   OH257702   0.771   5.594   2.772 -0.1198  0.5874  0.1361
12096TIP3    H157703   0.731   5.680   2.763 -1.9820 -0.2551 -0.0834
12096TIP3    H257704   0.841   5.593   2.707 -1.4522  1.1858 -1.3643
12097TIP3   OH257705   5.333   3.358  16.247 -0.2880 -0.4081  0.5693
12097TIP3    H157706   5.278   3.287  16.277 -2.6952  1.0597 -0.1192
12097TIP3    H257707   5.344   3.415  16.323 -0.7821 -0.0632  0.3834
12098TIP3   OH257708   2.267   1.786   3.750  0.7341  0.0094  0.1511
12098TIP3    H157709   2.239   1.697   3.727  2.1203 -0.8452  1.5491
12098TIP3    H257710   2.285   1.828   3.666  1.0683 -1.3859 -0.4949
12099TIP3   OH257711   4.066   0.707  12.567  0.7068 -0.1458  0.4982
12099TIP3    H157712   3.991   0.680  12.514  0.5852  0.4917  0.3404
12099TIP3    H257713   4.142   0.689  12.513  0.5591  0.9099 -0.0827
12100TIP3   OH257714   5.396   2.665   1.744  0.2868  0.1190  0.4707
12100TIP3    H157715   5.473   2.614   1.719 -0.0677 -0.1142 -0.1644
12100TIP3    H257716   5.365   2.703   1.663 -2.1743 -2.4271  0.0668
12101TIP3   OH257717   5.409   0.716   4.505  0.1180  0.1639  0.4408
12101TIP3    H157718   5.359   0.648   4.549 -3.4148  0.4674 -2.5879
12101TIP3    H257719   5.425   0.681   4.417  1.7462  1.7200  0.0537
12102TIP3   OH257720   0.408   2.661  13.036 -0.1504  0.1122  0.6638
12102TIP3    H157721   0.343   2.715  13.082 -2.1326 -1.4019 -0.2207
12102TIP3    H257722   0.386   2.671  12.944 -0.2771 -1.7771  0.4502
12103TIP3   OH257723   5.735   2.473   0.987  0.6910  0.0619 -0.1336
12103TIP3    H157724   5.712   2.558   1.024 -0.1816 -0.5092  0.6827
12103TIP3    H257725   5.656   2.446   0.939  1.0251 -0.2141 -0.5320
12104TIP3   OH257726   0.006   3.450  11.271 -0.0321 -0.1475 -0.1493
12104TIP3    H157727   0.094   3.415  11.258 -0.4913 -1.7875  0.8306
12104TIP3    H257728  -0.004   3.455  11.366 -2.1436 -3.2607 -0.0673
12105TIP3   OH257729   4.378   3.616   1.088 -0.4361 -0.3212 -0.0323
12105TIP3    H157730   4.356   3.700   1.130  1.8780 -0.2631  1.1954
12105TIP3    H257731   4.467   3.597   1.117  1.0550 -0.7456 -4.2737
12106TIP3   OH257732   6.200   4.817  14.769  0.0718  0.0998 -0.9435
12106TIP3    H157733   6.171   4.804  14.859 -0.9562 -0.4164 -1.3242
12106TIP3    H257734   6.269   4.883  14.774  0.3640 -0.2967  0.2703
12107TIP3   OH257735   0.085   4.245  10.763 -0.1704  0.6395 -0.0925
12107TIP3    H157736   0.170   4.284  10.744 -0.4614  1.4803  0.2537
12107TIP3    H257737   0.074   4.256  10.858 -1.0313  1.3368 -0.2567
12108TIP3   OH257738   1.704   5.707  11.777  0.0596 -0.2323 -0.2171
12108TIP3    H157739   1.639   5.777  11.774 -0.5647 -0.7870 -0.1307
12108TIP3    H257740   1.653   5.627  11.759  1.0585 -0.4829 -2.2297
12109TIP3   OH257741   3.785   6.775  11.948  0.4446 -0.0561  0.0901
12109TIP3    H157742   3.757   6.856  11.988  0.5271  0.4401 -0.8206
12109TIP3    H257743   3.816   6.801  11.861  0.8215 -1.0058 -0.0725
12110TIP3   OH257744   2.455   3.559   0.669 -0.3969 -0.6660 -0.2606
12110TIP3    H157745   2.518   3.627   0.691  0.1402 -1.1970 -0.1491
12110TIP3    H257746   2.381   3.575   0.728  0.5434 -1.3749  1.1678
12111TIP3   OH257747   5.634   4.424   0.287  0.5107  0.2102 -0.2393
12111TIP3    H157748   5.577   4.367   0.235 -0.0674  0.5177  0.0360
12111TIP3    H257749   5.712   4.372   0.304 -0.2432 -0.7143  0.5051
12112TIP3   OH257750   1.364   3.193  12.183 -0.5382 -0.1249  0.0630
12112TIP3    H157751   1.316   3.255  12.127  0.3350 -0.1592 -0.7565
12112TIP3    H257752   1.456   3.218  12.172 -0.4270  1.5411  3.5383
12113TIP3   OH257753   0.863   2.860   5.243  0.2343 -0.4947  0.2037
12113TIP3    H157754   0.772   2.872   5.269 -0.3870 -2.5570 -0.7723
12113TIP3    H257755   0.914   2.890   5.318 -1.2319  0.5136  0.8447
12114TIP3   OH257756   2.867   6.608  16.643  0.2601  0.0761 -0.4839
12114TIP3    H157757   2.795   6.579  16.587  0.3013 -0.8340 -0.0786
12114TIP3    H257758   2.914   6.672  16.590 -3.2499  4.0687  0.6549
12115TIP3   OH257759   4.539   1.610   0.417 -0.3698 -0.5759  0.2209
12115TIP3    H157760   4.489   1.529   0.425 -1.6287  0.0090 -1.1765
12115TIP3    H257761   4.623   1.591   0.457 -1.5589 -1.7300  2.3523
12116TIP3   OH257762   1.475   3.067   2.965  0.2596 -0.3146  0.3461
12116TIP3    H157763   1.447   3.108   3.047 -1.3146  0.3302 -0.4714
12116TIP3    H257764   1.394   3.040   2.922  0.7790  1.6641 -2.1521
12117TIP3   OH257765   4.899   5.268  15.970  0.1384 -1.1763  0.0996
12117TIP3    H157766   4.969   5.324  15.936 -0.7968 -0.1746 -0.2148
12117TIP3    H257767   4.890   5.199  15.904 -1.6366  0.7224 -1.8009
12118TIP3   OH257768   4.737   1.035   0.944  0.2793 -0.9419 -0.0327
12118TIP3    H157769   4.666   1.025   1.008 -0.9393 -1.6342 -1.4308
12118TIP3    H257770   4.712   0.977   0.872  0.9804  0.7115 -1.6780
12119TIP3   OH257771   4.599   6.610  11.218  0.0781  0.1366 -0.0321
12119TIP3    H157772   4.592   6.651  11.132  0.7312  2.1426  0.8194
12119TIP3    H257773   4.681   6.644  11.255  0.3245 -1.4506  1.0136
12120TIP3   OH257774   2.804   0.089  15.680 -0.0655 -0.2856 -0.2562
12120TIP3    H157775   2.894   0.070  15.706 -0.8454 -1.7516  1.6029
12120TIP3    H257776   2.774   0.008  15.637 -0.2813  0.4830 -1.6201
12121TIP3   OH257777   1.704   0.458   2.856 -0.0754 -0.2259  0.3786
12121TIP3    H157778   1.643   0.426   2.923 -1.2254  2.7170  0.8891
12121TIP3    H257779   1.769   0.508   2.905  0.8165 -0.5048 -0.4893
12122TIP3   OH257780   0.446   0.959  11.192 -0.1289  0.7157 -0.4044
12122TIP3    H157781   0.360   0.971  11.151 -0.0775  0.1983 -0.6781
12122TIP3    H257782   0.507   1.001  11.132 -0.2709  1.9032  0.2446
12123TIP3   OH257783   6.779   3.203   5.777 -0.2198  0.2505  0.1713
12123TIP3    H157784   6.840   3.263   5.820  0.7804 -0.1812 -0.6230
12123TIP3    H257785   6.722   3.173   5.848 -0.8950  2.2626  0.5757
12124TIP3   OH257786   3.214   3.323   3.073 -0.1205 -0.0234  0.0730
12124TIP3    H157787   3.271   3.354   3.003  1.0309  1.2534  1.4911
12124TIP3    H257788   3.127   3.352   3.048  0.3097  0.6306 -0.7073
12125TIP3   OH257789   2.654   6.159   4.480 -0.5866 -0.0338 -0.1385
12125TIP3    H157790   2.586   6.135   4.418 -0.1437 -2.2066  0.1286
12125TIP3    H257791   2.616   6.141   4.566 -0.4675  0.9800  0.1466
12126TIP3   OH257792   6.223   1.918  10.869 -0.5050 -0.0906 -0.1016
12126TIP3    H157793   6.274   1.838  10.853  0.0183  0.5126 -1.5926
12126TIP3    H257794   6.289   1.985  10.889 -0.8298  0.3087 -0.3538
12127TIP3   OH257795   4.637   3.329  15.921  0.1291 -0.0973  0.1702
12127TIP3    H157796   4.574   3.396  15.948 -1.4686 -0.8567 -1.4425
12127TIP3    H257797   4.679   3.366  15.843  1.2225  0.1188  0.8469
12128TIP3   OH257798   4.856   6.541  14.716  0.4002 -0.0548  0.2346
12128TIP3    H157799   4.799   6.617  14.730  0.6488  0.2100 -0.1659
12128TIP3    H257800   4.902   6.560  14.634  2.0495  0.3594  1.1950
12129TIP3   OH257801   1.666   1.778   5.418 -0.2788  0.2546  0.6746
12129TIP3    H157802   1.648   1.707   5.357 -0.8934  0.8918  0.1002
12129TIP3    H257803   1.580   1.816   5.437  0.2241  2.2640 -0.7757
12130TIP3   OH257804   6.570   4.094  10.564 -0.4592  0.1334  0.2636
12130TIP3    H157805   6.642   4.143  10.524 -1.1353  1.5157  0.6800
12130TIP3    H257806   6.508   4.081  10.492 -0.4399  0.2076  0.2326
12131TIP3   OH257807   1.577   5.158   4.178  0.4292 -0.5375  0.4263
12131TIP3    H157808   1.621   5.220   4.120 -1.5333  0.6408  0.0791
12131TIP3    H257809   1.608   5.072   4.150  0.6390  0.0961 -1.4085
12132TIP3   OH257810   0.085   2.100  12.857 -0.5121  0.5519 -0.2380
12132TIP3    H157811   0.109   2.192  12.854 -0.3539  0.5048 -2.4719
12132TIP3    H257812  -0.001   2.097  12.816 -0.6925 -0.2525  0.1832
12133TIP3   OH257813   3.607   0.011   1.982  0.0581  0.0788 -0.3358
12133TIP3    H157814   3.588  -0.039   1.903  2.6309 -1.4514 -0.0730
12133TIP3    H257815   3.658   0.086   1.952 -0.2094  0.2963 -0.2583
12134TIP3   OH257816   3.123   0.520  13.873  0.0698  0.7439 -0.6974
12134TIP3    H157817   3.062   0.449  13.893 -1.1884  2.0059  0.0503
12134TIP3    H257818   3.137   0.565  13.957  1.7350  0.7307 -0.9297
12135TIP3   OH257819   4.869   4.444  14.570  0.0586  0.5372  0.3339
12135TIP3    H157820   4.899   4.535  14.577  1.1994  0.1672  0.5549
12135TIP3    H257821   4.940   4.393  14.609  0.2497 -0.5757 -1.3414
12136TIP3   OH257822   5.822   5.859  14.521  0.4563 -0.6390  0.1092
12136TIP3    H157823   5.888   5.796  14.552  1.4021 -1.1682 -2.6483
12136TIP3    H257824   5.873   5.932  14.487 -0.4763 -0.2138 -0.4123
12137TIP3   OH257825   6.693   0.996   0.658  0.0468  0.0952 -0.0883
12137TIP3    H157826   6.709   1.058   0.729  0.4759  0.8840 -0.8629
12137TIP3    H257827   6.671   1.050   0.583 -0.0145 -0.7150 -0.6675
12138TIP3   OH257828   2.495   5.106   1.454  0.0868  0.1501  0.3664
12138TIP3    H157829   2.420   5.104   1.513 -0.3266  1.2870 -0.0929
12138TIP3    H257830   2.531   5.194   1.464  0.7505 -0.0538 -0.1674
12139TIP3   OH257831   5.372   1.914  14.723 -0.5742 -0.2303  0.1681
12139TIP3    H157832   5.291   1.868  14.700  0.4557 -1.4620 -1.2039
12139TIP3    H257833   5.420   1.853  14.778  0.0776 -0.1431 -0.2904
12140TIP3   OH257834   2.903   6.758   3.704 -0.2478 -0.2409  0.0450
12140TIP3    H157835   2.911   6.851   3.681  2.1022 -0.6067 -0.8920
12140TIP3    H257836   2.813   6.736   3.683 -0.7556  1.7305 -0.0768
12141TIP3   OH257837   2.395   6.488  14.311  0.1259 -0.6435 -1.0387
12141TIP3    H157838   2.423   6.452  14.395 -0.9336 -0.5756 -0.6446
12141TIP3    H257839   2.477   6.507  14.265  0.7232 -2.5866 -0.8585
12142TIP3   OH257840   0.870   1.780   5.697  0.2259  0.3353 -0.4784
12142TIP3    H157841   0.880   1.720   5.624  0.9572  0.2508 -0.3194
12142TIP3    H257842   0.791   1.751   5.742  0.9503 -0.9764  0.0164
12143TIP3   OH257843   3.402   0.981  12.612  0.6706 -0.4532  0.1862
12143TIP3    H157844   3.473   0.937  12.566  1.4377  0.4759  0.4446
12143TIP3    H257845   3.356   0.910  12.659  0.7160 -1.2097 -0.8782
12144TIP3   OH257846   1.761   5.857  16.815 -0.8405 -0.1956 -0.4693
12144TIP3    H157847   1.731   5.947  16.807  1.8055  0.9009  0.6943
12144TIP3    H257848   1.740   5.817  16.730 -1.5347  1.6963 -1.2412
12145TIP3   OH257849   5.166   5.276  16.591 -0.1250  0.0856  0.4924
12145TIP3    H157850   5.189   5.296  16.501  0.9365  0.4023  0.8150
12145TIP3    H257851   5.083   5.227  16.585  0.7199 -1.2695 -0.7398
12146TIP3   OH257852   2.658   0.614   0.721 -0.0588  0.3756  0.1090
12146TIP3    H157853   2.668   0.562   0.642 -1.7704  1.6943 -1.0472
12146TIP3    H257854   2.726   0.681   0.715  0.1350  0.1738  0.0313
12147TIP3   OH257855   5.348   6.094   3.046  0.3919 -0.5688  0.4626
12147TIP3    H157856   5.320   6.017   2.996  0.1893  0.3466 -0.8831
12147TIP3    H257857   5.425   6.126   2.999  0.5492 -0.0173  1.0811
12148TIP3   OH257858   1.939   5.036  16.731  0.7325 -0.0525  0.3795
12148TIP3    H157859   1.948   4.989  16.648  0.2882  1.9042 -0.8440
12148TIP3    H257860   1.983   4.980  16.795  1.2908 -1.5177 -1.2082
12149TIP3   OH257861   3.703   4.516   4.838  0.0621  0.2315  0.0583
12149TIP3    H157862   3.713   4.609   4.819 -0.0345  0.4310  0.9364
12149TIP3    H257863   3.766   4.473   4.780  2.9973  1.1177  2.2744
12150TIP3   OH257864   5.599   6.348  17.065 -0.2550 -0.4935 -1.0454
12150TIP3    H157865   5.674   6.294  17.042  0.2455 -1.0882  1.6414
12150TIP3    H257866   5.635   6.437  17.069  0.0686 -0.6361 -0.7507
12151TIP3   OH257867   3.440   5.707  13.830 -0.3830 -0.5275  0.0482
12151TIP3    H157868   3.402   5.749  13.907 -0.5216  0.3049 -0.4599
12151TIP3    H257869   3.371   5.711  13.764 -0.4440 -1.6928  0.0244
12152TIP3   OH257870   0.090   1.397   1.142  0.3663 -0.0724  0.4696
12152TIP3    H157871   0.098   1.483   1.101  1.8683 -1.1414 -1.6246
12152TIP3    H257872   0.146   1.340   1.090 -2.5913 -2.9458  0.0960
12153TIP3   OH257873   4.537   6.737  10.519 -0.2643 -0.0903 -0.0999
12153TIP3    H157874   4.539   6.799  10.592 -1.3792 -1.2529  0.9693
12153TIP3    H257875   4.457   6.759  10.471 -0.4126 -0.3756  0.0102
12154TIP3   OH257876   5.196   4.052   6.137  0.5725 -0.7637  0.8527
12154TIP3    H157877   5.279   4.029   6.179  0.7247 -0.3299  0.8001
12154TIP3    H257878   5.154   3.968   6.118  0.8381 -0.9797  1.2017
12155TIP3   OH257879   5.225   0.704   3.925 -0.1484  0.5238  0.5463
12155TIP3    H157880   5.303   0.758   3.914  0.2134  0.0295  0.6780
12155TIP3    H257881   5.221   0.651   3.845  0.5145 -0.5481  1.2094
12156TIP3   OH257882   1.604   0.563  11.113  0.2356  0.1817  0.1627
12156TIP3    H157883   1.615   0.542  11.020  1.2373 -0.6715  0.4557
12156TIP3    H257884   1.579   0.656  11.113  1.0178  0.4165 -0.9159
12157TIP3   OH257885   2.029   6.506  13.575  0.7940  0.4097 -0.1335
12157TIP3    H157886   2.041   6.596  13.606  0.3906  1.6643 -3.2293
12157TIP3    H257887   1.964   6.514  13.505  2.0143 -2.0160 -1.6563
12158TIP3   OH257888   5.688   3.109  14.312  0.4586 -0.0447  0.2247
12158TIP3    H157889   5.671   3.017  14.293  1.3549 -0.3023  0.6049
12158TIP3    H257890   5.605   3.154  14.292  0.0104 -0.9284  0.0566
12159TIP3   OH257891   4.121   3.144  14.550 -0.6451 -0.5606 -0.0606
12159TIP3    H157892   4.201   3.130  14.499 -1.2862  0.1248 -1.2962
12159TIP3    H257893   4.147   3.128  14.640  1.4481  1.7907 -0.1676
12160TIP3   OH257894   5.856   4.615  15.500 -0.5969 -0.5854  0.7526
12160TIP3    H157895   5.816   4.566  15.572  0.1461 -1.6806  0.4468
12160TIP3    H257896   5.930   4.562  15.474 -0.2602  0.3100 -0.1632
12161TIP3   OH257897   0.804   4.512   5.327  0.6257 -1.3634 -0.2561
12161TIP3    H157898   0.893   4.506   5.294  1.3652  1.2610  0.9697
12161TIP3    H257899   0.804   4.462   5.409  1.1480 -0.9492  0.0032
12162TIP3   OH257900   4.166   1.369  11.488 -0.1143 -0.0183 -0.7716
12162TIP3    H157901   4.219   1.448  11.485 -0.6235  0.5149  1.7249
12162TIP3    H257902   4.084   1.397  11.527 -0.2988 -1.7591  0.1948
12163TIP3   OH257903   4.982   3.969  14.998 -0.0814 -0.3120 -0.6405
12163TIP3    H157904   4.990   3.968  14.903 -0.2087  1.4329 -0.7016
12163TIP3    H257905   5.027   4.049  15.025 -1.5221  0.1237  0.6018
12164TIP3   OH257906   5.106   4.452  11.141  0.0848 -0.2543  0.2593
12164TIP3    H157907   5.099   4.369  11.093 -0.4006 -1.5617  2.4503
12164TIP3    H257908   5.200   4.471  11.143  0.3057 -1.3203  0.6199
12165TIP3   OH257909   3.796   4.134  16.524  0.2130 -0.3941  0.0204
12165TIP3    H157910   3.776   4.220  16.488 -0.2227 -0.4355  0.1594
12165TIP3    H257911   3.864   4.151  16.590  0.2396 -0.1799 -0.0600
12166TIP3   OH257912   1.736   5.997   3.914 -0.2733 -0.3451  0.3624
12166TIP3    H157913   1.693   6.067   3.865 -1.3784  1.0205  3.0930
12166TIP3    H257914   1.694   5.917   3.883  0.0934  0.2591 -1.8831
12167TIP3   OH257915   4.882   4.040   4.715 -0.4869  0.2511  0.2458
12167TIP3    H157916   4.961   4.049   4.769  0.7587 -1.7509 -1.1046
12167TIP3    H257917   4.882   4.118   4.659  0.3473  0.4561  0.5181
12168TIP3   OH257918   4.342   1.636   5.499 -0.8554  0.0399  0.1314
12168TIP3    H157919   4.310   1.628   5.589  0.0732 -1.7988  0.3375
12168TIP3    H257920   4.430   1.598   5.502 -0.2090  1.3087 -1.2628
12169TIP3   OH257921   2.814   5.704   6.010 -0.1558 -0.5054 -0.0122
12169TIP3    H157922   2.796   5.615   6.042  2.1599 -0.4977  1.5390
12169TIP3    H257923   2.772   5.761   6.073 -1.7162 -0.4305 -1.0557
12170TIP3   OH257924   4.073   0.292  15.720  0.3136  0.2543 -0.2792
12170TIP3    H157925   4.008   0.290  15.790  0.8405  2.2248  0.3364
12170TIP3    H257926   4.138   0.226  15.746  1.1764  1.8108  1.8635
12171TIP3   OH257927   5.287   0.687  16.858  0.5508  0.2809  0.3030
12171TIP3    H157928   5.362   0.662  16.805  0.2003 -2.3795  0.9433
12171TIP3    H257929   5.256   0.605  16.897 -2.9040  1.1935 -0.2138
12172TIP3   OH257930   4.634   1.594  16.424  0.6195 -0.2694  0.1748
12172TIP3    H157931   4.691   1.667  16.399  0.0904  0.8564  2.1240
12172TIP3    H257932   4.672   1.559  16.504 -1.1333  0.1854  1.2436
12173TIP3   OH257933   5.222   0.643   2.973 -0.2151  0.0780 -0.3107
12173TIP3    H157934   5.247   0.719   2.920 -1.9945  0.8738 -0.0809
12173TIP3    H257935   5.161   0.595   2.918 -1.4053  0.4450  0.6309
12174TIP3   OH257936   5.265   2.301  10.324 -0.0295 -0.4789  0.0216
12174TIP3    H157937   5.307   2.279  10.407  0.9988 -1.7670 -0.8074
12174TIP3    H257938   5.189   2.243  10.319 -0.5724  0.1839  0.4286
12175TIP3   OH257939   0.920   3.342   3.743  0.2410  0.1433  0.4511
12175TIP3    H157940   0.945   3.425   3.784 -2.8353  1.6468 -0.4029
12175TIP3    H257941   0.935   3.356   3.649 -1.1979  0.1311  0.2047
12176TIP3   OH257942   1.987   1.963   4.008  0.3544  0.6392  0.3104
12176TIP3    H157943   1.932   1.884   4.012  0.8751  0.2809  0.5534
12176TIP3    H257944   2.012   1.970   3.916  0.9244  0.0758  0.4113
12177TIP3   OH257945   2.880   3.221  13.257 -0.2795  0.7372  0.4759
12177TIP3    H157946   2.851   3.172  13.334 -0.2179 -1.5252 -0.8391
12177TIP3    H257947   2.841   3.307  13.267 -0.6426  0.3663  2.7932
12178TIP3   OH257948   3.549   2.944   0.482  0.2464  0.8306  0.1212
12178TIP3    H157949   3.608   2.970   0.553  0.4249 -0.0913  0.3269
12178TIP3    H257950   3.595   2.874   0.437 -1.0321 -0.5503  0.8453
12179TIP3   OH257951   4.327   5.658   2.227  0.6734  0.4168 -0.3753
12179TIP3    H157952   4.315   5.687   2.317  1.2777 -0.6085  0.0618
12179TIP3    H257953   4.318   5.562   2.232  2.3781  0.1833 -1.0962
12180TIP3   OH257954   6.756   3.969  14.833  1.0123  0.2873  0.0435
12180TIP3    H157955   6.779   4.062  14.835 -0.0321  0.5914 -1.2085
12180TIP3    H257956   6.805   3.934  14.758  2.2378 -0.4369  1.1332
12181TIP3   OH257957   2.419   3.393   5.108  0.4141 -0.3279  0.1328
12181TIP3    H157958   2.511   3.407   5.087  0.9551 -2.2656  1.0396
12181TIP3    H257959   2.396   3.465   5.167  1.0833  0.6334 -0.7537
12182TIP3   OH257960   4.797   4.667  12.598  0.0315  0.2620 -0.1133
12182TIP3    H157961   4.724   4.728  12.605 -0.0790 -0.0836  3.7581
12182TIP3    H257962   4.827   4.655  12.688  2.8767 -2.0347 -1.2164
12183TIP3   OH257963   0.527   3.915  15.579  0.1842  0.0062  0.3557
12183TIP3    H157964   0.582   3.970  15.634  1.6986  0.3828 -1.4434
12183TIP3    H257965   0.566   3.920  15.492 -2.1930 -0.4199 -0.8365
12184TIP3   OH257966   5.154   4.640  11.908  0.2170 -0.6890  0.1530
12184TIP3    H157967   5.240   4.599  11.919 -0.8199 -3.7749 -1.7702
12184TIP3    H257968   5.096   4.568  11.884 -1.9758  1.8225 -3.0946
12185TIP3   OH257969   4.822   2.747  13.675  0.1904  0.1066 -0.3184
12185TIP3    H157970   4.729   2.734  13.697 -0.7102  2.0089 -2.5326
12185TIP3    H257971   4.851   2.817  13.734 -0.2708  0.5760 -0.6287
12186TIP3   OH257972   5.960   6.392  14.329 -0.1919 -0.0682 -0.0562
12186TIP3    H157973   5.990   6.302  14.346 -0.0974 -0.0073  0.1011
12186TIP3    H257974   6.010   6.419  14.252  0.4162  0.1562  0.4078
12187TIP3   OH257975   4.844   5.060   6.048  0.3480 -0.0365 -0.0179
12187TIP3    H157976   4.769   5.007   6.021 -1.5136  1.6536  1.5231
12187TIP3    H257977   4.851   5.044   6.143  0.6428  1.3484  0.2067
12188TIP3   OH257978   5.577   4.058   0.412 -0.0146 -0.0087 -0.4061
12188TIP3    H157979   5.623   4.093   0.488 -0.8265 -0.0158  0.1040
12188TIP3    H257980   5.646   4.028   0.352  0.6635 -1.9824  1.2443
12189TIP3   OH257981   2.120   5.667  11.228  0.7340 -0.0262 -0.4614
12189TIP3    H157982   2.069   5.611  11.169  0.0181  0.3451 -0.2184
12189TIP3    H257983   2.186   5.708  11.172 -0.0993  0.5240 -1.0747
12190TIP3   OH257984   2.810   3.002  11.787  0.0218  0.4747  0.4413
12190TIP3    H157985   2.784   3.083  11.744  0.0177 -0.0340 -0.5618
12190TIP3    H257986   2.899   2.986  11.757 -0.5357 -0.7172 -0.7068
12191TIP3   OH257987   6.779   3.799  16.894 -0.4123 -0.1787  0.1776
12191TIP3    H157988   6.769   3.891  16.918  0.4110  0.1441 -0.6851
12191TIP3    H257989   6.763   3.796  16.800 -0.8302 -0.9928  0.2575
12192TIP3   OH257990   0.659   1.883   1.384 -0.5502 -0.1403 -0.0909
12192TIP3    H157991   0.705   1.799   1.389  1.1341  0.7851  1.5099
12192TIP3    H257992   0.623   1.896   1.472  1.1326  1.7584  0.3999
12193TIP3   OH257993   5.324   4.922   5.273  0.1958  0.1235 -0.1193
12193TIP3    H157994   5.339   4.872   5.353 -0.3579  0.8393  0.4404
12193TIP3    H257995   5.243   4.886   5.237 -0.0413  0.4024  0.1261
12194TIP3   OH257996   6.594   2.307  15.189  0.2074  0.6844 -0.1329
12194TIP3    H157997   6.672   2.321  15.241  0.7450  0.5812 -0.8938
12194TIP3    H257998   6.555   2.394  15.178  1.9887  1.2815 -2.4663
12195TIP3   OH257999   3.715   4.352   6.054  0.2213 -0.5198  0.8720
12195TIP3    H158000   3.632   4.392   6.029  0.7211  0.9960  1.5256
12195TIP3    H258001   3.718   4.270   6.004 -1.0447  0.0470 -0.1974
12196TIP3   OH258002   6.555   3.407  13.524 -0.0990 -0.2230  0.0233
12196TIP3    H158003   6.569   3.322  13.482  2.8640  0.3194 -0.2922
12196TIP3    H258004   6.552   3.469  13.452  0.4764  0.2297  0.3847
12197TIP3   OH258005   6.441   6.314   4.979 -0.0167 -0.6796 -0.3346
12197TIP3    H158006   6.517   6.256   4.983 -0.1125 -0.8700 -1.1835
12197TIP3    H258007   6.372   6.268   5.026  0.4683 -0.3739  0.7059
12198TIP3   OH258008   2.979   4.608  17.130  0.0908  0.1624 -0.3956
12198TIP3    H158009   2.983   4.578  17.039 -2.4646 -1.7547  0.0141
12198TIP3    H258010   2.928   4.541  17.175 -0.9998  2.3760  1.8886
12199TIP3   OH258011   5.794   2.740   0.697 -0.3857  0.9797  0.2590
12199TIP3    H158012   5.757   2.814   0.650 -2.0306  0.1844  0.2357
12199TIP3    H258013   5.739   2.665   0.672  1.8552 -0.4944 -0.5804
12200TIP3   OH258014   3.516   5.234  12.740  0.7025  0.4963  0.9279
12200TIP3    H158015   3.609   5.254  12.752  0.3448  1.6763  1.9120
12200TIP3    H258016   3.493   5.277  12.658  0.4733  2.3244  1.9094
12201TIP3   OH258017   5.586   5.197   4.455  0.9220  0.5180 -0.6120
12201TIP3    H158018   5.619   5.285   4.476  0.7877  0.7000 -1.1376
12201TIP3    H258019   5.539   5.209   4.372  0.8130 -0.0324 -0.6305
12202TIP3   OH258020   0.455   4.365   2.704 -0.3285  0.0931  0.3195
12202TIP3    H158021   0.430   4.413   2.783  0.2129  0.2146  0.4288
12202TIP3    H258022   0.427   4.275   2.719 -0.3085  0.1358  0.6124
12203TIP3   OH258023   0.376   2.336   1.284  0.3439 -0.2735 -0.4453
12203TIP3    H158024   0.395   2.421   1.245 -0.7655  0.0547 -0.2942
12203TIP3    H258025   0.443   2.325   1.353  1.4329 -0.2305 -1.4615
12204TIP3   OH258026   5.444   6.222   2.072 -0.4792  0.3898 -0.3837
12204TIP3    H158027   5.375   6.285   2.051 -0.3802  0.6792  0.1383
12204TIP3    H258028   5.526   6.272   2.061 -0.4408  0.7151  1.1867
12205TIP3   OH258029   6.349   4.172  15.084 -0.6105 -0.2354 -0.0930
12205TIP3    H158030   6.361   4.235  15.013 -0.8836  0.9600  0.8934
12205TIP3    H258031   6.291   4.105  15.047 -0.2123  0.0009 -1.1986
12206TIP3   OH258032   5.318   3.113   3.167  0.4734 -0.1662 -0.2324
12206TIP3    H158033   5.260   3.108   3.244  0.4976  0.9328 -0.1280
12206TIP3    H258034   5.261   3.145   3.097  0.6361 -0.4323 -0.4860
12207TIP3   OH258035   3.265   1.286  15.183 -0.4944 -0.1489  0.0367
12207TIP3    H158036   3.301   1.374  15.190 -1.5187  0.1797  2.0195
12207TIP3    H258037   3.327   1.238  15.128  0.6888  1.4886 -0.1208
12208TIP3   OH258038   0.736   6.560   0.347 -0.5595  0.3727  0.0673
12208TIP3    H158039   0.779   6.548   0.432  0.4258 -2.2915 -0.7292
12208TIP3    H258040   0.772   6.642   0.314  1.6433 -0.2419  0.7705
12209TIP3   OH258041   1.161   6.447  14.607 -0.0106  0.3638  0.0477
12209TIP3    H158042   1.222   6.380  14.576  0.1818  0.7364 -0.3950
12209TIP3    H258043   1.169   6.445  14.702  1.8110  1.4327 -0.0460
12210TIP3   OH258044   6.403   1.306   6.707  0.6187 -0.3694 -0.6204
12210TIP3    H158045   6.323   1.315   6.758  0.5621 -3.4112  0.0445
12210TIP3    H258046   6.382   1.344   6.622 -1.1145 -0.0009 -0.0594
12211TIP3   OH258047   4.078   2.672  14.250  0.9151  0.1137 -0.2772
12211TIP3    H158048   4.065   2.717  14.167  0.0874  2.8813  1.2353
12211TIP3    H258049   4.078   2.579  14.227  0.9053  0.7814 -3.3571
12212TIP3   OH258050   4.124   3.474  11.073  0.9384  0.0116  0.2000
12212TIP3    H158051   4.105   3.567  11.060 -0.3879 -0.5303 -2.4797
12212TIP3    H258052   4.130   3.463  11.168 -0.2438  2.5689  0.6383
12213TIP3   OH258053   1.346   2.660  11.859  1.0815  0.1362 -0.9639
12213TIP3    H158054   1.411   2.596  11.830  0.7085 -0.4734 -0.4934
12213TIP3    H258055   1.263   2.612  11.857  0.8570  0.4715 -0.1772
12214TIP3   OH258056   1.204   6.068   5.651  0.9564 -0.1120 -0.3626
12214TIP3    H158057   1.117   6.030   5.639 -0.1522  2.7170 -2.2477
12214TIP3    H258058   1.256   6.033   5.579  0.8862 -0.4603 -0.2458
12215TIP3   OH258059   1.061   1.769  12.608  0.0021 -0.0914  0.1650
12215TIP3    H158060   1.052   1.711  12.532 -1.2511  1.3977 -0.8699
12215TIP3    H258061   0.972   1.785  12.637  0.3747  0.7259  0.9140
12216TIP3   OH258062   6.783   1.384  13.915  0.2437 -0.6875  0.2240
12216TIP3    H158063   6.778   1.364  13.822 -0.7388 -0.3472  0.1936
12216TIP3    H258064   6.706   1.341  13.953  0.9811 -1.3641  0.9820
12217TIP3   OH258065   5.942   6.484   2.880  0.2121  0.2313  0.0961
12217TIP3    H158066   5.956   6.548   2.810  0.2096 -0.5719 -0.6408
12217TIP3    H258067   5.891   6.533   2.945 -1.0644  0.5739 -1.1063
12218TIP3   OH258068   0.863   1.255   0.150 -0.0036  0.3006 -0.1920
12218TIP3    H158069   0.937   1.229   0.094  0.7082  0.8591  0.4647
12218TIP3    H258070   0.835   1.174   0.192 -0.7676 -0.1921 -1.5870
12219TIP3   OH258071   6.486   2.947   5.020  0.2306 -0.7352 -0.0722
12219TIP3    H158072   6.576   2.934   5.050  1.0337  1.4858 -1.2756
12219TIP3    H258073   6.463   3.035   5.048 -1.6312 -1.2756  0.2527
12220TIP3   OH258074   6.405   5.792  13.530  0.2820  0.8165  0.3195
12220TIP3    H158075   6.445   5.706  13.545 -1.4080 -0.2793 -1.0998
12220TIP3    H258076   6.461   5.853  13.579  3.1421 -0.6925 -0.8205
12221TIP3   OH258077   3.740   2.319   1.814  0.1335  0.3054 -0.5984
12221TIP3    H158078   3.746   2.253   1.884 -1.4558  0.2040 -0.5237
12221TIP3    H258079   3.752   2.270   1.733 -0.1299  0.0667 -0.4941
12222TIP3   OH258080   5.177   3.060   5.794 -0.2705 -0.2193  0.4881
12222TIP3    H158081   5.168   2.965   5.789  1.8042 -0.4201 -2.9296
12222TIP3    H258082   5.091   3.093   5.767  0.1100 -1.3609 -2.6024
12223TIP3   OH258083   6.460   1.565   2.763  0.9085 -0.1356  0.5654
12223TIP3    H158084   6.507   1.518   2.831  1.1313 -0.4801  0.1738
12223TIP3    H258085   6.385   1.509   2.743  0.5803  0.1921  0.8603
12224TIP3   OH258086   3.156   1.295   2.976 -0.0119 -0.4006 -0.6632
12224TIP3    H158087   3.240   1.326   3.009  0.0962 -0.2860 -1.0398
12224TIP3    H258088   3.111   1.260   3.053  1.0714 -2.0493 -0.7300
12225TIP3   OH258089   2.329   4.581   0.088 -0.2439 -0.3235  0.5562
12225TIP3    H158090   2.256   4.637   0.063  0.3875 -0.0443 -0.7577
12225TIP3    H258091   2.299   4.535   0.166 -0.6060  2.1923  2.0002
12226TIP3   OH258092   2.986   6.054   1.987 -0.3366 -0.1142  0.1380
12226TIP3    H158093   3.039   6.074   1.910 -1.8572  0.9283 -0.6976
12226TIP3    H258094   3.046   6.060   2.061  0.9552 -0.2227 -0.8850
12227TIP3   OH258095   5.965   3.307   1.238  0.4346 -0.2052  0.2232
12227TIP3    H158096   5.913   3.356   1.302  1.5211  1.0859  0.1643
12227TIP3    H258097   6.054   3.340   1.250  0.6578  0.1383 -2.0036
12228TIP3   OH258098   6.311   3.337  11.849  0.0617  0.1244 -0.4511
12228TIP3    H158099   6.224   3.378  11.852 -0.4090 -0.8810  0.1534
12228TIP3    H258100   6.353   3.363  11.931 -1.2457 -2.6625  1.2328
12229TIP3   OH258101   4.191   0.436   3.355  0.3670 -0.0545 -0.2678
12229TIP3    H158102   4.101   0.441   3.324  0.4380  0.1686 -0.4363
12229TIP3    H258103   4.243   0.480   3.288  0.8415 -1.7978 -1.1210
12230TIP3   OH258104   4.561   0.787   5.923 -0.0495 -0.1485 -0.2809
12230TIP3    H158105   4.468   0.764   5.919 -0.3816  1.2742 -1.6577
12230TIP3    H258106   4.575   0.843   5.847  2.1514 -1.0241 -0.5965
12231TIP3   OH258107   4.610   0.931  16.873  0.0610 -0.0680 -0.6570
12231TIP3    H158108   4.521   0.907  16.848  0.1545 -1.1275 -0.0477
12231TIP3    H258109   4.658   0.933  16.790 -0.1939 -1.0544 -0.8475
12232TIP3   OH258110   4.208   6.524  10.849  0.0847 -0.0120 -0.2763
12232TIP3    H158111   4.126   6.478  10.865 -1.2232  1.3500 -2.5909
12232TIP3    H258112   4.205   6.599  10.908  0.0175 -0.3386  0.1402
12233TIP3   OH258113   3.328   5.902  11.790  0.4524  0.3544  0.0987
12233TIP3    H158114   3.324   5.939  11.702  1.0826  0.6622  0.1910
12233TIP3    H258115   3.363   5.973  11.844  0.0004  0.1916  0.6156
12234TIP3   OH258116   5.706   1.017   2.087  0.2076  0.2542 -0.6477
12234TIP3    H158117   5.708   1.080   2.158 -2.7052  0.5571 -0.7436
12234TIP3    H258118   5.675   1.067   2.011 -0.0284 -0.8218 -1.2813
12235TIP3   OH258119   2.852   4.823   3.017 -0.4734  0.5792  0.4343
12235TIP3    H158120   2.802   4.747   2.988 -0.5301  0.6041  0.4666
12235TIP3    H258121   2.908   4.845   2.943  0.9538 -0.6753  1.0902
12236TIP3   OH258122   5.888   5.447  15.004 -0.1202  0.2396  0.0183
12236TIP3    H158123   5.925   5.399  15.078 -1.6270 -0.8893  0.0958
12236TIP3    H258124   5.863   5.532  15.041 -0.3675 -0.1168  0.6808
12237TIP3   OH258125   5.905   0.587  11.175  0.4183  0.2814 -0.1985
12237TIP3    H158126   5.980   0.555  11.125 -0.4859 -0.5188 -1.0834
12237TIP3    H258127   5.859   0.507  11.203 -0.9209  0.7723 -0.9524
12238TIP3   OH258128   2.483   0.923   6.728 -0.0247 -0.4057 -0.0604
12238TIP3    H158129   2.453   0.984   6.662  0.6269  1.5522  1.3630
12238TIP3    H258130   2.571   0.954   6.751  0.3790 -1.9661  0.6189
12239TIP3   OH258131   0.904   5.433  12.383  0.7275 -0.2671  0.2825
12239TIP3    H158132   0.949   5.498  12.330  1.2295 -1.5382 -0.9405
12239TIP3    H258133   0.901   5.355  12.327 -0.1229 -1.1993  1.5605
12240TIP3   OH258134   1.108   0.199  14.948  0.4338 -0.2477 -0.2475
12240TIP3    H158135   1.156   0.212  14.867 -0.1919  1.1306 -0.4202
12240TIP3    H258136   1.029   0.253  14.939  0.8785  0.8222  1.7098
12241TIP3   OH258137   6.538   6.663   1.138  0.2257 -0.0257 -0.0612
12241TIP3    H158138   6.515   6.648   1.046 -1.1537 -0.2814  0.2911
12241TIP3    H258139   6.548   6.575   1.175 -2.7074 -0.1160  0.7999
12242TIP3   OH258140   6.306   1.970   3.601 -0.0527  0.4481  0.6647
12242TIP3    H158141   6.379   1.929   3.555 -1.9171  0.1470 -2.3075
12242TIP3    H258142   6.298   2.057   3.562 -0.9032  0.7227  1.3951
12243TIP3   OH258143   2.871   4.363   1.671 -0.0376 -0.9721 -0.4934
12243TIP3    H158144   2.936   4.391   1.607 -0.4978  0.4750 -0.3620
12243TIP3    H258145   2.860   4.269   1.654  0.7767 -0.8783 -1.6809
12244TIP3   OH258146   1.866   1.823  14.505  0.4258  0.2163 -0.0281
12244TIP3    H158147   1.900   1.909  14.480  0.6077 -0.8034 -3.8691
12244TIP3    H258148   1.775   1.839  14.529  0.3781  1.4697 -0.9532
12245TIP3   OH258149   1.481   1.143  11.465  0.1904 -0.2208  0.7393
12245TIP3    H158150   1.572   1.159  11.444 -0.1811  1.0997  0.0213
12245TIP3    H258151   1.450   1.226  11.502 -0.9959 -0.2881 -0.0604
12246TIP3   OH258152   4.439   5.261   2.434  0.4536 -0.4480 -0.5424
12246TIP3    H158153   4.390   5.185   2.465 -2.2441  0.7158 -1.6547
12246TIP3    H258154   4.449   5.316   2.512 -0.3954 -0.5387 -0.3544
12247TIP3   OH258155   3.424   3.770  15.931 -0.0061  0.2491  0.5158
12247TIP3    H158156   3.356   3.759  15.999 -0.7923  1.3433 -0.0635
12247TIP3    H258157   3.386   3.731  15.853  0.3848  0.1008  0.4014
12248TIP3   OH258158   4.005   1.348   0.647  0.0586 -0.1126 -0.1550
12248TIP3    H158159   4.055   1.284   0.597 -1.1566 -0.3661 -1.1041
12248TIP3    H258160   3.921   1.306   0.663 -0.1963  0.6475  0.5912
12249TIP3   OH258161   2.344   1.804  12.141 -0.1431  0.2869  0.6278
12249TIP3    H158162   2.355   1.765  12.228  0.3765  2.1870  1.4907
12249TIP3    H258163   2.250   1.807  12.127 -0.1922 -1.4659  0.3944
12250TIP3   OH258164   1.615   5.530   2.240 -0.3077  0.2499 -0.1007
12250TIP3    H158165   1.711   5.524   2.238 -0.3047  0.1619 -2.2632
12250TIP3    H258166   1.597   5.620   2.211 -0.8657 -0.2417 -1.3660
12251TIP3   OH258167   0.741   0.743   5.303  0.3361 -0.2570  0.5304
12251TIP3    H158168   0.777   0.832   5.301 -0.5960  0.1234  0.5634
12251TIP3    H258169   0.809   0.691   5.346  0.7481  0.5001  0.8103
12252TIP3   OH258170   0.851   6.666   4.886 -0.2695  0.2412 -0.1562
12252TIP3    H158171   0.907   6.743   4.876  1.6487 -0.9699  0.7588
12252TIP3    H258172   0.869   6.614   4.808 -0.4745  0.0430 -0.0721
12253TIP3   OH258173   4.685   5.945  13.593  0.0227  0.0959 -0.1233
12253TIP3    H158174   4.666   5.866  13.541  1.2051 -0.9344  0.9443
12253TIP3    H258175   4.765   5.981  13.553 -0.2170  0.4669 -0.2751
12254TIP3   OH258176   1.898   4.408   5.878 -0.0548 -0.4330 -0.1383
12254TIP3    H158177   1.877   4.501   5.888 -1.6619 -0.4655 -2.5047
12254TIP3    H258178   1.820   4.370   5.837  0.8454 -2.6984  0.1204
12255TIP3   OH258179   0.661   4.345   1.515  0.4428 -0.2003  0.4711
12255TIP3    H158180   0.647   4.380   1.427 -2.0386 -0.3967  0.7018
12255TIP3    H258181   0.707   4.263   1.502  1.2466  0.3897 -0.5192
12256TIP3   OH258182   1.886   5.188   0.595 -0.2844 -0.3345 -0.0928
12256TIP3    H158183   1.894   5.177   0.690 -0.0011  0.2521 -0.0427
12256TIP3    H258184   1.972   5.219   0.567 -1.1585  2.3168 -0.1109
12257TIP3   OH258185   2.522   2.938  15.864  0.3338 -0.1380  0.1205
12257TIP3    H158186   2.522   2.907  15.955 -1.3089 -0.1256  0.1429
12257TIP3    H258187   2.488   3.027  15.869 -1.2638 -0.6826 -0.6647
12258TIP3   OH258188   4.500   0.993  11.060 -0.5090  0.0766  0.2932
12258TIP3    H158189   4.529   0.922  11.002 -0.5025  0.6329 -0.3890
12258TIP3    H258190   4.407   1.004  11.040 -1.0781 -1.1991  1.9477
12259TIP3   OH258191   1.230   4.085   6.375  0.3171 -0.7695 -0.6849
12259TIP3    H158192   1.233   3.993   6.403  0.4881 -0.7660 -0.6932
12259TIP3    H258193   1.290   4.130   6.434  0.8178 -0.7932 -1.1679
12260TIP3   OH258194   2.695   6.677   3.041  0.2198 -0.2198 -0.1651
12260TIP3    H158195   2.741   6.688   2.958  0.2374 -1.3870 -0.3366
12260TIP3    H258196   2.666   6.586   3.040 -1.7645  0.3579  0.1145
12261TIP3   OH258197   1.638   6.425  13.043 -0.0884  0.1595  0.0506
12261TIP3    H158198   1.674   6.373  13.114 -0.7449 -1.0934 -0.4942
12261TIP3    H258199   1.549   6.391  13.030 -0.2518  0.8690 -0.8584
12262TIP3   OH258200   5.942   1.756  14.636  0.0128  0.3141  0.1714
12262TIP3    H158201   5.927   1.678  14.582  1.2631  0.4498 -0.3992
12262TIP3    H258202   6.037   1.767  14.637 -0.1361  1.8525  0.2043
12263TIP3   OH258203   4.428   3.147   1.185  0.2103 -0.5649 -0.3543
12263TIP3    H158204   4.410   3.102   1.267 -0.7253 -0.2303 -0.3697
12263TIP3    H258205   4.498   3.095   1.145  0.0895 -1.2195  0.2561
12264TIP3   OH258206   6.074   5.473  16.091 -0.0196 -0.3656  0.1051
12264TIP3    H158207   6.121   5.556  16.101 -0.3799  0.2731 -2.7894
12264TIP3    H258208   5.982   5.498  16.088 -0.1351 -0.8690 -0.6669
12265TIP3   OH258209   0.340   4.590   4.258 -0.4452  0.0389 -0.1896
12265TIP3    H158210   0.338   4.506   4.213  0.5791  0.3039 -0.7698
12265TIP3    H258211   0.293   4.575   4.340 -1.1397 -0.8223 -0.7277
12266TIP3   OH258212   5.612   2.448   1.719 -0.1467 -0.2613  0.2972
12266TIP3    H158213   5.696   2.402   1.728 -0.0675  0.1381  1.8140
12266TIP3    H258214   5.546   2.380   1.731 -0.0340 -0.3879  0.1973
12267TIP3   OH258215   3.207   2.492   0.283  0.2950 -0.7898  0.0336
12267TIP3    H158216   3.163   2.464   0.203 -0.7572 -1.1463  0.7131
12267TIP3    H258217   3.282   2.542   0.253  0.2203 -1.3778 -1.1784
12268TIP3   OH258218   4.793   5.375  17.087 -0.2897  0.3986  0.2854
12268TIP3    H158219   4.839   5.384  17.170 -0.8562  1.0566  0.5386
12268TIP3    H258220   4.829   5.444  17.032 -0.2448  0.2586  0.1381
12269TIP3   OH258221   6.448   6.391   1.673 -0.2384  0.0876  0.9223
12269TIP3    H158222   6.510   6.368   1.742  1.0394  1.0161  0.1224
12269TIP3    H258223   6.483   6.352   1.594 -0.5612  0.7774  0.4209
12270TIP3   OH258224   3.129   2.956  16.656 -0.0348  0.3752  0.3910
12270TIP3    H158225   3.152   2.952  16.749  1.6306  1.0207  0.0281
12270TIP3    H258226   3.076   2.878  16.641  0.1863 -0.0548  1.7403
12271TIP3   OH258227   1.525   3.912  16.929  0.0756 -0.0032 -0.4157
12271TIP3    H158228   1.594   3.907  16.995  0.4610  2.5003 -0.5523
12271TIP3    H258229   1.563   3.870  16.852  1.9189  2.1465 -0.7915
12272TIP3   OH258230   0.140   4.715  13.798 -0.9152 -0.1199 -0.7798
12272TIP3    H158231   0.146   4.629  13.756 -1.5550 -0.4809 -0.1489
12272TIP3    H258232   0.191   4.705  13.879  2.9975  1.4665 -2.7820
12273TIP3   OH258233   2.985   2.647   3.046 -0.4310  0.1218 -0.2395
12273TIP3    H158234   3.023   2.721   2.999  1.9999 -1.7701 -1.4504
12273TIP3    H258235   2.896   2.640   3.010  0.4066  0.4750 -2.5713
12274TIP3   OH258236   1.325   1.249   3.955 -0.5300 -0.5282 -0.0434
12274TIP3    H158237   1.410   1.212   3.977 -0.3024  0.0489  0.0777
12274TIP3    H258238   1.271   1.231   4.032 -0.3697 -0.4503  0.0889
12275TIP3   OH258239   0.635   0.938  16.505 -0.3437 -0.0455  0.2293
12275TIP3    H158240   0.713   0.882  16.507 -0.3787 -0.2063 -1.4720
12275TIP3    H258241   0.584   0.906  16.431 -2.1936 -0.1186  1.4710
12276TIP3   OH258242   0.508   5.910   1.659  0.2580 -0.2144 -0.0809
12276TIP3    H158243   0.460   5.964   1.596 -0.0909 -1.0348 -0.5466
12276TIP3    H258244   0.545   5.839   1.605  1.1254 -0.1662  0.4317
12277TIP3   OH258245   4.076   5.108   5.413  0.1840  0.5454  0.4995
12277TIP3    H158246   3.987   5.142   5.410 -0.0135 -0.0470 -1.0150
12277TIP3    H258247   4.116   5.135   5.331 -0.0584 -2.9101 -0.9188
12278TIP3   OH258248   4.495   1.344  13.195  0.0495 -0.0021  0.7678
12278TIP3    H158249   4.538   1.337  13.280  3.0891  0.2447 -0.6063
12278TIP3    H258250   4.567   1.362  13.134 -2.3382  2.8621 -1.4586
12279TIP3   OH258251   4.085   4.736   1.207  0.2680 -0.9212 -0.3946
12279TIP3    H158252   4.051   4.761   1.292  0.7857 -0.1786 -0.3899
12279TIP3    H258253   4.049   4.801   1.147  1.1459 -0.5058 -0.4863
12280TIP3   OH258254   1.904   6.309   4.364 -0.0072  0.2450 -0.4257
12280TIP3    H158255   1.869   6.234   4.317  0.4187 -0.0704 -0.2456
12280TIP3    H258256   1.861   6.385   4.324 -0.2570 -0.0754 -0.7695
12281TIP3   OH258257   5.472   1.141  12.580 -0.6277 -0.0896 -0.5869
12281TIP3    H158258   5.513   1.084  12.515 -0.4376  0.1120 -0.6469
12281TIP3    H258259   5.432   1.081  12.643  0.8865 -0.3331  0.2064
12282TIP3   OH258260   5.447   6.588   4.153  0.0843  0.2038 -0.1283
12282TIP3    H158261   5.411   6.636   4.079  1.4718  1.0617 -0.2738
12282TIP3    H258262   5.529   6.552   4.120  0.8013  0.7358  1.0466
12283TIP3   OH258263   5.934   3.163   4.062  0.3787  0.5648  0.1800
12283TIP3    H158264   5.946   3.123   4.148 -1.2983 -1.6034 -0.4988
12283TIP3    H258265   6.021   3.164   4.023  0.9767  0.5848  1.4639
12284TIP3   OH258266   1.242   1.774   2.762 -0.1271  0.2856 -0.2170
12284TIP3    H158267   1.317   1.738   2.808  0.7243  1.0432 -0.9659
12284TIP3    H258268   1.208   1.842   2.820  0.6588  0.9169 -0.4637
12285TIP3   OH258269   5.684   1.835  12.449  0.0260  0.0125  0.2408
12285TIP3    H158270   5.698   1.928  12.465  0.1272 -0.0408  0.4766
12285TIP3    H258271   5.671   1.828  12.355 -0.2729  0.3033  0.2588
12286TIP3   OH258272   3.847   3.454  16.043 -0.0665 -0.3748 -0.2382
12286TIP3    H158273   3.779   3.387  16.033  0.3578 -1.0569  1.2648
12286TIP3    H258274   3.906   3.439  15.968 -0.2103 -1.4076 -0.1624
12287TIP3   OH258275   2.255   4.658  15.596 -0.1585  0.8535 -0.4259
12287TIP3    H158276   2.283   4.614  15.515  0.8001 -0.7382  0.7099
12287TIP3    H258277   2.168   4.623  15.613  0.7777 -1.0477  0.7109
12288TIP3   OH258278   5.443   1.107  16.409 -0.0118  0.0005  0.3520
12288TIP3    H158279   5.400   1.041  16.355  0.0767 -0.7173  1.1501
12288TIP3    H258280   5.373   1.168  16.432  0.1124  0.8032 -1.2672
12289TIP3   OH258281   5.725   5.950   2.483  0.1279 -0.1986  0.0413
12289TIP3    H158282   5.772   6.026   2.520 -0.0160  0.2905 -0.7737
12289TIP3    H258283   5.685   5.908   2.559  0.2712  0.4991  0.5134
12290TIP3   OH258284   5.901   3.351  12.264 -0.2315 -0.3706 -0.0588
12290TIP3    H158285   5.968   3.373  12.329  0.5834 -1.6807 -0.4205
12290TIP3    H258286   5.819   3.381  12.303  0.4978  0.8907  0.5776
12291TIP3   OH258287   2.437   2.879  12.720 -0.1635  0.7921 -0.5025
12291TIP3    H158288   2.360   2.839  12.678 -0.0555 -1.3885  1.2157
12291TIP3    H258289   2.504   2.880  12.651 -1.4525  2.0962 -1.8228
12292TIP3   OH258290   5.437   1.739   2.023  0.4707  0.4190 -0.0500
12292TIP3    H158291   5.512   1.765   2.076  0.6433  0.6398 -0.3948
12292TIP3    H258292   5.436   1.802   1.951 -1.1421  1.5764  0.9176
12293TIP3   OH258293   1.877   5.975  14.298  0.0745  0.2510  0.2010
12293TIP3    H158294   1.895   5.881  14.290 -0.4155  0.2409 -1.2217
12293TIP3    H258295   1.958   6.017  14.269  0.5583  0.2980  1.5534
12294TIP3   OH258296   1.536   2.567   5.641 -0.5085  0.0820 -0.7821
12294TIP3    H158297   1.501   2.478   5.635 -0.7056  0.2143 -1.7526
12294TIP3    H258298   1.478   2.620   5.585 -1.0802  1.0487  0.6433
12295TIP3   OH258299   6.130   4.592  14.023  0.6595  0.2391 -0.0390
12295TIP3    H158300   6.064   4.622  13.960 -1.7177  0.8102  2.5635
12295TIP3    H258301   6.116   4.497  14.027  0.2220  0.3132  0.2521
12296TIP3   OH258302   0.881   0.275  13.029 -0.0057  0.0818  0.1086
12296TIP3    H158303   0.917   0.207  12.972 -0.5011  0.6263 -0.8790
12296TIP3    H258304   0.894   0.241  13.117  2.0878 -0.1442 -0.2418
12297TIP3   OH258305   3.207   5.031  11.656  0.1020  0.1840  0.4865
12297TIP3    H158306   3.288   5.079  11.643 -0.0779  1.1427  2.5765
12297TIP3    H258307   3.140   5.085  11.613  0.3428  0.1323  0.0373
12298TIP3   OH258308   1.591   0.251   1.425 -0.0874 -0.1234 -0.2444
12298TIP3    H158309   1.522   0.316   1.439 -1.3173 -1.4904  0.3543
12298TIP3    H258310   1.548   0.181   1.375  0.5785 -1.4144  0.9200
12299TIP3   OH258311   5.042   2.487  15.981 -0.3568  0.2574  0.4024
12299TIP3    H158312   4.976   2.513  16.045 -0.6531 -0.0593  0.2283
12299TIP3    H258313   4.993   2.449  15.908  0.0341 -0.3635  0.4494
12300TIP3   OH258314   6.139   1.325  14.868 -0.1490  0.1858 -0.4210
12300TIP3    H158315   6.137   1.280  14.784 -1.0230 -1.5888  0.4864
12300TIP3    H258316   6.231   1.349  14.880  0.4449 -1.6477 -0.8666
12301TIP3   OH258317   5.521   0.903   1.310  0.7993  0.0306  0.1903
12301TIP3    H158318   5.465   0.980   1.318  0.8923 -0.0147  1.4001
12301TIP3    H258319   5.566   0.915   1.226 -1.5280 -0.2864 -1.1740
12302TIP3   OH258320   4.432   3.222  17.173 -0.3159 -0.6146 -0.7042
12302TIP3    H158321   4.340   3.210  17.149 -0.9831  0.2322  1.2409
12302TIP3    H258322   4.429   3.278  17.250  1.9160  0.3147 -1.2318
12303TIP3   OH258323   2.206   1.523  14.864 -0.0893  0.1505  0.3942
12303TIP3    H158324   2.250   1.559  14.787 -0.6452  0.4899  0.2244
12303TIP3    H258325   2.131   1.582  14.877 -0.2144 -0.1329  0.9614
12304TIP3   OH258326   5.720   2.960   5.163 -0.2073  0.4511 -0.7553
12304TIP3    H158327   5.786   3.019   5.199 -0.3761  0.6013 -0.6891
12304TIP3    H258328   5.765   2.912   5.094  1.1993 -2.3545  1.8263
12305TIP3   OH258329   3.597   1.427  14.942 -0.4250 -0.0022  0.0223
12305TIP3    H158330   3.689   1.432  14.966 -0.6713 -1.6614  1.5595
12305TIP3    H258331   3.579   1.510  14.898  2.2825 -0.4352 -2.2210
12306TIP3   OH258332   5.921   4.870   1.058  0.1985 -0.3818  0.0892
12306TIP3    H158333   5.882   4.805   0.999 -0.3524  0.5358 -0.5666
12306TIP3    H258334   5.983   4.918   1.004  0.9166 -0.6123  0.6812
12307TIP3   OH258335   2.177   1.711  12.891 -0.7359 -0.0261  0.5423
12307TIP3    H158336   2.146   1.737  12.977  3.4256  1.8920  1.7401
12307TIP3    H258337   2.190   1.616  12.898 -1.9695 -0.1583  1.3874
12308TIP3   OH258338   1.121   1.318  13.411 -0.4712  0.4956  0.0821
12308TIP3    H158339   1.059   1.345  13.478 -0.3391  0.6859  0.1277
12308TIP3    H258340   1.072   1.257  13.356 -1.2325  1.9122 -0.8815
12309TIP3   OH258341   1.810   5.147  13.302  0.2370  0.1186 -0.0221
12309TIP3    H158342   1.880   5.091  13.336  1.1822  1.5767  0.5566
12309TIP3    H258343   1.845   5.182  13.220 -0.4744 -0.3666 -0.5431
12310TIP3   OH258344   4.211   1.963  15.131 -0.3007 -0.0165  0.3307
12310TIP3    H158345   4.250   2.014  15.061 -1.1345  0.5436  0.2572
12310TIP3    H258346   4.245   1.874  15.118 -1.7375 -0.3403 -1.8399
12311TIP3   OH258347   3.731   4.361   3.079 -0.3740  0.2760 -0.3134
12311TIP3    H158348   3.755   4.451   3.101  0.4724 -0.0287  0.0634
12311TIP3    H258349   3.800   4.332   3.019  0.5755 -0.7962  1.2151
12312TIP3   OH258350   2.487   4.325  14.136  0.2772 -0.0351 -0.0558
12312TIP3    H158351   2.513   4.235  14.117  0.6682  0.1523 -0.4215
12312TIP3    H258352   2.455   4.359  14.053  2.0877  0.8169 -0.4523
12313TIP3   OH258353   1.252   5.630  17.150  0.2401  0.3043  0.0570
12313TIP3    H158354   1.324   5.692  17.137  1.1805 -0.6265  0.6257
12313TIP3    H258355   1.223   5.609  17.061 -0.6501  2.1395 -0.1327
12314TIP3   OH258356   3.586   6.105  16.073  0.2288  0.1164 -0.2127
12314TIP3    H158357   3.525   6.134  16.141 -0.7105 -1.1097 -0.4828
12314TIP3    H258358   3.555   6.148  15.993 -0.9331 -1.2383 -0.5414
12315TIP3   OH258359   6.720   5.104  13.316  0.1509  0.0823 -0.0636
12315TIP3    H158360   6.762   5.029  13.360 -0.5532  0.0132  0.5112
12315TIP3    H258361   6.632   5.073  13.295  0.3972  0.2077 -1.3139
12316TIP3   OH258362   1.700   5.122  13.730  0.1904  0.2094 -0.0093
12316TIP3    H158363   1.614   5.139  13.693  1.1313  0.8951 -2.0473
12316TIP3    H258364   1.724   5.035  13.698  0.2772  0.0408  0.5077
12317TIP3   OH258365   4.968   5.955   3.094  0.2577 -0.1037  0.4235
12317TIP3    H158366   4.972   5.912   3.009  0.2504  1.3968 -0.3577
12317TIP3    H258367   4.897   5.910   3.141  1.1385 -1.8378  0.1767
12318TIP3   OH258368   3.315   3.663  12.387  0.5408 -0.2353 -0.2462
12318TIP3    H158369   3.279   3.667  12.476  0.0505  0.1941 -0.4567
12318TIP3    H258370   3.254   3.607  12.340 -0.0038  0.6995 -0.6703
12319TIP3   OH258371   4.873   6.671  15.306 -0.0896 -0.0353  0.4713
12319TIP3    H158372   4.940   6.658  15.239  0.9462  0.9707  1.2716
12319TIP3    H258373   4.894   6.607  15.374  0.0711  0.2850  0.7259
12320TIP3   OH258374   4.934   2.697  12.759  0.0931  0.3549 -0.0316
12320TIP3    H158375   4.926   2.790  12.781 -0.0459  0.0702  1.1591
12320TIP3    H258376   4.939   2.652  12.843 -1.0675 -0.8352 -0.5563
12321TIP3   OH258377   6.545   3.994  12.140 -0.1412 -0.1992 -0.2367
12321TIP3    H158378   6.599   4.069  12.114  0.8190 -0.7532  0.1087
12321TIP3    H258379   6.574   3.974  12.229 -1.4874 -0.0192  0.2649
12322TIP3   OH258380   5.547   5.496  15.808  0.0087  0.1534  0.1149
12322TIP3    H158381   5.597   5.574  15.783 -0.6716  0.7444  0.5463
12322TIP3    H258382   5.596   5.458  15.880  1.6272 -1.1887 -1.6037
12323TIP3   OH258383   1.151   2.091  11.846  0.1431 -0.4708 -0.0486
12323TIP3    H158384   1.233   2.136  11.866  0.4597  0.1217 -2.3274
12323TIP3    H258385   1.175   2.023  11.783 -0.8692 -1.5206  0.6534
12324TIP3   OH258386   6.273   3.408  15.270 -0.4347 -0.2778  0.5269
12324TIP3    H158387   6.194   3.354  15.273  0.9023 -2.3773  0.4639
12324TIP3    H258388   6.330   3.362  15.208  0.3674  1.9178 -0.4714
12325TIP3   OH258389   4.559   4.015   5.641  0.2654  0.4480 -0.0641
12325TIP3    H158390   4.528   4.053   5.724  0.1276 -0.5846  0.3648
12325TIP3    H258391   4.496   4.046   5.576 -1.2759 -1.0046  0.6750
12326TIP3   OH258392   3.535   0.767  11.254 -0.3673  0.1262  0.0930
12326TIP3    H158393   3.606   0.754  11.191 -0.5434 -2.6241  0.3254
12326TIP3    H258394   3.549   0.855  11.289  1.7908  0.3838 -1.2315
12327TIP3   OH258395   2.017   0.356  11.651 -0.5991  0.0985 -0.0375
12327TIP3    H158396   1.942   0.316  11.694 -0.4119  0.6822  0.8429
12327TIP3    H258397   2.084   0.289  11.652 -1.2559 -0.6272 -1.3201
12328TIP3   OH258398   2.915   4.663  12.953 -0.3346  0.1508 -0.1589
12328TIP3    H158399   2.876   4.575  12.957  0.0497 -0.0115  0.1600
12328TIP3    H258400   2.970   4.660  12.875  1.8532 -0.8463  1.2946
12329TIP3   OH258401   1.742   4.184   3.691  0.2075 -0.4473  0.5553
12329TIP3    H158402   1.748   4.139   3.775 -0.7754 -0.7344  0.4811
12329TIP3    H258403   1.671   4.247   3.703 -0.6638 -1.2257 -0.3826
12330TIP3   OH258404   0.607   2.805   3.959 -0.2968  0.2371  0.1521
12330TIP3    H158405   0.668   2.842   3.895 -1.1701  0.8974 -0.3217
12330TIP3    H258406   0.636   2.714   3.969 -0.9048 -0.2890 -2.1978
12331TIP3   OH258407   0.961   0.075  12.473 -0.1800 -0.2338 -1.1135
12331TIP3    H158408   0.868   0.082  12.454 -0.2885 -1.4184 -1.1061
12331TIP3    H258409   0.989  -0.006  12.430  1.2119  0.9222 -2.5013
12332TIP3   OH258410   2.913   5.171  12.718 -0.5163 -0.8599 -0.1198
12332TIP3    H158411   2.923   5.116  12.640 -0.0976 -0.1126 -0.6073
12332TIP3    H258412   2.974   5.243  12.704  0.6602 -1.4620  1.5857
12333TIP3   OH258413   6.247   0.742   1.343  0.0530  0.0643 -0.0889
12333TIP3    H158414   6.163   0.697   1.355  0.5766 -1.1864 -0.8448
12333TIP3    H258415   6.258   0.747   1.248  1.3420 -0.8292 -0.0187
12334TIP3   OH258416   3.428   3.667   2.067  0.2808  0.9610 -0.0736
12334TIP3    H158417   3.351   3.706   2.109 -0.3031  1.8387 -1.8551
12334TIP3    H258418   3.432   3.709   1.981  0.9590 -1.3135 -1.2196
12335TIP3   OH258419   6.296   5.377   5.285  0.6736  0.5596 -0.2202
12335TIP3    H158420   6.240   5.394   5.361 -0.0279  0.7139 -0.7642
12335TIP3    H258421   6.236   5.349   5.216  1.4280 -0.6332 -0.4137
12336TIP3   OH258422   4.833   1.943   3.515 -0.2984 -0.0632  0.1228
12336TIP3    H158423   4.755   1.902   3.478 -0.1735  0.0916 -0.3208
12336TIP3    H258424   4.874   1.988   3.441 -0.4264  0.8484  0.5958
12337TIP3   OH258425   4.035   4.774  13.672  0.0719  0.4026  0.1530
12337TIP3    H158426   4.036   4.861  13.632 -0.1898  0.5558  0.4729
12337TIP3    H258427   3.999   4.789  13.760  0.8052  0.1017  0.5155
12338TIP3   OH258428   6.423   6.410  13.006  0.4365  0.8029  0.2011
12338TIP3    H158429   6.342   6.461  13.007  0.9665  1.6719  0.9250
12338TIP3    H258430   6.435   6.382  13.096  0.4482 -0.1497 -0.0902
12339TIP3   OH258431   0.981   1.740   2.711  0.2574  0.0810 -0.1198
12339TIP3    H158432   1.068   1.771   2.688  0.4775 -0.9024 -0.6286
12339TIP3    H258433   0.995   1.677   2.782 -0.0613  0.0852 -0.0503
12340TIP3   OH258434   4.590   0.543   5.150  0.2784 -0.5341  0.1999
12340TIP3    H158435   4.684   0.525   5.152  0.9996  2.5649 -0.9487
12340TIP3    H258436   4.564   0.530   5.059 -0.4018 -1.1829  0.4692
12341TIP3   OH258437   5.258   5.031  11.973 -0.3923 -0.1413  0.0941
12341TIP3    H158438   5.212   4.976  11.909  0.6541 -0.1800 -0.6656
12341TIP3    H258439   5.337   4.981  11.994  0.7019  1.1419 -0.7900
12342TIP3   OH258440   3.296   3.007   6.451 -0.0481  0.1063 -0.5369
12342TIP3    H158441   3.385   3.013   6.488 -0.1480  0.7924 -0.3928
12342TIP3    H258442   3.301   2.936   6.387  0.1904 -0.9645  0.6327
12343TIP3   OH258443   3.579   3.453   3.892  0.0515 -1.0495  0.5115
12343TIP3    H158444   3.500   3.430   3.941 -1.5973  1.6788 -0.6064
12343TIP3    H258445   3.558   3.433   3.801 -1.3302  3.6062 -0.4738
12344TIP3   OH258446   0.829   5.021   3.993 -0.0226  0.4972 -0.1140
12344TIP3    H158447   0.920   5.009   4.021  1.0070  1.9057 -2.5500
12344TIP3    H258448   0.788   5.067   4.066  1.1890 -0.1903  1.0474
12345TIP3   OH258449   3.029   3.867   6.363 -0.0580 -0.6117  0.4413
12345TIP3    H158450   3.063   3.900   6.447 -0.5860 -0.9621  0.7987
12345TIP3    H258451   3.072   3.783   6.351 -1.4501 -1.4852  1.3468
12346TIP3   OH258452   3.828   2.413   6.010 -0.4476  0.4530 -0.2134
12346TIP3    H158453   3.813   2.347   5.942 -3.2557  1.0830 -0.3478
12346TIP3    H258454   3.821   2.497   5.964 -1.4494  0.8696  0.6542
12347TIP3   OH258455   3.287   1.982   0.142  0.6297 -0.3048 -0.3441
12347TIP3    H158456   3.263   1.890   0.134 -0.8726  0.0537 -0.2886
12347TIP3    H258457   3.382   1.982   0.155  0.5086 -1.8885  0.6664
12348TIP3   OH258458   6.784   4.067  16.899 -0.2925 -0.2433  0.3040
12348TIP3    H158459   6.769   4.133  16.831 -0.6745 -0.8888 -0.2526
12348TIP3    H258460   6.772   4.114  16.981  3.8535  1.5483  0.1455
12349TIP3   OH258461   2.041   2.056  15.552  0.4576  0.4811 -0.0524
12349TIP3    H158462   1.997   2.038  15.635 -0.8749  2.3710 -0.2875
12349TIP3    H258463   1.974   2.041  15.485  1.2895 -0.2463 -0.7458
12350TIP3   OH258464   6.757   6.461  16.009  0.3946 -0.2432  0.6519
12350TIP3    H158465   6.832   6.403  16.000  0.7509  0.2005  0.7364
12350TIP3    H258466   6.714   6.457  15.923 -0.9599 -2.4727  1.3626
12351TIP3   OH258467   4.919   2.104  15.667  0.0887 -0.1311  0.2142
12351TIP3    H158468   4.857   2.146  15.607  1.6133 -0.1233 -1.4410
12351TIP3    H258469   4.887   2.014  15.675  0.2961 -0.3741 -1.3182
12352TIP3   OH258470   0.678   0.282  15.169  0.2239  0.0816 -0.0931
12352TIP3    H158471   0.651   0.251  15.256 -0.0421  2.6752  0.8272
12352TIP3    H258472   0.704   0.202  15.123 -2.2968 -1.7538  1.3696
12353TIP3   OH258473   1.946   0.062   5.295  0.5922 -0.2212  0.1877
12353TIP3    H158474   1.992   0.015   5.225  1.8788  1.5447 -0.2242
12353TIP3    H258475   1.869   0.099   5.253  1.5954  1.2110 -0.4623
12354TIP3   OH258476   6.386   3.244   5.189 -0.4743 -0.0655 -0.4600
12354TIP3    H158477   6.359   3.200   5.269  0.7899  0.9217  0.5560
12354TIP3    H258478   6.305   3.278   5.151 -1.1449 -0.9999  0.0997
12355TIP3   OH258479   3.250   3.551   5.348 -0.2939  0.0575  0.0601
12355TIP3    H158480   3.154   3.552   5.347 -0.3189  2.2513 -0.1280
12355TIP3    H258481   3.274   3.624   5.404  1.2838 -0.2174 -0.2128
12356TIP3   OH258482   1.692   4.820   0.246 -0.0585  0.1533  0.2617
12356TIP3    H158483   1.691   4.733   0.206 -1.0487  0.1046  0.3554
12356TIP3    H258484   1.727   4.878   0.179  1.0560 -0.3916  0.3615
12357TIP3   OH258485   5.863   6.000  12.452 -0.6180  0.5351  0.7121
12357TIP3    H158486   5.821   6.046  12.524  0.1060  1.4739  0.5490
12357TIP3    H258487   5.871   5.909  12.482 -3.9036 -0.0365  0.2717
12358TIP3   OH258488   5.125   6.580  11.350  0.0368 -0.0237  0.0142
12358TIP3    H158489   5.130   6.596  11.256 -0.8775 -1.0450 -0.2306
12358TIP3    H258490   5.177   6.650  11.390 -0.0958  0.7917 -1.2102
12359TIP3   OH258491   2.084   3.995   5.730  0.2308  0.1726  0.3095
12359TIP3    H158492   2.047   4.045   5.803  0.9639  1.4049 -0.1161
12359TIP3    H258493   2.173   3.975   5.758  0.4780  0.5576 -0.1919
12360TIP3   OH258494   2.118   3.416  11.008  0.0716  0.0184 -0.3111
12360TIP3    H158495   2.149   3.470  11.081  0.9474 -0.3271 -0.4162
12360TIP3    H258496   2.063   3.349  11.049 -0.0463  0.2756 -0.0495
12361TIP3   OH258497   3.117   4.006   1.772 -0.4576  0.8816 -0.4820
12361TIP3    H158498   3.185   3.995   1.706 -0.7665  1.0675 -0.8409
12361TIP3    H258499   3.121   3.927   1.825 -1.9357 -0.5571 -2.3350
12362TIP3   OH258500   6.564   3.599  13.270 -0.3870  0.8215 -0.6048
12362TIP3    H158501   6.523   3.685  13.257  1.0605  1.5799 -0.3630
12362TIP3    H258502   6.529   3.544  13.200 -2.5324  1.1314  0.1505
12363TIP3   OH258503   1.318   4.260  16.238 -0.4839 -0.3876  0.6504
12363TIP3    H158504   1.359   4.235  16.321  0.5742 -0.6132  0.0716
12363TIP3    H258505   1.319   4.180  16.186  2.3024  0.5628 -0.9581
12364TIP3   OH258506   2.671   2.604   5.547  0.0499  0.6934  0.0906
12364TIP3    H158507   2.674   2.527   5.491  0.8035  0.7609  0.0279
12364TIP3    H258508   2.609   2.581   5.616 -0.4016  0.3685 -0.4076
12365TIP3   OH258509   1.192   4.353  11.664 -0.1986  0.0838 -0.1628
12365TIP3    H158510   1.106   4.337  11.702  0.2711 -0.2525  0.7875
12365TIP3    H258511   1.245   4.278  11.692  0.3885  0.2502 -0.7916
12366TIP3   OH258512   1.460   1.668   0.948 -0.2514 -0.1883 -0.2101
12366TIP3    H158513   1.525   1.704   1.008 -0.4042 -1.1051  0.5379
12366TIP3    H258514   1.481   1.706   0.863  0.9987 -0.1574  0.1004
12367TIP3   OH258515   5.780   4.813   5.546 -0.0026  0.8718 -0.6163
12367TIP3    H158516   5.770   4.809   5.641 -1.0226 -0.7054 -0.7481
12367TIP3    H258517   5.703   4.861   5.516 -0.7531 -0.3728 -0.7562
12368TIP3   OH258518   1.280   2.662  14.305  0.1954 -0.1897 -0.1066
12368TIP3    H158519   1.211   2.652  14.240 -0.1698  1.3436  0.0123
12368TIP3    H258520   1.360   2.671  14.253  0.1187 -0.5776 -0.2923
12369TIP3   OH258521   3.753   1.220   1.447  0.0478  0.2252  0.0117
12369TIP3    H158522   3.824   1.222   1.512  0.1159 -0.3370 -0.0458
12369TIP3    H258523   3.763   1.303   1.399 -0.8637  1.3244  1.6341
12370TIP3   OH258524   6.252   0.530   4.840 -0.2341  0.5269  0.6523
12370TIP3    H158525   6.314   0.457   4.838 -0.4974  0.3115  0.1318
12370TIP3    H258526   6.264   0.569   4.926 -0.8613 -0.7994  1.3850
12371TIP3   OH258527   6.172   0.132  11.000 -0.5724 -0.7246  0.5419
12371TIP3    H158528   6.095   0.179  10.969 -0.7593 -0.9838  0.6177
12371TIP3    H258529   6.244   0.166  10.946 -0.7794 -0.6632  0.3040
12372TIP3   OH258530   0.985   3.727   2.931  0.3424  0.7452  0.1294
12372TIP3    H158531   1.073   3.737   2.967  0.2304  0.3512  0.5236
12372TIP3    H258532   0.929   3.722   3.008  0.0678  0.1717 -0.1078
12373TIP3   OH258533   4.250   2.876  15.976 -0.1936  0.0241 -0.0877
12373TIP3    H158534   4.286   2.907  16.059 -1.7350  1.7427  0.0129
12373TIP3    H258535   4.209   2.953  15.937 -4.0189 -1.7210 -0.0040
12374TIP3   OH258536   0.223   6.035  10.944  0.0428 -0.3835  0.2762
12374TIP3    H158537   0.199   5.954  10.989 -0.5785 -0.4938 -0.2376
12374TIP3    H258538   0.241   6.007  10.854 -0.9926  0.1573 -0.1168
12375TIP3   OH258539   1.841   1.842  13.510  0.0419 -0.2954 -0.7837
12375TIP3    H158540   1.822   1.915  13.451 -1.1867 -1.0115 -1.3133
12375TIP3    H258541   1.890   1.881  13.582 -2.1990  1.4346 -0.0869
12376TIP3   OH258542   3.967   5.034   6.408  0.4143 -0.0950  0.4299
12376TIP3    H158543   3.988   5.084   6.487 -1.3301  2.5333 -0.5924
12376TIP3    H258544   3.877   5.059   6.388  0.9691 -0.1502 -2.6858
12377TIP3   OH258545   4.169   0.824   0.477  0.7683  0.1602 -0.0199
12377TIP3    H158546   4.159   0.798   0.386  0.2005  1.5828 -0.3906
12377TIP3    H258547   4.262   0.812   0.496  1.0368  0.5710 -1.0246
12378TIP3   OH258548   1.643   5.385  13.351 -0.2760 -0.1232  0.9028
12378TIP3    H158549   1.693   5.311  13.316  0.3901  0.9451 -0.4946
12378TIP3    H258550   1.664   5.385  13.445 -0.7131 -1.9962  1.0486
12379TIP3   OH258551   6.412   3.003  13.519  0.1353  0.0001  0.4267
12379TIP3    H158552   6.501   2.969  13.516  0.3295  0.3873  1.4536
12379TIP3    H258553   6.384   2.990  13.610  0.8005  3.9167  1.3696
12380TIP3   OH258554   3.889   5.086   2.026  0.2190 -0.3948 -0.9451
12380TIP3    H158555   3.864   4.995   2.010  0.5106 -0.6840  0.1730
12380TIP3    H258556   3.983   5.089   2.011  0.3471 -0.4704 -0.1809
12381TIP3   OH258557   1.605   4.160   0.765 -1.0277 -0.1923 -0.1821
12381TIP3    H158558   1.543   4.230   0.785 -1.9722 -1.3891  1.3284
12381TIP3    H258559   1.691   4.200   0.771 -1.4752  0.5256  2.1844
12382TIP3   OH258560   0.509   4.429  12.739 -0.3920 -0.3284 -0.7942
12382TIP3    H158561   0.566   4.355  12.719  2.0720  0.4687  2.4754
12382TIP3    H258562   0.435   4.390  12.785  0.1206 -0.9146 -0.4472
12383TIP3   OH258563   6.264   0.735  11.305 -0.0862 -0.3547 -0.3622
12383TIP3    H158564   6.332   0.761  11.243 -0.1814 -0.1479 -0.3791
12383TIP3    H258565   6.212   0.814  11.319 -0.1128 -0.4209 -0.0799
12384TIP3   OH258566   3.374   0.482   1.801  0.0234 -0.0082  1.0059
12384TIP3    H158567   3.432   0.509   1.872  1.0810 -1.1236  0.5861
12384TIP3    H258568   3.424   0.419   1.750 -0.9191  0.3301 -0.4211
12385TIP3   OH258569   4.823   3.601  13.917 -0.2034 -0.2577  0.6722
12385TIP3    H158570   4.903   3.644  13.886  0.5757 -0.6842  1.9694
12385TIP3    H258571   4.770   3.672  13.954  0.2828 -0.1594  1.1969
12386TIP3   OH258572   4.064   6.363  15.249 -0.1996 -0.1521  0.0828
12386TIP3    H158573   4.124   6.289  15.241 -0.4890 -0.2058 -2.2455
12386TIP3    H258574   4.022   6.370  15.163 -0.5391  2.4232  0.3647
12387TIP3   OH258575   3.436   1.765  10.247 -0.7000 -0.6417 -0.5054
12387TIP3    H158576   3.371   1.711  10.290 -2.1134  0.8803 -0.6184
12387TIP3    H258577   3.386   1.839  10.211  0.9527  0.0799 -1.4560
12388TIP3   OH258578   5.805   4.938   4.309 -0.4609  0.2591 -0.5467
12388TIP3    H158579   5.853   4.902   4.384 -0.6891 -1.6271 -1.2643
12388TIP3    H258580   5.713   4.919   4.328 -0.5825  0.4003 -0.9891
12389TIP3   OH258581   5.282   4.054   5.743 -0.1227  0.3140 -0.1883
12389TIP3    H158582   5.261   4.101   5.824 -1.3254  0.8757 -0.7993
12389TIP3    H258583   5.279   3.962   5.767  1.9573  0.4787  0.9523
12390TIP3   OH258584   2.835   3.525  16.621 -0.2573  0.4370  0.1960
12390TIP3    H158585   2.766   3.506  16.685 -0.1784 -1.6963 -0.2769
12390TIP3    H258586   2.809   3.477  16.543  1.5515 -0.0715 -0.1350
12391TIP3   OH258587   3.654   5.750  15.811  0.6171 -0.3887 -0.0672
12391TIP3    H158588   3.713   5.824  15.823 -0.4503  0.2824  1.3396
12391TIP3    H258589   3.697   5.677  15.856  1.4654 -0.5502 -1.0922
12392TIP3   OH258590   4.690   6.102   6.396  0.6097 -0.9143  0.0109
12392TIP3    H158591   4.780   6.070   6.394  0.6095 -0.8816 -0.9679
12392TIP3    H258592   4.638   6.027   6.368  0.4064 -0.6971 -0.1934
12393TIP3   OH258593   4.104   6.219   4.680  0.2064  0.1718 -0.0289
12393TIP3    H158594   4.146   6.249   4.599 -1.3107  1.3744 -0.4108
12393TIP3    H258595   4.171   6.230   4.747  1.0383  0.4849 -0.8798
12394TIP3   OH258596   2.980   5.680  13.298  0.5976  0.1381  0.1322
12394TIP3    H158597   2.930   5.707  13.221  1.1871 -1.4504 -0.8631
12394TIP3    H258598   2.930   5.713  13.372 -0.7652  0.4524 -0.8855
12395TIP3   OH258599   0.323   5.668   3.070  0.2319 -0.1435 -0.0656
12395TIP3    H158600   0.365   5.749   3.098  0.4614 -0.4938  0.6435
12395TIP3    H258601   0.275   5.691   2.990  0.6567  0.5777 -0.1154
12396TIP3   OH258602   3.609   1.774  12.816  0.3845 -0.4396 -0.1175
12396TIP3    H158603   3.606   1.807  12.906 -1.5322  0.5319 -0.4902
12396TIP3    H258604   3.694   1.802  12.783  0.3766  0.7488  0.8293
12397TIP3   OH258605   3.566   4.675   1.041  0.1015  0.1402 -0.1840
12397TIP3    H158606   3.638   4.693   0.979  1.4470 -0.2207  1.2079
12397TIP3    H258607   3.576   4.742   1.108 -2.7421  1.9534 -1.4001
12398TIP3   OH258608   0.027   5.279   1.133 -0.1874 -0.6360 -0.4982
12398TIP3    H158609  -0.063   5.246   1.140 -0.1197 -1.2349 -2.1372
12398TIP3    H258610   0.077   5.206   1.098  1.0718 -0.4600  0.8370
12399TIP3   OH258611   3.496   6.719   3.363  0.3792  0.2035  0.2181
12399TIP3    H158612   3.451   6.702   3.446 -0.4573  2.0045  0.1720
12399TIP3    H258613   3.490   6.814   3.351 -1.6420 -0.1932 -3.0900
12400TIP3   OH258614   0.891   3.104   4.542 -0.3855  0.0299 -0.4272
12400TIP3    H158615   0.801   3.131   4.526  0.1768  1.5644 -1.2260
12400TIP3    H258616   0.896   3.092   4.637 -1.1431  1.0776 -0.2387
12401TIP3   OH258617   6.395   4.096   5.863 -0.1814 -0.2113  0.0396
12401TIP3    H158618   6.311   4.109   5.818  0.5107 -0.0666 -1.2329
12401TIP3    H258619   6.418   4.005   5.846  0.4430  0.0484 -0.5288
12402TIP3   OH258620   0.867   4.437   3.450  0.0056 -0.0654  0.6047
12402TIP3    H158621   0.936   4.482   3.401 -0.5493 -0.1799 -0.3111
12402TIP3    H258622   0.851   4.494   3.526 -0.1890  0.9423 -0.1605
12403TIP3   OH258623   4.533   0.311   6.728  0.7648  0.4854  0.2892
12403TIP3    H158624   4.600   0.318   6.796  0.1569 -2.2043  1.2914
12403TIP3    H258625   4.510   0.218   6.726 -1.9428  1.0771 -0.9974
12404TIP3   OH258626   5.747   2.887   0.356  0.6397  0.1879  0.4811
12404TIP3    H158627   5.716   2.818   0.297 -0.0130 -0.7190  1.8381
12404TIP3    H258628   5.834   2.858   0.384  1.4269  1.1615 -0.8436
12405TIP3   OH258629   6.293   0.798  14.341 -0.2511 -0.4345 -0.0983
12405TIP3    H158630   6.273   0.818  14.249  0.3128 -1.4604 -0.4601
12405TIP3    H258631   6.254   0.870  14.390 -0.1385  0.3921 -1.1782
12406TIP3   OH258632   2.424   3.368  15.141 -0.4629  0.0658 -0.4087
12406TIP3    H158633   2.341   3.412  15.158  0.1782  1.8887 -1.7226
12406TIP3    H258634   2.403   3.275  15.145 -2.4162  0.4768 -0.0936
12407TIP3   OH258635   2.788   4.288   0.409  0.0214 -0.2984 -0.1561
12407TIP3    H158636   2.833   4.227   0.468  0.0078  0.5022  0.7175
12407TIP3    H258637   2.709   4.242   0.382  0.6339 -1.1594 -0.5462
12408TIP3   OH258638   5.677   0.896  10.769 -0.0274 -0.3123  0.4730
12408TIP3    H158639   5.683   0.832  10.840 -0.4532 -0.2213  0.5921
12408TIP3    H258640   5.724   0.856  10.696 -0.5501 -0.8876  0.4519
12409TIP3   OH258641   6.675   2.872   6.345  0.4549 -0.3335  0.2105
12409TIP3    H158642   6.584   2.895   6.329  0.4256 -0.6313 -0.0732
12409TIP3    H258643   6.676   2.776   6.344  0.8205 -0.3302 -0.0948
12410TIP3   OH258644   1.204   5.981  16.396 -0.1707  0.3460 -0.0313
12410TIP3    H158645   1.140   5.921  16.358 -0.2850  0.4101  0.0581
12410TIP3    H258646   1.178   6.067  16.364 -1.4968  0.6772  1.7891
12411TIP3   OH258647   6.504   0.381  12.664  0.2685  0.6211 -0.4788
12411TIP3    H158648   6.532   0.375  12.573  2.1619  1.4510  0.0107
12411TIP3    H258649   6.460   0.298  12.681  0.7940  0.0352 -1.8521
12412TIP3   OH258650   6.158   3.342   0.966  0.2440  0.0025 -0.3218
12412TIP3    H158651   6.221   3.384   1.025  0.0612 -1.3495  0.9069
12412TIP3    H258652   6.088   3.406   0.957  0.8099  0.6869  0.0288
12413TIP3   OH258653   5.559   4.085  15.944  0.3894  0.1936 -1.0929
12413TIP3    H158654   5.481   4.117  15.988  0.2483  1.8218 -2.4061
12413TIP3    H258655   5.605   4.033  16.010 -0.4792  1.3963  0.5388
12414TIP3   OH258656   5.852   0.485  15.150 -0.1167 -0.0474 -0.2137
12414TIP3    H158657   5.945   0.463  15.138  0.1888  1.2625 -0.4764
12414TIP3    H258658   5.832   0.454  15.238  1.1111  1.2693  0.5804
12415TIP3   OH258659   0.629   1.230  14.974 -0.2824  0.0663 -0.4636
12415TIP3    H158660   0.704   1.193  15.022  0.8520  0.2223 -2.0549
12415TIP3    H258661   0.575   1.270  15.042  0.1561 -1.5796  0.9423
12416TIP3   OH258662   2.139   5.635  12.829 -0.5162 -0.2038 -0.2458
12416TIP3    H158663   2.229   5.667  12.834  0.1376 -2.0588  1.6784
12416TIP3    H258664   2.095   5.674  12.904 -1.3914  0.7675 -1.2285
12417TIP3   OH258665   0.113   5.735  12.904 -0.2141  0.6397  0.1539
12417TIP3    H158666   0.144   5.660  12.955  0.0416 -0.8237 -2.0077
12417TIP3    H258667   0.025   5.709  12.875 -0.7636  1.8669  0.6651
12418TIP3   OH258668   3.355   1.023  11.166 -0.6954 -0.5031  0.8834
12418TIP3    H158669   3.287   1.060  11.110 -0.8327  1.6978  2.3688
12418TIP3    H258670   3.431   1.012  11.108 -0.2440  3.4292  0.4701
12419TIP3   OH258671   3.948   1.301  15.170  0.3330  0.4761 -0.0280
12419TIP3    H158672   3.877   1.313  15.107  1.1922 -1.3513 -1.4296
12419TIP3    H258673   3.906   1.261  15.246 -0.4676  1.3908  0.0335
12420TIP3   OH258674   1.124   2.724  12.674 -0.3739  0.3568  0.1797
12420TIP3    H158675   1.045   2.725  12.728 -1.1563 -2.4189 -0.7288
12420TIP3    H258676   1.194   2.699  12.734 -0.5098  1.0742  0.6410
12421TIP3   OH258677   5.218   3.989  13.809  0.2139 -0.1542  0.4271
12421TIP3    H158678   5.235   3.931  13.734 -0.1792  1.3301 -0.8773
12421TIP3    H258679   5.129   4.022  13.794  1.4770  3.1929 -0.6710
12422TIP3   OH258680   5.039   5.179  14.405 -0.1590  0.1496  0.2458
12422TIP3    H158681   5.051   5.187  14.311  0.3040  0.1773  0.3090
12422TIP3    H258682   4.982   5.253  14.428  0.5413  0.7263  0.1450
12423TIP3   OH258683   5.287   1.823  12.191  0.0616 -0.3067  0.1455
12423TIP3    H158684   5.294   1.917  12.174 -0.8326 -0.1639  0.5361
12423TIP3    H258685   5.290   1.782  12.105  1.4771  0.0014  0.0260
12424TIP3   OH258686   5.670   1.805   1.778 -0.6125  0.2909 -0.2351
12424TIP3    H158687   5.721   1.795   1.698  0.5248  1.5752  0.2898
12424TIP3    H258688   5.668   1.717   1.816  1.1756  0.1696 -0.3247
12425TIP3   OH258689   4.494   5.688   4.782  0.0262 -0.1303  0.0805
12425TIP3    H158690   4.488   5.593   4.767  1.5418 -0.1578 -0.4762
12425TIP3    H258691   4.440   5.703   4.860  1.1995 -1.7471  1.2924
12426TIP3   OH258692   1.828   6.369   5.194  0.0483  0.2406 -0.2718
12426TIP3    H158693   1.756   6.334   5.142 -0.9473  1.3685  0.2720
12426TIP3    H258694   1.814   6.464   5.192 -1.0465  0.3303  3.3390
12427TIP3   OH258695   6.091   2.494   6.035 -0.1723 -0.1910 -0.0884
12427TIP3    H158696   6.033   2.533   6.101 -0.6194 -0.2269 -0.4516
12427TIP3    H258697   6.172   2.475   6.083  0.2380  1.5854 -0.0017
12428TIP3   OH258698   1.824   2.050  15.186 -0.1192  0.0374 -0.0369
12428TIP3    H158699   1.858   2.140  15.183 -0.5749  0.1908 -1.0915
12428TIP3    H258700   1.813   2.032  15.280 -0.9009  1.4270  0.1767
12429TIP3   OH258701   1.506   1.391   4.208  0.1582 -0.0504 -0.3094
12429TIP3    H158702   1.589   1.415   4.249  0.1318  2.3104 -1.4882
12429TIP3    H258703   1.499   1.296   4.221  3.9229 -0.6768 -1.7310
12430TIP3   OH258704   0.891   3.062   2.674  0.2890  0.3246 -0.2870
12430TIP3    H158705   0.925   3.019   2.753 -2.4595 -0.2249  0.7079
12430TIP3    H258706   0.856   3.145   2.707 -1.2218 -0.0770 -0.8197
12431TIP3   OH258707   4.353   2.245  12.244 -0.3912 -0.0114  0.3738
12431TIP3    H158708   4.430   2.215  12.292  0.0794  2.1369  1.1049
12431TIP3    H258709   4.303   2.166  12.225  1.2073 -1.2918  1.2658
12432TIP3   OH258710   1.100   4.403   0.067 -0.4747 -0.6694  0.2196
12432TIP3    H158711   1.149   4.410  -0.015 -0.6645 -0.8789  0.0885
12432TIP3    H258712   1.167   4.411   0.135 -0.3241 -0.4269  0.0483
12433TIP3   OH258713   1.213   5.347  16.066 -0.5029  0.2291  0.1898
12433TIP3    H158714   1.190   5.407  15.994  0.5322  0.5207  0.0844
12433TIP3    H258715   1.263   5.277  16.023 -0.2901  0.1563  0.5527
12434TIP3   OH258716   5.608   0.325  16.022  0.3974 -0.2806  0.5174
12434TIP3    H158717   5.627   0.417  16.044  0.8953 -0.4550  0.8324
12434TIP3    H258718   5.587   0.327  15.928 -0.7795  0.3270  0.7766
12435TIP3   OH258719   3.456   3.002   0.131 -0.2015  0.5990 -0.3922
12435TIP3    H158720   3.483   2.911   0.118  0.0647  0.6009  0.1085
12435TIP3    H258721   3.475   3.045   0.048 -0.5955  0.1353 -0.7267
12436TIP3   OH258722   6.183   2.872  13.191 -0.6979  0.1640 -0.3776
12436TIP3    H158723   6.259   2.878  13.249 -0.7425  0.2825 -0.3314
12436TIP3    H258724   6.154   2.781  13.200 -1.1021  0.3470  0.2952
12437TIP3   OH258725   4.540   1.730   1.627  0.4780  0.2674 -0.0758
12437TIP3    H158726   4.551   1.635   1.622  3.2365  0.4725  0.3890
12437TIP3    H258727   4.449   1.743   1.653  0.3884 -2.2955  1.1488
12438TIP3   OH258728   3.142   4.545  12.421 -0.0321  0.0391  0.5787
12438TIP3    H158729   3.095   4.562  12.502 -0.7166  0.9933  0.0051
12438TIP3    H258730   3.081   4.573  12.352  1.0328  0.4892 -0.2106
12439TIP3   OH258731   5.471   6.007  12.860 -0.5233 -0.3830 -0.4526
12439TIP3    H158732   5.558   5.967  12.859 -0.0004  0.6946 -1.8815
12439TIP3    H258733   5.411   5.935  12.878  0.5597 -1.3939 -0.7849
12440TIP3   OH258734   2.067   3.896  11.945  0.9162  0.5370 -0.0877
12440TIP3    H158735   2.109   3.813  11.927  0.5540  0.1570  0.7467
12440TIP3    H258736   2.091   3.916  12.036 -0.7235  0.2689  0.4443
12441TIP3   OH258737   3.386   3.104   1.571  0.0865 -0.3796  0.3650
12441TIP3    H158738   3.370   3.018   1.530 -1.2337  0.3670 -0.7756
12441TIP3    H258739   3.300   3.131   1.603  0.3631  0.7772  0.1701
12442TIP3   OH258740   6.743   1.220  15.267  0.1297  0.2309  0.7947
12442TIP3    H158741   6.653   1.212  15.299  0.0692 -1.1746  0.3372
12442TIP3    H258742   6.736   1.276  15.190 -0.3686  0.1007  0.7427
12443TIP3   OH258743   0.795   4.100   2.752 -0.5148 -0.3273  0.1838
12443TIP3    H158744   0.856   4.027   2.748 -0.4935 -0.2443 -2.8033
12443TIP3    H258745   0.741   4.091   2.674 -2.2150  1.4384  1.0611
12444TIP3   OH258746   4.290   1.258  11.112 -0.2204  0.3577  0.1857
12444TIP3    H158747   4.238   1.178  11.121 -0.1107  0.4022  1.3466
12444TIP3    H258748   4.251   1.304  11.038 -0.9418 -0.2687  0.1670
12445TIP3   OH258749   5.037   6.430  14.932  0.4355  0.4823 -0.6355
12445TIP3    H158750   5.125   6.392  14.926  0.9808  1.1731  1.8741
12445TIP3    H258751   5.023   6.470  14.846  2.6049  0.4503 -1.0662
12446TIP3   OH258752   0.989   1.483   1.353 -0.8228  0.4072 -0.7832
12446TIP3    H158753   1.011   1.430   1.277 -0.6531  0.3231 -0.6774
12446TIP3    H258754   1.013   1.572   1.329  0.5531  0.1905 -0.3239
12447TIP3   OH258755   2.705   6.298  15.179 -0.5222  0.1173  0.0539
12447TIP3    H158756   2.671   6.251  15.103  2.1798 -0.1331 -1.1464
12447TIP3    H258757   2.736   6.382  15.143  0.5879  0.0917  0.9069
12448TIP3   OH258758   2.867   6.704   4.238 -0.1927  0.2594  0.8228
12448TIP3    H158759   2.878   6.720   4.144  0.0218 -0.8190  0.6521
12448TIP3    H258760   2.952   6.671   4.267 -0.1554  0.9046  1.4729
12449TIP3   OH258761   0.354   1.379  15.283 -0.0262  0.3881  0.0681
12449TIP3    H158762   0.307   1.364  15.365 -2.4185 -0.1570 -1.2997
12449TIP3    H258763   0.444   1.400  15.310 -0.3755 -1.1050  2.7398
12450TIP3   OH258764   0.550   4.157  16.588  0.6488  0.1152 -0.0491
12450TIP3    H158765   0.478   4.127  16.643  0.3381  0.8460 -0.0410
12450TIP3    H258766   0.510   4.172  16.503  0.9829 -0.3305 -0.2871
12451TIP3   OH258767   5.181   5.912   2.367 -0.2289  0.3530 -0.5194
12451TIP3    H158768   5.115   5.889   2.303 -0.8207 -0.7824  0.4446
12451TIP3    H258769   5.264   5.891   2.325 -0.5759  0.2191 -1.1399
12452TIP3   OH258770   0.172   0.396   3.302 -0.3928  0.8207 -0.5079
12452TIP3    H158771   0.144   0.318   3.255  1.1032 -0.1530  0.1418
12452TIP3    H258772   0.230   0.363   3.371  1.7822  2.6008 -1.3522
12453TIP3   OH258773   6.479   1.436   1.898 -0.2869  0.2100  0.0624
12453TIP3    H158774   6.413   1.423   1.829 -0.8199  0.7741  0.4549
12453TIP3    H258775   6.476   1.530   1.916 -1.0587 -0.0990  1.7269
12454TIP3   OH258776   4.812   5.451   2.561 -0.0919  0.4792  0.1690
12454TIP3    H158777   4.815   5.367   2.607 -1.6290  0.2639 -0.0643
12454TIP3    H258778   4.761   5.508   2.618  0.6574  1.1697  0.1690
12455TIP3   OH258779   6.729   3.476  10.994 -0.6307 -0.3803  0.7339
12455TIP3    H158780   6.706   3.567  10.978 -0.5147 -0.5836 -0.7374
12455TIP3    H258781   6.743   3.471  11.089  0.1919  1.3063  0.7362
12456TIP3   OH258782   1.008   4.070   3.151 -1.2809  0.4437  0.0458
12456TIP3    H158783   1.044   3.993   3.196 -1.2294 -0.8984 -2.1545
12456TIP3    H258784   0.991   4.133   3.222 -1.0133 -1.4344  1.8916
12457TIP3   OH258785   6.340   3.472   1.359 -0.0377 -0.1178 -0.0849
12457TIP3    H158786   6.280   3.519   1.301  0.0474 -0.5311 -0.5197
12457TIP3    H258787   6.427   3.507   1.337  0.3266 -1.9908 -2.0228
12458TIP3   OH258788   3.001   5.518   0.547  0.1454  0.4550  0.1534
12458TIP3    H158789   2.932   5.578   0.575 -2.5840 -1.1784 -2.4464
12458TIP3    H258790   3.039   5.559   0.470  1.1913  0.6964  0.7750
12459TIP3   OH258791   6.378   6.136   2.509 -0.1476  0.1476  0.0908
12459TIP3    H158792   6.437   6.210   2.522  1.3160 -0.7873 -0.9586
12459TIP3    H258793   6.435   6.061   2.493 -1.5577 -1.3598  1.5946
12460TIP3   OH258794   2.180   4.471  12.094 -0.6037  0.6343 -0.3598
12460TIP3    H158795   2.157   4.539  12.030  0.7468  0.3438 -1.2004
12460TIP3    H258796   2.237   4.411  12.045  0.3043  0.2954  1.0649
12461TIP3   OH258797   5.266   4.671   1.645  0.0080  0.4165  0.1617
12461TIP3    H158798   5.298   4.633   1.563 -1.2081 -0.4056  0.0407
12461TIP3    H258799   5.227   4.755   1.620  0.6328  0.6802  0.0721
12462TIP3   OH258800   1.305   1.133  12.923  0.0085 -0.1112 -0.6140
12462TIP3    H158801   1.236   1.186  12.964  0.1535 -1.2902  1.2403
12462TIP3    H258802   1.365   1.111  12.994  0.9299 -1.2577 -1.6902
12463TIP3   OH258803   5.895   3.445   4.156  0.0136  0.3713  0.4307
12463TIP3    H158804   5.891   3.355   4.126  0.4934  0.9527 -1.5568
12463TIP3    H258805   5.878   3.497   4.078  2.2111  2.0329  0.9625
12464TIP3   OH258806   4.175   5.747  17.162 -0.0782 -0.3119 -0.5135
12464TIP3    H158807   4.093   5.742  17.113 -0.2290  0.2761 -0.3286
12464TIP3    H258808   4.230   5.807  17.113 -0.3932  0.6255  0.2540
12465TIP3   OH258809   4.868   1.028   3.421  0.1627 -0.2735 -0.2091
12465TIP3    H158810   4.846   0.937   3.441  0.5121 -0.0359  1.4479
12465TIP3    H258811   4.814   1.079   3.481 -0.5598  0.6584 -1.6228
12466TIP3   OH258812   2.295   0.136  13.798 -0.2836 -0.8963 -0.5449
12466TIP3    H158813   2.256   0.114  13.883  1.2645 -3.4350 -0.3625
12466TIP3    H258814   2.381   0.172  13.820 -0.6454  0.2831 -1.0165
12467TIP3   OH258815   3.804   5.858   5.249  0.0435 -0.5533  0.1478
12467TIP3    H158816   3.866   5.801   5.205  0.3115 -1.1313  1.2292
12467TIP3    H258817   3.823   5.946   5.216  1.6043 -0.6789  0.6189
12468TIP3   OH258818   6.240   4.163  12.122  0.1090 -0.7383 -0.2814
12468TIP3    H158819   6.249   4.068  12.109 -1.6289 -1.0022  0.0585
12468TIP3    H258820   6.206   4.195  12.039 -0.0199 -0.5545 -0.1583
12469TIP3   OH258821   0.322   2.158  17.167  0.2237 -0.6004 -0.3104
12469TIP3    H158822   0.232   2.164  17.198  0.5124  0.0957  0.4083
12469TIP3    H258823   0.340   2.244  17.129  0.3738 -0.9523 -1.0563
12470TIP3   OH258824   5.819   4.163  16.188 -0.1446 -0.1608  0.2021
12470TIP3    H158825   5.851   4.114  16.263 -0.0084  0.3017  0.4539
12470TIP3    H258826   5.742   4.209  16.221  0.2106  0.4458  0.1999
12471TIP3   OH258827   3.808   6.744  12.887 -0.2417 -0.2940 -0.2970
12471TIP3    H158828   3.780   6.808  12.953  0.1938 -1.6173  1.2506
12471TIP3    H258829   3.733   6.686  12.878  0.3189 -1.1436  0.3807
12472TIP3   OH258830   4.300   0.254   0.492 -0.2588  0.1307  0.2868
12472TIP3    H158831   4.225   0.312   0.501 -0.0880  0.6288 -1.1556
12472TIP3    H258832   4.376   0.308   0.512 -0.1253  0.3256 -0.6963
12473TIP3   OH258833   4.311   1.849  13.293  0.2357  0.0996  0.1969
12473TIP3    H158834   4.253   1.832  13.367 -0.8426  1.5393 -0.2686
12473TIP3    H258835   4.326   1.764  13.253 -1.0783 -0.3828  0.7008
12474TIP3   OH258836   0.840   3.721  16.965  0.0527 -0.0552 -0.1184
12474TIP3    H158837   0.833   3.653  16.898 -1.3841  1.1081 -1.2298
12474TIP3    H258838   0.752   3.728  17.002  0.1256  1.2501 -0.1225
12475TIP3   OH258839   0.292   2.026   5.098  0.4143 -0.2328 -0.2011
12475TIP3    H158840   0.367   2.030   5.039 -0.2093  0.6689 -0.9613
12475TIP3    H258841   0.283   2.116   5.130 -2.4485  0.6115 -2.8625
12476TIP3   OH258842   2.446   1.257  10.236  0.1383 -0.9098 -0.2452
12476TIP3    H158843   2.384   1.234  10.167 -0.2045 -0.7033 -0.0099
12476TIP3    H258844   2.400   1.323  10.288  0.2753 -1.2815  0.3589
12477TIP3   OH258845   2.170   3.372   1.221 -0.5392  0.2300 -0.2047
12477TIP3    H158846   2.145   3.282   1.201 -0.3203 -0.6574  3.0163
12477TIP3    H258847   2.258   3.380   1.185  0.4668 -1.7540  1.6063
12478TIP3   OH258848   5.249   1.239  15.930 -0.2785 -0.0699 -0.0871
12478TIP3    H158849   5.278   1.301  15.863 -2.8310 -0.0223 -1.2641
12478TIP3    H258850   5.215   1.294  16.001  0.7602 -0.1295  0.4672
12479TIP3   OH258851   3.526   3.507  14.404 -0.5186 -0.0207 -0.0301
12479TIP3    H158852   3.530   3.573  14.335  3.1119  1.0790  1.0021
12479TIP3    H258853   3.525   3.558  14.485  1.9597 -1.1504  0.7874
12480TIP3   OH258854   4.358   1.987   0.927  0.3572  0.3394  0.3886
12480TIP3    H158855   4.341   1.971   1.019  0.6255  1.5201  0.6546
12480TIP3    H258856   4.358   2.082   0.918 -1.5834  0.2724 -1.1931
12481TIP3   OH258857   1.901   6.458   5.719 -0.5071  0.0655  0.2156
12481TIP3    H158858   1.877   6.505   5.800  2.9793  3.2699 -0.3068
12481TIP3    H258859   1.978   6.406   5.744 -0.9846 -1.0224 -0.5203
12482TIP3   OH258860   3.225   3.673  16.323  0.2030 -0.8784  0.1443
12482TIP3    H158861   3.320   3.678  16.331  0.0100  0.4620  3.8530
12482TIP3    H258862   3.193   3.749  16.372 -2.7961 -1.0422 -1.3360
12483TIP3   OH258863   0.393   1.965  15.258  0.2824  0.6543  0.3516
12483TIP3    H158864   0.346   2.048  15.264  0.1718  0.7815 -1.6807
12483TIP3    H258865   0.486   1.989  15.266  0.1820  0.7622  1.3164
12484TIP3   OH258866   4.710   1.305  17.159 -0.2465  0.0640 -1.1251
12484TIP3    H158867   4.731   1.229  17.105 -1.9262 -1.1727 -0.1496
12484TIP3    H258868   4.789   1.320  17.210  0.2181 -0.8611 -1.5448
12485TIP3   OH258869   6.560   0.691  13.144 -0.6118 -0.2278  0.3933
12485TIP3    H158870   6.612   0.617  13.114 -0.6126  0.0629 -0.3304
12485TIP3    H258871   6.506   0.655  13.215 -0.3159 -0.8162  0.3245
12486TIP3   OH258872   1.384   2.695   0.463 -0.2097 -0.3832  0.1699
12486TIP3    H158873   1.348   2.772   0.508  1.0116  0.9335 -0.9692
12486TIP3    H258874   1.469   2.725   0.430 -0.6243 -1.5378 -2.1693
12487TIP3   OH258875   3.832   3.628  16.973 -0.1097  0.1524  0.1502
12487TIP3    H158876   3.916   3.593  16.944  0.3494  0.6919  0.8017
12487TIP3    H258877   3.822   3.595  17.062 -0.3188  0.5680  0.2809
12488TIP3   OH258878   1.669   3.429   5.707 -0.3463  0.5130  0.5553
12488TIP3    H158879   1.705   3.341   5.690  1.1690  0.9648  1.2361
12488TIP3    H258880   1.656   3.467   5.620  1.6761  0.6351  0.2608
12489TIP3   OH258881   6.044   0.828   1.642 -0.3260  0.0887  0.5789
12489TIP3    H158882   6.075   0.783   1.722 -1.1809 -2.3376 -0.3540
12489TIP3    H258883   6.122   0.835   1.588 -0.4653 -2.2015 -0.0503
12490TIP3   OH258884   6.084   3.701   3.960 -0.0694 -0.0870  0.2088
12490TIP3    H158885   6.141   3.630   3.929 -1.6635 -0.5185 -1.9610
12490TIP3    H258886   6.124   3.780   3.924 -0.1349 -0.2443 -0.2129
12491TIP3   OH258887   3.809   5.172   5.509 -0.8812  0.1533 -0.0380
12491TIP3    H158888   3.755   5.228   5.565  1.6315  1.0032  1.7078
12491TIP3    H258889   3.748   5.136   5.446 -4.1171 -1.2264  3.4748
12492TIP3   OH258890   5.591   0.797  14.289  0.3721 -0.3683 -0.6229
12492TIP3    H158891   5.512   0.832  14.249  0.4535 -0.3759 -0.7926
12492TIP3    H258892   5.652   0.785  14.216  0.3176 -0.9389 -0.5825
12493TIP3   OH258893   1.311   0.928  14.716 -0.2656  0.1570  0.3595
12493TIP3    H158894   1.385   0.892  14.667  0.0644  1.1404  0.1004
12493TIP3    H258895   1.250   0.959  14.648  0.5050  2.1576  0.5092
12494TIP3   OH258896   2.178   3.347  15.813 -0.0333  0.5403 -0.3698
12494TIP3    H158897   2.205   3.368  15.723  0.5130  0.5964 -0.1934
12494TIP3    H258898   2.108   3.409  15.832 -1.5952 -0.7809 -1.4938
12495TIP3   OH258899   5.583   0.385   3.052 -0.1040 -0.3992 -0.0527
12495TIP3    H158900   5.565   0.459   2.993 -2.4649 -1.2893 -0.5629
12495TIP3    H258901   5.638   0.326   3.000 -0.4097 -0.1974 -0.6247
12496TIP3   OH258902   1.469   3.362   1.323 -0.0181  0.7921  0.3946
12496TIP3    H158903   1.436   3.431   1.265  0.2706  0.9776  0.4472
12496TIP3    H258904   1.424   3.377   1.406 -1.5359 -0.3589 -0.1809
12497TIP3   OH258905   2.339   4.935   6.624  0.6444  0.3352 -0.2570
12497TIP3    H158906   2.245   4.946   6.617  0.8834  1.9370 -1.5973
12497TIP3    H258907   2.354   4.844   6.600 -0.5310  0.1728 -0.4336
12498TIP3   OH258908   6.253   0.570  13.708 -0.1806  0.4029  0.4177
12498TIP3    H158909   6.218   0.616  13.632  0.3979 -0.2235 -0.2464
12498TIP3    H258910   6.205   0.607  13.783 -1.3274  0.4730 -0.3242
12499TIP3   OH258911   0.575   2.387  11.777 -0.2875  0.6206  0.3791
12499TIP3    H158912   0.530   2.469  11.755  0.7064  0.9451 -0.5200
12499TIP3    H258913   0.507   2.320  11.768 -0.8464  1.2200  0.0506
12500TIP3   OH258914   2.003   2.029   1.796 -0.5971 -0.0564  0.2605
12500TIP3    H158915   1.991   2.114   1.752  1.0741  1.2135  2.0982
12500TIP3    H258916   2.039   1.972   1.727  0.5479  1.4380 -0.4575
12501TIP3   OH258917   3.214   3.819  13.195 -0.5707 -0.0983 -0.4403
12501TIP3    H158918   3.176   3.767  13.125  0.2254 -0.9288 -0.2779
12501TIP3    H258919   3.155   3.894  13.205 -2.1206 -1.3064 -0.2085
12502TIP3   OH258920   2.434   3.265  14.364 -0.4299  0.6325 -0.1950
12502TIP3    H158921   2.415   3.181  14.406 -0.4793  0.1416 -1.1556
12502TIP3    H258922   2.396   3.256  14.276  0.2489  1.3651 -0.5728
12503TIP3   OH258923   1.683   1.539  14.518 -0.3184  0.8917 -0.2208
12503TIP3    H158924   1.741   1.557  14.444  1.1148  1.0193  0.9017
12503TIP3    H258925   1.720   1.590  14.590 -0.5119 -0.7948  1.1112
12504TIP3   OH258926   5.804   1.981  11.311 -0.7876 -0.0562 -0.3539
12504TIP3    H158927   5.810   2.018  11.223  0.1160  0.9664  0.1094
12504TIP3    H258928   5.710   1.977  11.329 -0.9951 -0.5791 -1.4711
12505TIP3   OH258929   4.413   2.963  13.308 -0.2276  0.1904 -0.2117
12505TIP3    H158930   4.329   3.007  13.299  0.0887  0.7390 -0.5467
12505TIP3    H258931   4.425   2.954  13.403 -0.3548  0.7169 -0.1409
12506TIP3   OH258932   1.948   0.873  12.762 -0.2697  0.0750 -0.0189
12506TIP3    H158933   1.870   0.914  12.799  0.6530  0.1621  1.9396
12506TIP3    H258934   2.020   0.927  12.791  0.5857 -0.2402 -1.4642
12507TIP3   OH258935   6.088   4.733   4.469 -0.0312 -0.5487  0.2567
12507TIP3    H158936   6.034   4.718   4.392  0.5397 -1.6182  0.0382
12507TIP3    H258937   6.099   4.828   4.472 -2.1581 -0.2593  0.5037
12508TIP3   OH258938   0.276   5.213  10.840  0.4227  0.1793 -0.0281
12508TIP3    H158939   0.232   5.264  10.772 -0.2328 -0.1258  0.1680
12508TIP3    H258940   0.334   5.154  10.792 -1.0646 -1.0352 -0.4195
12509TIP3   OH258941   4.271   6.738   0.833 -0.7396 -0.0166  1.1621
12509TIP3    H158942   4.353   6.729   0.784 -1.3286  0.1310  0.1149
12509TIP3    H258943   4.298   6.742   0.925  0.5637  1.5474  0.7625
12510TIP3   OH258944   1.548   5.219   4.433  0.1244  0.1293 -0.3233
12510TIP3    H158945   1.542   5.217   4.337 -0.0065 -0.7073 -0.3105
12510TIP3    H258946   1.602   5.143   4.455  2.4877  1.8469  0.1479
12511TIP3   OH258947   3.575   4.585  12.992 -0.2804 -0.1479 -0.3580
12511TIP3    H158948   3.547   4.656  12.934 -0.1664 -0.0671 -0.3147
12511TIP3    H258949   3.653   4.549  12.951  0.3718  0.5484  0.2375
12512TIP3   OH258950   0.558   5.621   6.397  0.1299  0.0422  0.0194
12512TIP3    H158951   0.522   5.533   6.409 -0.2344  0.0871 -0.6654
12512TIP3    H258952   0.588   5.648   6.484  2.0568 -1.5325 -0.0704
12513TIP3   OH258953   4.898   4.129  11.250 -0.0674 -0.2325  0.3009
12513TIP3    H158954   4.931   4.053  11.299  0.3202  0.1801  0.6982
12513TIP3    H258955   4.928   4.204  11.301 -0.7519  0.1797  0.1015
12514TIP3   OH258956   4.997   1.911  11.209  0.8333 -0.2415  0.1590
12514TIP3    H158957   5.034   1.894  11.122 -0.6613 -0.3457 -0.4756
12514TIP3    H258958   4.902   1.910  11.196  0.5284 -1.5180  2.0098
12515TIP3   OH258959   2.381   5.762  12.856 -0.6273 -0.4007 -0.6744
12515TIP3    H158960   2.346   5.762  12.946 -0.9478 -0.2588 -0.7987
12515TIP3    H258961   2.397   5.854  12.837  0.5220 -0.5191 -0.3521
12516TIP3   OH258962   1.652   2.379   0.206  0.5277 -0.6351 -0.3342
12516TIP3    H158963   1.735   2.338   0.231  1.6274  1.4665 -0.3699
12516TIP3    H258964   1.677   2.455   0.155 -1.4182  0.3651  0.1092
12517TIP3   OH258965   6.383   1.131   3.714 -0.4766  0.1095  0.4323
12517TIP3    H158966   6.433   1.177   3.782  1.5422  0.0072 -0.9070
12517TIP3    H258967   6.449   1.085   3.663 -2.1996 -2.3876  0.2704
12518TIP3   OH258968   3.277   0.483  15.991  0.2900  0.5556  0.4770
12518TIP3    H158969   3.212   0.413  15.987 -0.5062  1.2196  1.3498
12518TIP3    H258970   3.310   0.489  15.902 -0.2136 -0.3776  0.2030
12519TIP3   OH258971   0.084   5.867   3.342 -0.6525  0.4327  0.1075
12519TIP3    H158972   0.135   5.812   3.401 -1.4702  1.8522  2.2247
12519TIP3    H258973   0.150   5.913   3.289  0.0786 -0.9763 -0.2649
12520TIP3   OH258974   1.591   6.021  14.436 -0.7138  0.1098  0.3568
12520TIP3    H158975   1.629   6.096  14.482 -0.4129 -0.0858  0.4349
12520TIP3    H258976   1.666   5.963  14.420 -1.1017 -0.6675  1.2546
12521TIP3   OH258977   4.536   3.673   0.191  0.4790 -0.7695  0.2869
12521TIP3    H158978   4.451   3.706   0.222 -0.0908 -1.6129 -0.3211
12521TIP3    H258979   4.578   3.749   0.151  0.4434 -0.1074  1.4801
12522TIP3   OH258980   0.602   6.463  16.086  0.2763 -0.3649  0.6090
12522TIP3    H158981   0.696   6.478  16.071  0.5892  0.3454  2.9312
12522TIP3    H258982   0.565   6.550  16.095 -0.9931 -0.5509 -1.9013
12523TIP3   OH258983   5.244   3.697   0.679 -0.1072  0.3554 -0.3154
12523TIP3    H158984   5.191   3.728   0.753  0.3413  1.1139 -0.3011
12523TIP3    H258985   5.320   3.654   0.720  0.2094  0.8943 -0.3241
12524TIP3   OH258986   5.046   0.478   2.841 -0.2764 -0.6046 -0.9801
12524TIP3    H158987   5.107   0.433   2.783 -0.0060  0.1468 -1.2866
12524TIP3    H258988   5.022   0.412   2.906  0.7630 -0.9459 -0.9258
12525TIP3   OH258989   0.943   5.278   4.809  0.4526  0.2177  0.0751
12525TIP3    H158990   0.972   5.280   4.718 -0.8521  0.7147 -0.3501
12525TIP3    H258991   0.870   5.215   4.810  0.8647 -0.2727  0.9132
12526TIP3   OH258992   2.792   5.314   0.475 -0.4200  0.5793  0.0419
12526TIP3    H158993   2.877   5.302   0.434 -0.5929  1.0424 -0.4629
12526TIP3    H258994   2.812   5.343   0.564 -0.0343 -1.1210  0.5423
12527TIP3   OH258995   1.134   3.800   5.653 -0.1005 -0.2751 -0.5195
12527TIP3    H158996   1.058   3.751   5.622 -0.7125 -0.2260  0.8257
12527TIP3    H258997   1.206   3.737   5.649 -0.9295 -1.4546  1.4608
12528TIP3   OH258998   5.624   1.014   3.185 -0.3476  0.0716  0.6348
12528TIP3    H158999   5.575   0.957   3.125 -2.5629  1.1140  1.3500
12528TIP3    H259000   5.611   1.102   3.150  1.8534  0.3217  0.3350
12529TIP3   OH259001   4.512   4.720   5.768 -0.3647 -0.4791  0.1540
12529TIP3    H159002   4.444   4.769   5.721 -0.2100 -0.5231 -0.1201
12529TIP3    H259003   4.478   4.711   5.857 -0.9831 -0.9973 -0.1248
12530TIP3   OH259004   3.536   2.679  14.904  0.0145  0.0449 -0.3534
12530TIP3    H159005   3.504   2.719  14.985  0.4811  0.2319 -0.2618
12530TIP3    H259006   3.464   2.693  14.842 -0.3085 -0.0184 -0.0013
12531TIP3   OH259007   6.392   6.421   0.180  0.2247  0.6311  0.0102
12531TIP3    H159008   6.399   6.361   0.106 -0.4556  0.7491 -0.1516
12531TIP3    H259009   6.318   6.390   0.231 -0.4314  1.5868 -0.3237
12532TIP3   OH259010   4.818   1.384   6.371 -0.3807  0.2100 -0.1461
12532TIP3    H159011   4.740   1.402   6.424 -0.7365  0.3395 -0.7005
12532TIP3    H259012   4.821   1.456   6.308 -0.7858 -0.6854 -1.2194
12533TIP3   OH259013   0.732   1.796   6.208  0.2616  0.0113 -0.1914
12533TIP3    H159014   0.807   1.820   6.263  0.3786  0.3690 -0.4981
12533TIP3    H259015   0.662   1.853   6.239 -0.5256 -1.8135  1.5647
12534TIP3   OH259016   1.498   1.548   3.986  0.1132 -0.5610 -0.2850
12534TIP3    H159017   1.589   1.570   3.969  0.2713 -0.4208  0.6893
12534TIP3    H259018   1.501   1.489   4.062 -0.4913 -1.8449 -1.2125
12535TIP3   OH259019   0.622   4.184   2.152  0.9323 -0.3534  0.1695
12535TIP3    H159020   0.554   4.118   2.139  0.0260  0.5464  0.3118
12535TIP3    H259021   0.658   4.199   2.064  1.0733 -0.9433  0.1189
12536TIP3   OH259022   3.130   4.702   0.609  0.4241  0.4114  0.4014
12536TIP3    H159023   3.176   4.619   0.618  2.2457  1.1904 -0.9831
12536TIP3    H259024   3.172   4.760   0.673  0.2156  0.6796  0.2998
12537TIP3   OH259025   1.574   4.733   1.272  0.6275  0.0595  0.7041
12537TIP3    H159026   1.483   4.753   1.250  0.8785 -0.0528 -0.4664
12537TIP3    H259027   1.601   4.805   1.329  0.4367  1.2260 -0.6218
12538TIP3   OH259028   4.810   1.469   2.651  0.4291  0.1257 -0.0423
12538TIP3    H159029   4.813   1.565   2.650  1.9083  0.1060 -0.8229
12538TIP3    H259030   4.749   1.448   2.721  1.1089  1.6481  1.0721
12539TIP3   OH259031   0.451   6.664   0.899 -0.3641 -0.7957  0.2685
12539TIP3    H159032   0.395   6.627   0.966 -3.4519  0.1062 -1.6228
12539TIP3    H259033   0.464   6.755   0.926  0.4348 -1.0492  0.7951
12540TIP3   OH259034   2.600   5.217  16.825 -0.2724  0.6555  0.2492
12540TIP3    H159035   2.545   5.293  16.843  0.0448  1.1091 -0.6273
12540TIP3    H259036   2.680   5.253  16.788 -0.6678 -0.1406 -1.4972
12541TIP3   OH259037   5.550   2.513   3.201  0.2681  0.2923 -0.1629
12541TIP3    H159038   5.630   2.554   3.168  1.0799 -0.5640  0.6977
12541TIP3    H259039   5.527   2.448   3.134 -0.0428  0.9228 -0.6832
12542TIP3   OH259040   3.991   6.514  11.024 -0.3623 -0.0783 -0.1561
12542TIP3    H159041   3.956   6.600  11.048 -1.1761 -0.2130 -0.8146
12542TIP3    H259042   4.056   6.494  11.092 -3.7521 -1.2632  3.0306
12543TIP3   OH259043   5.508   2.427   5.477  0.2417  0.3407 -0.0725
12543TIP3    H159044   5.587   2.482   5.475 -0.5457  1.5044 -0.4058
12543TIP3    H259045   5.478   2.427   5.386 -1.3040  1.6784  0.4003
12544TIP3   OH259046   4.596   0.739  16.292  0.3608  0.0388  0.2538
12544TIP3    H159047   4.563   0.728  16.381 -0.8612 -0.1567 -0.2057
12544TIP3    H259048   4.648   0.660  16.277  2.3367  1.0353  1.5089
12545TIP3   OH259049   4.059   4.349   4.397 -0.2779  0.1088 -0.1108
12545TIP3    H159050   4.016   4.356   4.482  0.3272 -1.5694  0.3734
12545TIP3    H259051   4.030   4.265   4.362  0.0960  0.4198 -1.2191
12546TIP3   OH259052   3.479   0.038   6.339 -0.3883  0.5061 -0.4482
12546TIP3    H159053   3.514  -0.035   6.391  1.9229  1.7159 -0.1791
12546TIP3    H259054   3.397   0.004   6.303 -0.3409 -1.5567  1.1939
12547TIP3   OH259055   4.642   2.286  13.299  0.7310  0.2585 -0.9587
12547TIP3    H159056   4.731   2.268  13.266  1.6576  1.6404  0.6596
12547TIP3    H259057   4.607   2.199  13.319  0.7450 -0.5205 -3.8738
12548TIP3   OH259058   0.316   4.869  12.523 -0.5075 -0.1423  0.0103
12548TIP3    H159059   0.409   4.891  12.529 -0.6399  0.0039  2.0859
12548TIP3    H259060   0.307   4.790  12.575 -1.2058 -1.4551 -1.9968
12549TIP3   OH259061   6.349   4.141   3.307 -0.5962  0.0171  0.0233
12549TIP3    H159062   6.386   4.058   3.277 -0.0631  0.2176  0.1137
12549TIP3    H259063   6.269   4.152   3.255 -1.9137 -1.6338  1.5583
12550TIP3   OH259064   4.689   0.511   0.501 -0.2153 -0.1030  0.2272
12550TIP3    H159065   4.720   0.449   0.435 -1.4098 -0.4268 -0.0541
12550TIP3    H259066   4.687   0.595   0.455  0.1182 -0.0996  0.2146
12551TIP3   OH259067   1.319   1.512  11.757 -0.0790 -0.1757  0.1706
12551TIP3    H159068   1.392   1.465  11.798  0.1812  0.3210  0.2869
12551TIP3    H259069   1.361   1.581  11.705 -0.4807  0.5321  0.7615
12552TIP3   OH259070   3.386   4.599   5.485 -0.2759  0.2213  0.0107
12552TIP3    H159071   3.439   4.643   5.419 -1.6201  1.4921 -0.2559
12552TIP3    H259072   3.367   4.513   5.448  0.3547  0.3110 -0.5245
12553TIP3   OH259073   6.449   5.336  14.449 -0.6767 -0.6693 -0.3269
12553TIP3    H159074   6.388   5.263  14.459 -0.8110 -0.6678 -1.1056
12553TIP3    H259075   6.533   5.295  14.429  0.0243 -0.7714  2.4412
12554TIP3   OH259076   2.320   2.750   4.400 -0.2716  0.5504 -0.0071
12554TIP3    H159077   2.335   2.801   4.480 -2.1651 -0.4158  1.0218
12554TIP3    H259078   2.312   2.660   4.430 -1.0602  0.1781 -1.2714
12555TIP3   OH259079   5.201   1.749   4.029 -0.2177  0.1172  0.4610
12555TIP3    H159080   5.149   1.670   4.012 -0.4406  0.8086 -2.5211
12555TIP3    H259081   5.291   1.721   4.015 -0.3606  0.5459 -1.5662
12556TIP3   OH259082   3.771   0.050   5.210 -0.2994 -0.3296  0.0253
12556TIP3    H159083   3.685   0.065   5.249  0.6796  0.1273  2.1444
12556TIP3    H259084   3.795  -0.039   5.238  0.6120  0.1746  0.9355
12557TIP3   OH259085   1.171   3.236  12.688 -0.1207  0.0359 -0.3665
12557TIP3    H159086   1.113   3.168  12.653 -0.4578  0.3126 -0.3513
12557TIP3    H259087   1.258   3.211  12.657 -0.1011 -0.8963  0.3670
12558TIP3   OH259088   4.270   5.724   3.964 -0.1293 -0.4133 -0.8022
12558TIP3    H159089   4.280   5.635   3.998  1.4355  0.2779  0.6696
12558TIP3    H259090   4.341   5.735   3.902  2.0213  0.8977  1.6551
12559TIP3   OH259091   2.067   4.419  13.779 -0.2386  0.0251  0.4553
12559TIP3    H159092   2.045   4.325  13.783 -2.7666  0.5869  1.3586
12559TIP3    H259093   2.036   4.447  13.693 -0.2309  0.2064  0.5117
12560TIP3   OH259094   4.306   0.351  13.583 -0.0464  1.1143  0.2238
12560TIP3    H159095   4.323   0.293  13.657 -0.6241  1.1723  0.4006
12560TIP3    H259096   4.211   0.361  13.581 -0.0254  1.2076 -0.4562
12561TIP3   OH259097   4.214   3.066   5.782  0.0706 -0.4123 -0.1031
12561TIP3    H159098   4.231   3.060   5.876 -1.4839  0.9118  0.3028
12561TIP3    H259099   4.266   3.141   5.753 -2.4368  1.6763  0.5291
12562TIP3   OH259100   6.582   5.803  15.319  0.1246  0.8262 -0.0555
12562TIP3    H159101   6.535   5.814  15.236  0.2120 -2.5293 -0.7009
12562TIP3    H259102   6.514   5.785  15.383  0.2599  0.2747 -0.0672
12563TIP3   OH259103   3.496   3.084  12.434 -0.4402  0.3173  0.2614
12563TIP3    H159104   3.481   3.109  12.342 -0.0840  1.2363  0.4440
12563TIP3    H259105   3.417   3.036  12.458 -1.8486  2.5024  0.3100
12564TIP3   OH259106   1.808   0.505  15.180 -0.6577  0.0990  0.2183
12564TIP3    H159107   1.868   0.432  15.170  1.1070  1.3252  1.2413
12564TIP3    H259108   1.832   0.567  15.112  1.0766  1.7223  2.1698
12565TIP3   OH259109   0.239   4.730  11.854 -0.2900 -0.3421 -0.1234
12565TIP3    H159110   0.296   4.725  11.777  1.6371 -1.0635  1.2463
12565TIP3    H259111   0.289   4.687  11.923 -1.9948  0.1609  1.5182
12566TIP3   OH259112   3.549   3.435  15.896  0.0235 -0.3398 -0.4863
12566TIP3    H159113   3.541   3.358  15.840 -0.5375  0.4255 -1.4807
12566TIP3    H259114   3.510   3.408  15.979 -0.3705 -1.0561 -0.8966
12567TIP3   OH259115   0.022   1.684  14.772  0.3874 -0.5386 -0.1718
12567TIP3    H159116   0.050   1.606  14.724  0.0908 -0.4122 -0.5459
12567TIP3    H259117   0.095   1.701  14.833  1.2678 -0.0560 -1.3252
12568TIP3   OH259118   5.833   4.891  13.620  0.2501  0.3663  0.0960
12568TIP3    H159119   5.923   4.915  13.645  0.6204 -0.9218  0.0790
12568TIP3    H259120   5.793   4.862  13.702 -0.1804  0.9549  0.1069
12569TIP3   OH259121   4.012   3.706  14.456  0.6160  0.4287 -0.2082
12569TIP3    H159122   4.101   3.737  14.443  0.7477 -0.5238 -1.7541
12569TIP3    H259123   4.021   3.636  14.520  0.9119  0.6089 -0.0481
12570TIP3   OH259124   0.507   6.181   1.354 -0.2482 -0.3144 -0.2896
12570TIP3    H159125   0.494   6.276   1.347 -1.3584 -0.5569 -2.2431
12570TIP3    H259126   0.532   6.167   1.445  2.3544  2.1086 -0.4709
12571TIP3   OH259127   5.079   6.370   1.221 -0.2705  0.0597  0.2841
12571TIP3    H159128   5.112   6.280   1.218 -1.0961 -0.2400 -0.3482
12571TIP3    H259129   4.988   6.361   1.249 -1.2486  0.3831 -2.4586
12572TIP3   OH259130   2.394   4.260  12.060 -0.3853 -0.4495 -0.1466
12572TIP3    H159131   2.364   4.196  11.996 -1.7505  1.0739 -1.1045
12572TIP3    H259132   2.346   4.238  12.140  0.3969 -1.5987  0.0303
12573TIP3   OH259133   2.294   2.409   5.179  0.3727 -0.4605 -0.1995
12573TIP3    H159134   2.331   2.331   5.219 -0.8478 -1.7420 -1.4443
12573TIP3    H259135   2.248   2.377   5.102  0.1948  1.5557 -0.9984
12574TIP3   OH259136   2.219   4.197  16.178  0.1393  0.1995  0.2279
12574TIP3    H159137   2.278   4.266  16.208  1.6266 -1.1288  0.4765
12574TIP3    H259138   2.195   4.149  16.257 -1.8512  1.0862  0.2322
12575TIP3   OH259139   2.671   2.729   0.531 -0.8055 -0.2021 -0.1239
12575TIP3    H159140   2.592   2.678   0.550 -0.1711 -0.8929  0.7644
12575TIP3    H259141   2.658   2.811   0.579 -1.7243  0.4182 -1.3695
12576TIP3   OH259142   2.544   3.619  14.968  0.2108 -0.0749  0.0701
12576TIP3    H159143   2.459   3.587  14.997  0.4254 -0.9649 -0.2358
12576TIP3    H259144   2.596   3.540  14.956  1.0738  0.4538  0.2128
12577TIP3   OH259145   2.707   1.498   1.591  0.5153  0.7061  0.5558
12577TIP3    H159146   2.663   1.557   1.653  0.2586 -0.2659  1.3319
12577TIP3    H259147   2.636   1.468   1.534  0.3708  0.0734  1.0512
12578TIP3   OH259148   0.317   5.880  14.138 -0.7500  0.8701 -0.1988
12578TIP3    H159149   0.297   5.946  14.205  0.5416  1.9914 -0.8820
12578TIP3    H259150   0.400   5.908  14.100 -0.6011 -0.6873 -1.1191
12579TIP3   OH259151   2.420   0.997  15.719 -0.0082  0.2032 -0.0857
12579TIP3    H159152   2.402   0.941  15.643 -1.2312  0.9268 -0.3606
12579TIP3    H259153   2.336   1.003  15.764  0.5677  0.2616  1.0223
12580TIP3   OH259154   3.542   6.488   1.932 -0.0632  0.6488 -0.6573
12580TIP3    H159155   3.506   6.402   1.909 -1.1429  0.6281  0.9572
12580TIP3    H259156   3.515   6.546   1.860 -0.6262 -0.0383 -1.0087
12581TIP3   OH259157   3.913   6.680   3.313 -0.6044  0.2359 -0.2949
12581TIP3    H159158   4.003   6.660   3.340 -0.5985  0.1435 -0.3868
12581TIP3    H259159   3.866   6.693   3.396 -0.5978 -0.1079 -0.2375
12582TIP3   OH259160   2.788   2.767   4.349 -0.0072 -0.0871 -0.0443
12582TIP3    H159161   2.811   2.702   4.415 -0.2667 -2.3022 -1.9950
12582TIP3    H259162   2.867   2.821   4.341  0.7442 -1.0297  0.6664
12583TIP3   OH259163   3.917   6.436  10.558 -0.1594  0.2590 -0.2666
12583TIP3    H159164   3.898   6.342  10.561 -0.5172  0.3533  0.3870
12583TIP3    H259165   4.013   6.440  10.560 -0.1563 -0.0582  0.8463
12584TIP3   OH259166   6.569   6.557  12.149  0.2133  0.7020 -0.1369
12584TIP3    H159167   6.481   6.521  12.150  0.6911 -0.5017  0.4323
12584TIP3    H259168   6.625   6.485  12.118  0.8533  1.8273 -1.7580
12585TIP3   OH259169   5.453   4.503   0.517 -0.0397 -0.3313 -0.2768
12585TIP3    H159170   5.505   4.578   0.545 -1.2158  0.7238 -0.8143
12585TIP3    H259171   5.499   4.470   0.440  0.1421  0.2521 -0.4255
12586TIP3   OH259172   0.140   6.109   5.702 -0.4102  0.2893 -0.5371
12586TIP3    H159173   0.090   6.068   5.631 -0.3809  1.4593 -1.2668
12586TIP3    H259174   0.178   6.036   5.750  1.1114 -0.5304 -2.8381
12587TIP3   OH259175   3.357   3.638   2.961 -0.0218 -0.4439 -0.0141
12587TIP3    H159176   3.306   3.713   2.933  2.1826  1.5403  0.9248
12587TIP3    H259177   3.444   3.652   2.922  0.5968 -2.2263  0.6214
12588TIP3   OH259178   5.004   6.453   2.902  0.2912 -0.1390 -0.1643
12588TIP3    H159179   5.017   6.367   2.943  1.4963  0.2210  0.2404
12588TIP3    H259180   5.092   6.482   2.880 -0.1637  0.7205 -0.8771
12589TIP3   OH259181   4.546   2.011  13.824  0.5392  0.2589  0.3484
12589TIP3    H159182   4.609   1.978  13.760 -0.7204  0.3319 -0.9807
12589TIP3    H259183   4.520   1.935  13.875  2.0220  0.3101  1.2474
12590TIP3   OH259184   6.597   5.639   5.740 -0.2411  0.2503 -0.0047
12590TIP3    H159185   6.575   5.608   5.828 -0.5183  1.8578  0.5313
12590TIP3    H259186   6.611   5.559   5.689  0.7482 -0.7212  1.6923
12591TIP3   OH259187   5.542   5.784   2.243  0.5666  0.1693  0.4363
12591TIP3    H159188   5.502   5.871   2.231  1.9223  0.7260 -0.2806
12591TIP3    H259189   5.508   5.754   2.327 -1.3847  0.5657 -0.1433
12592TIP3   OH259190   3.456   2.387   1.693 -0.0222 -0.4922  0.2994
12592TIP3    H159191   3.524   2.397   1.759 -0.5989 -1.9644  1.1511
12592TIP3    H259192   3.381   2.436   1.728  0.8002  1.9909 -1.0962
12593TIP3   OH259193   0.748   2.272  14.472 -0.6243  0.4644  0.0314
12593TIP3    H159194   0.748   2.344  14.536 -1.9382 -1.6675  2.6658
12593TIP3    H259195   0.828   2.223  14.492  0.5105  1.3567 -2.0639
12594TIP3   OH259196   5.150   6.424  12.399  0.0480 -0.7211  0.0539
12594TIP3    H159197   5.211   6.477  12.449 -0.3468  0.2505 -0.4565
12594TIP3    H259198   5.161   6.454  12.308  1.1329 -2.8024 -0.5672
12595TIP3   OH259199   4.724   6.540  11.939 -0.3912  0.7273 -0.6447
12595TIP3    H159200   4.632   6.549  11.914 -0.8295 -2.6697 -0.6917
12595TIP3    H259201   4.736   6.446  11.956  2.9135  1.1341  0.0344
12596TIP3   OH259202   4.777   5.453   3.465 -0.3809 -0.4872  0.4991
12596TIP3    H159203   4.755   5.454   3.558  1.1420 -0.3514  0.8740
12596TIP3    H259204   4.746   5.537   3.432  1.0132  0.4060  1.3750
12597TIP3   OH259205   6.131   5.181   1.531 -0.2222  0.0121 -0.2557
12597TIP3    H159206   6.117   5.088   1.512 -0.7199 -0.6497  2.8268
12597TIP3    H259207   6.092   5.194   1.617  3.3697  2.1192  1.2639
12598TIP3   OH259208   1.266   3.336  14.036  0.4965  0.2172  0.4237
12598TIP3    H159209   1.260   3.389  13.956  0.0512 -1.5336 -0.7746
12598TIP3    H259210   1.354   3.352  14.069  0.3784  1.6542  0.0882
12599TIP3   OH259211   0.165   0.623  15.459 -0.0955  0.0193 -0.6198
12599TIP3    H159212   0.149   0.599  15.550  1.3987 -0.0789 -0.3542
12599TIP3    H259213   0.258   0.647  15.457  0.2226 -1.1922 -2.3486
12600TIP3   OH259214   0.928   4.411  16.716  0.3415  0.3433 -0.5347
12600TIP3    H159215   1.020   4.431  16.733  0.8304 -1.5225 -0.8023
12600TIP3    H259216   0.929   4.325  16.676 -1.7481 -1.5022  2.9037
12601TIP3   OH259217   5.729   4.130  15.139  0.2225 -0.1184  0.3112
12601TIP3    H159218   5.716   4.036  15.154 -1.3825 -0.0448 -0.4260
12601TIP3    H259219   5.662   4.172  15.193  0.1879  0.5552 -0.2454
12602TIP3   OH259220   3.143   1.656  11.171 -0.2478  0.3972 -0.2074
12602TIP3    H159221   3.234   1.632  11.153 -0.2096  1.6700 -1.9860
12602TIP3    H259222   3.149   1.739  11.218 -0.4902  0.2945  0.0059
12603TIP3   OH259223   5.509   4.557   3.393 -0.3633  0.5462 -0.1559
12603TIP3    H159224   5.519   4.474   3.440 -0.8880  0.7291  0.2852
12603TIP3    H259225   5.427   4.594   3.427 -1.2993  0.2079 -1.9566
12604TIP3   OH259226   0.702   0.340   0.466 -0.3747 -0.7506  0.2499
12604TIP3    H159227   0.661   0.307   0.386 -0.2015 -0.8458  0.1979
12604TIP3    H259228   0.791   0.363   0.439 -0.3182 -0.7748  0.4137
12605TIP3   OH259229   1.681   0.389   0.341  0.0971  0.3861 -0.0653
12605TIP3    H159230   1.595   0.389   0.383  0.4226  0.1409  0.6131
12605TIP3    H259231   1.663   0.410   0.249 -0.8469 -1.1064 -0.2436
12606TIP3   OH259232   0.331   6.557  14.810  0.0987  0.2127 -0.7784
12606TIP3    H159233   0.254   6.571  14.754  1.1346  0.7087 -2.1444
12606TIP3    H259234   0.325   6.465  14.835 -0.8503  0.2019 -1.0032
12607TIP3   OH259235   4.375   5.392  16.199  0.1968  0.0617 -0.4124
12607TIP3    H159236   4.361   5.402  16.293 -0.1126  0.4774 -0.4965
12607TIP3    H259237   4.451   5.335  16.191 -0.6822 -1.2233  0.0857
12608TIP3   OH259238   1.374   2.392   0.322 -0.4328 -0.0930 -0.5055
12608TIP3    H159239   1.367   2.400   0.417  1.6771  0.0007 -0.3060
12608TIP3    H259240   1.298   2.340   0.296 -2.2596  1.6620  0.9368
12609TIP3   OH259241   2.819   6.258   5.836  0.4310 -0.1986  0.6859
12609TIP3    H159242   2.863   6.185   5.792  0.2855  0.7960 -1.2257
12609TIP3    H259243   2.746   6.218   5.883  0.7566 -1.3501  0.2412
12610TIP3   OH259244   1.180   0.817  17.167 -0.4023 -0.1714  0.1486
12610TIP3    H159245   1.240   0.752  17.203 -0.0049 -0.0100 -0.2109
12610TIP3    H259246   1.227   0.855  17.093 -0.4895  0.7577  0.5518
12611TIP3   OH259247   1.304   1.527   4.669 -0.3764  0.2032 -0.6949
12611TIP3    H159248   1.240   1.502   4.736 -0.6808  1.4259 -0.5001
12611TIP3    H259249   1.266   1.604   4.627  0.3390  0.1224 -1.5184
12612TIP3   OH259250   5.151   6.667  11.103 -0.4910 -0.2135 -0.4609
12612TIP3    H159251   5.223   6.728  11.117 -0.5292 -0.4014  0.6934
12612TIP3    H259252   5.156   6.644  11.010 -0.1483  1.1176 -0.7842
12613TIP3   OH259253   0.525   6.234  16.226  0.6862 -0.1097 -0.4323
12613TIP3    H159254   0.515   6.308  16.167 -0.4903 -0.2862 -0.4782
12613TIP3    H259255   0.517   6.271  16.314 -0.0763 -0.1947 -0.4602
12614TIP3   OH259256   3.407   6.250  12.550 -0.4948 -0.0045  0.3568
12614TIP3    H159257   3.467   6.244  12.475 -0.3863  1.7415  0.2548
12614TIP3    H259258   3.341   6.313  12.522 -1.3498 -0.5293  1.1561
12615TIP3   OH259259   6.120   1.355   3.980 -0.4207  0.1406 -0.5428
12615TIP3    H159260   6.200   1.393   4.016 -0.2088  0.5118 -1.3832
12615TIP3    H259261   6.108   1.273   4.029 -0.1975  0.6596  0.4172
12616TIP3   OH259262   1.063   2.491  14.540  0.0876  0.5000  0.2343
12616TIP3    H159263   1.060   2.442  14.458 -2.2166 -0.0632  0.5903
12616TIP3    H259264   1.128   2.560  14.525 -0.4991  0.6104 -2.1833
12617TIP3   OH259265   1.069   3.255  12.047  0.2113 -0.3623 -0.8650
12617TIP3    H159266   1.000   3.195  12.019  0.5128 -0.6584 -0.9913
12617TIP3    H259267   1.136   3.246  11.979  0.5614 -0.4061 -0.5136
12618TIP3   OH259268   6.355   4.391   4.469 -0.1065 -0.0988  0.4007
12618TIP3    H159269   6.285   4.400   4.534  0.0564 -2.7458  1.0678
12618TIP3    H259270   6.412   4.467   4.484 -1.4042  0.6767  1.6408
12619TIP3   OH259271   2.706   4.714   6.082  0.1856 -0.0670 -0.2120
12619TIP3    H159272   2.777   4.656   6.052 -0.3203 -0.8933  0.1542
12619TIP3    H259273   2.650   4.658   6.135 -0.6680  0.6116 -0.3713
12620TIP3   OH259274   0.348   2.908   0.831  0.1956  0.3419 -0.9153
12620TIP3    H159275   0.254   2.915   0.843  0.4159  0.0614  1.4593
12620TIP3    H259276   0.361   2.828   0.780 -0.8023 -0.3913 -0.0487
12621TIP3   OH259277   1.422   5.810  11.118 -0.1051 -0.3917  0.2831
12621TIP3    H159278   1.366   5.801  11.195 -0.5267  0.8563  0.1343
12621TIP3    H259279   1.485   5.738  11.126  0.2966  0.1121  2.1726
12622TIP3   OH259280   6.517   3.174   0.973  0.2645  0.4762  0.8690
12622TIP3    H159281   6.484   3.119   1.044 -0.0811  0.4812  0.7141
12622TIP3    H259282   6.545   3.255   1.017  0.7495  0.1872  1.0922
12623TIP3   OH259283   0.222   1.685  15.576  0.2598 -0.1930  0.0268
12623TIP3    H159284   0.144   1.731  15.608  0.8627  1.4486 -0.7932
12623TIP3    H259285   0.295   1.742  15.599  0.9523 -0.3036 -1.7475
12624TIP3   OH259286   5.976   3.024   4.299  0.1993 -0.1742 -0.3313
12624TIP3    H159287   6.013   3.062   4.379 -0.1045 -1.3043  0.3717
12624TIP3    H259288   6.009   2.934   4.298  0.3819 -0.1127 -1.6091
12625TIP3   OH259289   1.293   6.481  16.889 -0.0917  0.4030 -0.2723
12625TIP3    H159290   1.280   6.520  16.975 -2.2673  0.6484 -0.6616
12625TIP3    H259291   1.248   6.397  16.894  1.1155 -0.3044 -0.7160
12626TIP3   OH259292   3.126   2.586  14.402  0.1720  0.2910  0.8005
12626TIP3    H159293   3.147   2.523  14.333 -2.1850  0.2661  0.0279
12626TIP3    H259294   3.184   2.661  14.384  0.3786 -0.1643 -0.5434
12627TIP3   OH259295   1.017   2.922   2.900  0.3551 -0.3761 -0.0703
12627TIP3    H159296   1.031   2.947   2.991  0.6084 -0.0100 -0.2036
12627TIP3    H259297   1.105   2.907   2.865  0.4616  1.7001 -0.8476
12628TIP3   OH259298   6.300   1.141   2.381 -0.4192 -0.2663 -0.1820
12628TIP3    H159299   6.314   1.213   2.443 -0.8092 -0.3205 -0.0275
12628TIP3    H259300   6.387   1.104   2.367 -0.4149 -0.6728  0.8423
12629TIP3   OH259301   0.872   6.180   4.823  0.3018  0.0960  0.8176
12629TIP3    H159302   0.823   6.232   4.887 -0.1352  1.1701 -0.3490
12629TIP3    H259303   0.950   6.232   4.806  0.1482  0.0789  0.0655
12630TIP3   OH259304   1.751   6.579  11.308  0.0428 -0.0136  0.0781
12630TIP3    H159305   1.801   6.625  11.241  0.4028 -0.9598 -0.3160
12630TIP3    H259306   1.728   6.648  11.371  3.1273  0.2633  1.1024
12631TIP3   OH259307   4.917   5.029   2.081 -0.2757 -0.0666 -0.0933
12631TIP3    H159308   4.978   5.071   2.019 -1.4413  0.6480 -0.8001
12631TIP3    H259309   4.858   5.100   2.107 -1.9757 -1.1260 -0.9071
12632TIP3   OH259310   3.161   3.385  15.949  0.1822 -0.0269  0.0297
12632TIP3    H159311   3.070   3.359  15.962  0.4172 -0.5582  0.6795
12632TIP3    H259312   3.212   3.307  15.971  0.9042  0.9738  2.2644
12633TIP3   OH259313   0.439   3.745   4.642 -0.3997 -0.2968  0.3086
12633TIP3    H159314   0.408   3.787   4.722 -0.0244 -0.8489  0.7489
12633TIP3    H259315   0.521   3.790   4.621  0.1774 -1.0035  0.9669
12634TIP3   OH259316   6.207   4.270  12.812 -0.4249  0.1894 -0.0645
12634TIP3    H159317   6.294   4.308  12.799  0.6465 -1.1557  2.4059
12634TIP3    H259318   6.147   4.344  12.809  0.8266  1.1957 -1.4663
12635TIP3   OH259319   4.035   5.241  15.004  0.7340 -0.0653  0.2011
12635TIP3    H159320   4.004   5.169  14.949  2.1906  0.8797 -1.9732
12635TIP3    H259321   4.106   5.203  15.055  2.0160 -0.0646 -1.4998
12636TIP3   OH259322   4.504   5.255   0.663  0.1597  0.2461  0.7201
12636TIP3    H159323   4.442   5.224   0.597 -0.6289  0.4098  1.3712
12636TIP3    H259324   4.586   5.211   0.641 -0.1968 -0.0074 -0.1268
12637TIP3   OH259325   3.015   2.491   4.742  0.5745 -0.6826 -0.1896
12637TIP3    H159326   3.107   2.505   4.762 -0.2011  1.8673  2.1937
12637TIP3    H259327   3.001   2.539   4.660  1.3912 -1.3817 -0.7558
12638TIP3   OH259328   0.093   3.462  11.554 -0.4664 -0.0786  0.0175
12638TIP3    H159329   0.170   3.516  11.535 -0.4577  0.2122  0.8082
12638TIP3    H259330   0.059   3.497  11.637  0.6995 -2.5286  1.6558
12639TIP3   OH259331   0.785   0.350   5.231 -0.0433  0.0731  0.1827
12639TIP3    H159332   0.717   0.347   5.298 -0.1461 -1.1325  0.0439
12639TIP3    H259333   0.748   0.404   5.162 -2.6021 -3.6347 -1.6745
12640TIP3   OH259334   2.482   3.563   4.235 -0.0307 -0.0721  0.5996
12640TIP3    H159335   2.414   3.495   4.236  1.3733 -1.5271  0.7927
12640TIP3    H259336   2.458   3.621   4.306 -1.7272  0.1331 -0.0941
12641TIP3   OH259337   3.814   6.772  12.247 -0.2979 -0.5430  0.1251
12641TIP3    H159338   3.722   6.750  12.230 -1.2341  2.9452 -0.2992
12641TIP3    H259339   3.840   6.824  12.170  1.3355  0.2761  1.1703
12642TIP3   OH259340   4.658   3.681  14.663  0.0040 -0.4019 -0.1543
12642TIP3    H159341   4.624   3.614  14.723 -0.0348  0.4466  0.7991
12642TIP3    H259342   4.750   3.688  14.686 -0.2768  0.8005  0.6731
12643TIP3   OH259343   1.319   5.253   3.840  0.3233 -0.2034  0.3540
12643TIP3    H159344   1.282   5.191   3.777  0.9155  1.8197 -2.1161
12643TIP3    H259345   1.383   5.201   3.889  0.2541 -1.7396 -1.0745
12644TIP3   OH259346   3.238   3.710  13.914  0.0842  0.2565  0.1604
12644TIP3    H159347   3.328   3.702  13.945  0.7350 -1.1901 -1.8565
12644TIP3    H259348   3.195   3.630  13.943 -0.6448  1.0371  1.2925
12645TIP3   OH259349   3.150   1.039  16.795  0.5393  0.2605  0.5148
12645TIP3    H159350   3.224   1.045  16.856 -0.7289  2.2050  1.9849
12645TIP3    H259351   3.151   1.123  16.748 -2.0815  1.4330  2.3188
12646TIP3   OH259352   5.984   1.313  11.602 -0.0516  0.5348 -0.4750
12646TIP3    H159353   5.900   1.288  11.642  1.0377 -2.6233  0.0691
12646TIP3    H259354   5.965   1.396  11.559 -3.2774  0.3057  0.2259
12647TIP3   OH259355   6.421   5.646   1.698 -0.3150  0.1062  0.0368
12647TIP3    H159356   6.369   5.680   1.770  0.8681 -0.3501  1.1393
12647TIP3    H259357   6.383   5.559   1.681 -1.4775  0.7542 -0.8502
12648TIP3   OH259358   2.479   4.094  14.352  0.3981 -0.3114  0.6884
12648TIP3    H159359   2.476   4.130  14.441  1.3014 -2.2886  1.6053
12648TIP3    H259360   2.568   4.112  14.322  0.4701 -0.6711  0.6762
12649TIP3   OH259361   1.110   1.637   6.357 -0.2489 -0.1881  0.5186
12649TIP3    H159362   1.193   1.679   6.376 -0.2408 -1.1802  2.9671
12649TIP3    H259363   1.045   1.706   6.368 -0.0337 -0.2256  2.1943
12650TIP3   OH259364   2.926   4.674  15.694 -0.3157  0.1338 -0.5008
12650TIP3    H159365   2.986   4.664  15.768  1.1675  0.4925 -1.6169
12650TIP3    H259366   2.843   4.702  15.734  0.6601  1.0984  0.9511
12651TIP3   OH259367   0.705   0.696  15.903 -0.2439  0.5670 -0.3463
12651TIP3    H159368   0.633   0.643  15.935 -0.1139 -0.6585 -1.9975
12651TIP3    H259369   0.665   0.780  15.881 -1.6337 -0.6754 -3.0109
12652TIP3   OH259370   3.194   3.252  11.567  0.2278 -0.3276 -0.0952
12652TIP3    H159371   3.280   3.211  11.559  0.5560  0.2963  0.2098
12652TIP3    H259372   3.211   3.336  11.609 -0.6026 -0.4332  0.4597
12653TIP3   OH259373   0.793   4.861  16.152  0.3362  0.1868  0.0888
12653TIP3    H159374   0.853   4.916  16.101 -0.3511 -0.3710 -1.3889
12653TIP3    H259375   0.829   4.773  16.145 -0.0788  0.0139  0.0559
12654TIP3   OH259376   1.556   3.687  16.394 -0.0476  0.0397 -0.3191
12654TIP3    H159377   1.592   3.598  16.387  1.8565  0.5868  1.5415
12654TIP3    H259378   1.580   3.729  16.312  3.1096  0.1315  0.5112
12655TIP3   OH259379   0.806   3.923  13.103  0.4034  0.5428 -0.4433
12655TIP3    H159380   0.868   3.853  13.121 -0.9080 -0.7402 -0.6692
12655TIP3    H259381   0.790   3.917  13.009 -0.2372  0.6779 -0.3504
12656TIP3   OH259382   1.177   5.891  12.427 -0.0534  0.2082 -0.2464
12656TIP3    H159383   1.196   5.980  12.455 -0.9597  0.7513 -1.2611
12656TIP3    H259384   1.237   5.876  12.354 -0.5088  0.3372 -0.6565
12657TIP3   OH259385   5.824   0.683   1.553  0.0486  0.4771 -0.1507
12657TIP3    H159386   5.840   0.602   1.504 -1.0998 -0.7417  1.3432
12657TIP3    H259387   5.911   0.715   1.576  0.5232 -0.9414  0.1416
12658TIP3   OH259388   3.691   2.965   0.731  0.6240 -0.1188 -0.5704
12658TIP3    H159389   3.629   2.904   0.771  1.9895 -0.7299  0.7058
12658TIP3    H259390   3.665   3.051   0.766  0.0534 -0.2669 -0.6216
12659TIP3   OH259391   2.036   1.259  11.359 -0.5899 -0.1019  0.1470
12659TIP3    H159392   2.053   1.352  11.367  2.3712 -0.5735  0.3849
12659TIP3    H259393   2.057   1.223  11.445 -2.6109 -0.9356  0.3499
12660TIP3   OH259394   0.554   5.353  15.888  0.1132 -0.2595  0.1987
12660TIP3    H159395   0.534   5.283  15.950 -2.1810  0.9716  0.9631
12660TIP3    H259396   0.648   5.369  15.900 -0.0677 -0.6653  2.7285
12661TIP3   OH259397   1.599   2.232  16.814  0.0524 -0.1699 -0.9674
12661TIP3    H159398   1.597   2.274  16.900 -2.6035  1.5370 -1.7595
12661TIP3    H259399   1.688   2.196  16.808  1.3914  2.3350  1.2290
12662TIP3   OH259400   4.453   1.352  14.832 -0.6241  0.3482  0.1335
12662TIP3    H159401   4.392   1.300  14.779 -0.1663 -1.6282  1.4086
12662TIP3    H259402   4.399   1.418  14.874 -1.6051 -0.3266 -0.0315
12663TIP3   OH259403   6.009   3.653   5.112  0.3427  0.5720  0.8311
12663TIP3    H159404   6.032   3.676   5.021 -0.1568  0.9136  0.7856
12663TIP3    H259405   6.001   3.738   5.156  0.5640  0.4039  1.1874
12664TIP3   OH259406   4.054   5.481   0.872 -0.2690  0.1627 -0.0791
12664TIP3    H159407   3.994   5.492   0.946  0.8683 -0.8867  1.0586
12664TIP3    H259408   4.141   5.491   0.911  0.3385 -0.1652 -1.3212
12665TIP3   OH259409   6.750   5.088  15.259  0.2056  0.2842  0.5208
12665TIP3    H159410   6.674   5.109  15.205  0.1739 -0.7620  0.1396
12665TIP3    H259411   6.795   5.172  15.270  0.1605  0.5558 -1.0573
12666TIP3   OH259412   0.392   1.512   4.349 -0.5029  0.2780 -0.0792
12666TIP3    H159413   0.415   1.488   4.259 -0.5099  1.3704 -0.3788
12666TIP3    H259414   0.327   1.581   4.339 -1.0521 -0.1116  0.7722
12667TIP3   OH259415   1.987   2.975  16.945 -0.0092  0.8470  0.1732
12667TIP3    H159416   1.908   2.923  16.929  0.5982  0.5311 -2.2842
12667TIP3    H259417   2.014   2.951  17.033 -1.2771 -0.9408  0.1438
12668TIP3   OH259418   6.528   3.663   2.629 -0.2727 -0.1499 -0.4933
12668TIP3    H159419   6.544   3.610   2.707 -1.1981 -0.0813 -0.2421
12668TIP3    H259420   6.561   3.750   2.652  2.2594 -0.8249 -1.3000
12669TIP3   OH259421   4.681   1.678   1.378 -0.1159  0.1271 -0.2929
12669TIP3    H159422   4.737   1.603   1.360  0.4387  0.5960 -0.5662
12669TIP3    H259423   4.666   1.674   1.473 -0.6659 -0.7155 -0.4152
12670TIP3   OH259424   2.747   0.667   5.067 -0.2037 -0.0153  0.0853
12670TIP3    H159425   2.748   0.574   5.086 -3.8149 -0.1299  0.3567
12670TIP3    H259426   2.762   0.672   4.972 -1.2389 -1.0197 -0.1547
12671TIP3   OH259427   3.187   5.240   4.414 -0.1320  0.0056 -0.1924
12671TIP3    H159428   3.254   5.173   4.427 -0.0742  0.1465  0.2444
12671TIP3    H259429   3.212   5.282   4.331 -0.1103 -0.4383 -0.4140
12672TIP3   OH259430   1.985   1.333   5.299 -0.2149  0.7631  0.1765
12672TIP3    H159431   2.033   1.350   5.380  0.2322 -0.3027  0.1471
12672TIP3    H259432   2.021   1.251   5.266  2.0814  2.7824 -2.9349
12673TIP3   OH259433   5.802   4.411  11.741  0.2590  0.2380  0.2393
12673TIP3    H159434   5.875   4.358  11.773 -0.0172  0.4202  1.2125
12673TIP3    H259435   5.824   4.430  11.650  0.8127 -0.7545  0.1516
12674TIP3   OH259436   5.108   3.118  14.226 -0.2700  0.2395  0.3563
12674TIP3    H159437   5.062   3.201  14.219 -0.2039  0.1285 -2.2766
12674TIP3    H259438   5.042   3.052  14.205  0.4933 -0.0856 -1.1425
12675TIP3   OH259439   3.130   5.271   5.553  0.2057 -0.1373  0.2306
12675TIP3    H159440   3.143   5.336   5.483  2.0529 -0.1620  0.5102
12675TIP3    H259441   3.179   5.306   5.627  1.3899 -1.8963  0.3360
12676TIP3   OH259442   3.471   0.280   1.635  0.1760 -0.3300 -0.2878
12676TIP3    H159443   3.497   0.242   1.551  0.0774 -1.2813  0.0954
12676TIP3    H259444   3.408   0.217   1.671  1.6409 -0.9503  1.3626
12677TIP3   OH259445   0.838   1.107  11.682  0.4838 -0.1922 -0.8685
12677TIP3    H159446   0.897   1.170  11.723 -1.5457  0.9576  0.4789
12677TIP3    H259447   0.752   1.149  11.685 -1.3364 -3.5652  1.5698
12678TIP3   OH259448   0.530   1.484   3.208 -0.8213 -0.4256  0.4231
12678TIP3    H159449   0.540   1.564   3.260 -0.9200  0.4004 -0.8032
12678TIP3    H259450   0.571   1.504   3.124 -0.8370 -1.6715  0.0972
12679TIP3   OH259451   4.576   0.165   2.189  0.2922  0.1256 -0.2709
12679TIP3    H159452   4.665   0.195   2.203  0.0674  1.6411 -1.8729
12679TIP3    H259453   4.575   0.128   2.101 -0.8478  0.9379 -0.6268
12680TIP3   OH259454   1.268   1.848   3.444 -0.0989 -0.1915  0.1284
12680TIP3    H159455   1.273   1.772   3.386  1.3215  2.1124 -3.0898
12680TIP3    H259456   1.359   1.877   3.454 -0.5713  0.9481  1.4664
12681TIP3   OH259457   2.684   1.312  12.657 -0.0270 -0.3258  0.4516
12681TIP3    H159458   2.762   1.303  12.603 -0.7307 -1.0536 -0.4916
12681TIP3    H259459   2.630   1.377  12.610 -0.3327 -0.4305  0.6535
12682TIP3   OH259460   0.454   1.374   1.306  0.7303  0.2216  0.0811
12682TIP3    H159461   0.453   1.402   1.214 -0.5683  0.0544  0.0186
12682TIP3    H259462   0.500   1.290   1.305 -0.9327 -0.7336 -0.7509
12683TIP3   OH259463   2.304   2.666   0.741 -0.8185  0.1447 -0.0014
12683TIP3    H159464   2.356   2.621   0.675  1.4438  0.2825  1.5459
12683TIP3    H259465   2.330   2.758   0.734 -0.8344  0.2223  0.7814
12684TIP3   OH259466   4.559   4.144  13.590  0.2496 -0.5457 -0.4581
12684TIP3    H159467   4.494   4.074  13.597 -0.8430  0.2754 -1.8568
12684TIP3    H259468   4.569   4.176  13.679 -1.3093 -0.6771 -0.2043
12685TIP3   OH259469   2.894   6.126   1.521  0.0778  0.2539  0.7680
12685TIP3    H159470   2.974   6.096   1.478  0.8754  0.3098  2.1825
12685TIP3    H259471   2.915   6.213   1.554 -1.2247  1.1224 -0.5443
12686TIP3   OH259472   3.105   4.066   6.206  0.0164  0.2261  0.3516
12686TIP3    H159473   3.187   4.060   6.256 -0.5711  0.3497  1.3561
12686TIP3    H259474   3.058   3.986   6.228 -0.3787  0.4203  0.2144
12687TIP3   OH259475   3.423   5.527   3.144 -0.3784  0.0219  0.1344
12687TIP3    H159476   3.367   5.593   3.103 -2.0586 -0.3530  1.6912
12687TIP3    H259477   3.372   5.446   3.141 -0.0943 -0.2666  1.8877
12688TIP3   OH259478   0.474   6.323  11.199  0.1846  0.2118  0.2404
12688TIP3    H159479   0.481   6.418  11.198  0.2539  0.2051  0.0908
12688TIP3    H259480   0.549   6.294  11.251  1.7672  0.1030 -1.9850
12689TIP3   OH259481   0.366   2.686   5.818  0.6679  0.2039  0.1759
12689TIP3    H159482   0.326   2.672   5.904 -0.4328  0.2008 -0.3189
12689TIP3    H259483   0.382   2.597   5.785 -1.2741  0.1161 -0.6686
12690TIP3   OH259484   2.412   5.732   1.025  0.0124 -0.0258 -0.2334
12690TIP3    H159485   2.392   5.810   0.973  0.0790  1.1031  1.3601
12690TIP3    H259486   2.503   5.745   1.054  0.4137 -1.2559 -0.8746
12691TIP3   OH259487   5.485   1.232  10.973  0.1777 -0.1573  0.2829
12691TIP3    H159488   5.556   1.269  10.921  0.0096  0.2059  0.3115
12691TIP3    H259489   5.406   1.251  10.923  0.0860 -0.4236  0.3269
12692TIP3   OH259490   4.558   6.301   1.535  0.1435  0.7071  0.2415
12692TIP3    H159491   4.514   6.384   1.554 -0.1467  0.1185  2.4152
12692TIP3    H259492   4.632   6.299   1.595  0.1168 -0.6246  0.2516
12693TIP3   OH259493   5.327   3.601   5.663  0.1495  0.1963  0.8798
12693TIP3    H159494   5.270   3.611   5.586  0.9590 -0.1116  0.2278
12693TIP3    H259495   5.293   3.665   5.726  1.1701  2.4685 -0.7442
12694TIP3   OH259496   0.751   0.611   2.371  0.0260 -0.4494  0.7272
12694TIP3    H159497   0.745   0.692   2.320 -1.3313 -0.6389  0.5545
12694TIP3    H259498   0.717   0.544   2.313  2.3575 -1.4241  0.3795
12695TIP3   OH259499   0.910   5.857  12.649  0.0474 -0.2154 -0.3260
12695TIP3    H159500   0.829   5.847  12.599  0.4634 -2.5171 -0.6482
12695TIP3    H259501   0.966   5.786  12.618  1.3930  0.0264  1.4088
12696TIP3   OH259502   4.553   5.593   6.208 -0.1033  0.5533  0.9653
12696TIP3    H159503   4.473   5.589   6.260  0.0659 -0.4418  1.1671
12696TIP3    H259504   4.576   5.501   6.192 -0.3007  0.8347 -1.1217
12697TIP3   OH259505   5.226   1.842   0.093 -0.0811  0.4698  0.5694
12697TIP3    H159506   5.302   1.804   0.139  0.2742 -1.9951 -1.7895
12697TIP3    H259507   5.264   1.906   0.033  0.0588 -0.1134  0.0267
12698TIP3   OH259508   0.497   3.439  15.635 -0.5593 -0.0552  0.4338
12698TIP3    H159509   0.493   3.366  15.697 -0.4189 -0.6785 -0.2785
12698TIP3    H259510   0.576   3.423  15.584 -1.1904 -0.0871 -0.5579
12699TIP3   OH259511   3.804   4.437   4.605  0.0515  0.2960 -0.1213
12699TIP3    H159512   3.736   4.373   4.582 -0.0493 -0.1438  1.3339
12699TIP3    H259513   3.821   4.483   4.523 -2.3071  0.7281 -0.4385
12700TIP3   OH259514   2.053   0.514   0.289 -0.2855  0.3832  1.1763
12700TIP3    H159515   2.100   0.594   0.267  0.8178 -0.7482 -0.9662
12700TIP3    H259516   2.101   0.478   0.364  2.9016 -1.0338 -1.2951
12701TIP3   OH259517   2.616   5.164  10.628 -0.0846  0.4442 -0.3532
12701TIP3    H159518   2.652   5.078  10.651  0.0558  0.6996  0.4083
12701TIP3    H259519   2.543   5.176  10.689 -2.0736 -0.4441 -2.4171
12702TIP3   OH259520   6.469   6.106   6.408  0.3574  0.3104 -0.3594
12702TIP3    H159521   6.436   6.111   6.497  1.3714 -3.8803  0.4644
12702TIP3    H259522   6.552   6.153   6.410  1.6349 -1.8250  1.7227
12703TIP3   OH259523   0.651   4.055  13.399  0.0323 -0.1341 -0.6911
12703TIP3    H159524   0.603   4.098  13.329 -0.6881  0.0020 -0.1238
12703TIP3    H259525   0.737   4.097  13.398 -0.5063  1.0135 -0.4516
12704TIP3   OH259526   3.117   2.629  10.322 -0.5971  0.0797  0.0671
12704TIP3    H159527   3.149   2.631  10.232  1.6220  0.1534  0.8048
12704TIP3    H259528   3.061   2.706  10.330  0.1005  0.7067 -0.9412
12705TIP3   OH259529   1.887   5.462  13.086  0.1222  0.5311 -0.0008
12705TIP3    H159530   1.870   5.370  13.064 -0.0350  0.8497 -1.2801
12705TIP3    H259531   1.890   5.507  13.002  0.2346  1.7033  0.6061
12706TIP3   OH259532   1.219   3.254  15.052 -0.5581  0.0684  0.1366
12706TIP3    H159533   1.146   3.247  14.991  0.0518  2.1086 -0.9102
12706TIP3    H259534   1.286   3.197  15.016 -2.0581 -3.1406  1.9718
12707TIP3   OH259535   3.053   3.295   0.096 -0.5674  0.0690  0.0821
12707TIP3    H159536   3.138   3.303   0.140 -1.1931 -0.9244  1.5587
12707TIP3    H259537   3.043   3.378   0.049  0.3491  1.0368  1.4836
12708TIP3   OH259538   1.313   2.379  15.547 -0.3201  0.8362 -0.4562
12708TIP3    H159539   1.381   2.324  15.507 -0.9663  0.3211 -0.8825
12708TIP3    H259540   1.253   2.399  15.475 -1.6639 -0.3461  0.2797
12709TIP3   OH259541   2.019   4.914   3.982  0.1600  0.4342  0.6431
12709TIP3    H159542   2.016   4.822   3.954 -0.7432  0.9945 -1.2790
12709TIP3    H259543   2.080   4.955   3.920 -0.3939  1.3805  0.7145
12710TIP3   OH259544   0.153   5.409  11.920  0.2434 -0.0267 -0.3617
12710TIP3    H159545   0.227   5.435  11.975  2.0592 -0.5198 -2.3861
12710TIP3    H259546   0.161   5.314  11.913  1.4645  0.1658 -3.1147
12711TIP3   OH259547   6.199   1.231   5.664 -0.0942 -0.1877 -0.1369
12711TIP3    H159548   6.228   1.151   5.619 -1.9399  0.1864 -2.1560
12711TIP3    H259549   6.119   1.206   5.709  0.0781  0.2041  0.4000
12712TIP3   OH259550   2.153   6.556  13.245 -0.2646 -0.0549 -0.6081
12712TIP3    H159551   2.191   6.635  13.284  0.0366 -0.3366 -0.3192
12712TIP3    H259552   2.080   6.588  13.192 -1.8262  0.1973  1.5865
12713TIP3   OH259553   0.911   6.052   3.838  0.6358 -0.1033  0.5928
12713TIP3    H159554   0.818   6.035   3.824  0.7760 -1.8598  1.4576
12713TIP3    H259555   0.922   6.047   3.933  0.9460  4.2463  0.9562
12714TIP3   OH259556   2.026   4.201  14.134 -0.2160 -0.1562 -0.1275
12714TIP3    H159557   2.050   4.294  14.138  0.1657 -0.1669 -1.6474
12714TIP3    H259558   1.973   4.194  14.055 -0.5204 -1.1829  0.1575
12715TIP3   OH259559   5.508   5.635  11.050  0.0868 -0.3365  0.1679
12715TIP3    H159560   5.432   5.622  11.108 -0.4657  0.2692 -0.4000
12715TIP3    H259561   5.471   5.676  10.971  1.0411  0.2222 -0.0070
12716TIP3   OH259562   3.565   3.316  15.116  0.7952  0.1203  0.3958
12716TIP3    H159563   3.577   3.262  15.038  0.1457  1.4123 -0.6455
12716TIP3    H259564   3.583   3.257  15.189  1.1870 -1.1931 -0.7134
12717TIP3   OH259565   5.996   4.621  15.977 -0.0009  0.3021  0.1139
12717TIP3    H159566   6.037   4.707  15.977 -2.1569  1.4905 -2.9121
12717TIP3    H259567   6.017   4.584  15.891 -0.4388 -1.5472  0.7502
12718TIP3   OH259568   1.340   3.956  15.639 -0.1081 -0.1250 -0.3424
12718TIP3    H159569   1.372   3.909  15.715 -1.2257 -2.6550 -1.3229
12718TIP3    H259570   1.363   3.900  15.564 -1.8823  0.6271 -1.5336
12719TIP3   OH259571   1.267   3.372   0.137  0.2735  0.2733 -0.1520
12719TIP3    H159572   1.279   3.401   0.228 -0.8030 -1.3622  0.5608
12719TIP3    H259573   1.350   3.393   0.094  0.9812  0.6538  1.3216
12720TIP3   OH259574   4.742   0.987  16.227  0.2137  0.7362 -0.5723
12720TIP3    H159575   4.715   0.981  16.135 -0.6789  2.3737 -0.4564
12720TIP3    H259576   4.693   0.918  16.270 -1.3380  1.5667 -0.9353
12721TIP3   OH259577   3.391   1.168  13.097 -0.8025  0.4336 -0.0029
12721TIP3    H159578   3.300   1.141  13.087 -0.8113  1.1265 -2.2099
12721TIP3    H259579   3.439   1.116  13.032  0.1621  1.0880  0.1689
12722TIP3   OH259580   0.238   3.971  17.018 -0.2134 -0.0973  0.1699
12722TIP3    H159581   0.166   3.983  16.955  0.6076  1.4583 -0.5256
12722TIP3    H259582   0.270   3.882  17.001 -2.0875 -0.9149  0.6602
12723TIP3   OH259583   3.306   3.201   5.938 -0.1369 -0.3578  0.0888
12723TIP3    H159584   3.212   3.218   5.926  0.0411  0.1342 -0.7052
12723TIP3    H259585   3.323   3.121   5.888 -0.3745 -1.1946  1.3076
12724TIP3   OH259586   3.045   4.292   5.564 -0.0113  0.7292  0.3118
12724TIP3    H159587   3.078   4.333   5.644  0.9397 -0.3612  0.4992
12724TIP3    H259588   3.004   4.364   5.516  2.7052  2.2193  0.0127
12725TIP3   OH259589   1.259   2.364  13.416  0.2185  0.0729  0.8394
12725TIP3    H159590   1.221   2.382  13.330 -1.0458 -0.4729  1.2761
12725TIP3    H259591   1.205   2.295  13.453  1.0493 -0.0419  1.8872
12726TIP3   OH259592   3.382   5.412   5.202 -0.0880  0.1233  0.3310
12726TIP3    H159593   3.305   5.407   5.258 -0.8651  2.3520 -0.4296
12726TIP3    H259594   3.364   5.486   5.144  2.8081  0.9781  0.4010
12727TIP3   OH259595   5.184   5.418  11.284 -0.3452 -0.0056 -0.2667
12727TIP3    H159596   5.246   5.357  11.244  0.8098  1.6106 -1.0206
12727TIP3    H259597   5.149   5.370  11.359  1.4261 -1.1552 -0.1132
12728TIP3   OH259598   5.119   2.558   2.277  0.1716 -0.0687  0.3203
12728TIP3    H159599   5.059   2.532   2.207  0.6140 -0.3359  0.0308
12728TIP3    H259600   5.157   2.640   2.247  0.1271 -0.0235  0.3897
12729TIP3   OH259601   0.523   3.299   1.112  0.0925  0.1107  0.1953
12729TIP3    H159602   0.569   3.382   1.123  1.0185 -0.2878 -0.5334
12729TIP3    H259603   0.582   3.246   1.060 -0.6479 -0.8867  0.3472
12730TIP3   OH259604   5.736   1.008   6.195 -0.1531 -0.4995 -0.0997
12730TIP3    H159605   5.673   1.080   6.185  0.6621  0.3045  0.3700
12730TIP3    H259606   5.797   1.020   6.122  1.5153  0.9218  1.4126
12731TIP3   OH259607   4.962   4.688  12.112 -0.1047 -0.7147  0.4156
12731TIP3    H159608   5.038   4.696  12.054 -0.2319  2.2226  0.4860
12731TIP3    H259609   4.928   4.600  12.096  2.5354 -1.6372 -0.5657
12732TIP3   OH259610   2.853   2.305  16.034  0.5373 -0.3205 -0.2664
12732TIP3    H159611   2.854   2.284  15.941 -0.4455 -0.0864 -0.3377
12732TIP3    H259612   2.868   2.400  16.038  1.0763 -0.4070 -0.1542
12733TIP3   OH259613   1.362   4.143  11.711  0.1488  0.2663 -0.4293
12733TIP3    H159614   1.447   4.173  11.677  1.3135 -1.1514  1.0696
12733TIP3    H259615   1.385   4.084  11.783 -2.1324 -0.2926 -0.0992
12734TIP3   OH259616   5.742   6.243   4.661  0.0377  0.7804  0.0847
12734TIP3    H159617   5.657   6.277   4.633 -0.9670 -2.0098 -0.6681
12734TIP3    H259618   5.801   6.264   4.589 -1.0301 -0.6603 -1.3083
12735TIP3   OH259619   3.833   5.322  16.864 -0.0047 -0.0763  0.3163
12735TIP3    H159620   3.765   5.320  16.797  0.5106 -1.4331 -0.1972
12735TIP3    H259621   3.788   5.294  16.944  0.1244 -1.9993 -0.2296
12736TIP3   OH259622   6.639   1.127   1.656 -0.3467  0.1022  0.1130
12736TIP3    H159623   6.693   1.092   1.586 -1.4923 -1.3739 -0.0888
12736TIP3    H259624   6.652   1.222   1.652  0.6446 -0.0704 -1.2140
12737TIP3   OH259625   4.890   2.896   1.104  0.3791 -0.2018  0.1772
12737TIP3    H159626   4.873   2.841   1.028  1.5326 -0.9021  0.4005
12737TIP3    H259627   4.979   2.874   1.131  0.4870  1.0244  0.9161
12738TIP3   OH259628   2.306   5.471   5.147 -0.2472 -0.5561  0.2628
12738TIP3    H159629   2.311   5.565   5.135  0.9884 -0.4484  1.4494
12738TIP3    H259630   2.215   5.455   5.172 -0.2547  0.4321  0.9126
12739TIP3   OH259631   6.153   2.545   0.758 -0.5788  1.0259  0.0135
12739TIP3    H159632   6.074   2.554   0.705 -0.8828 -0.7734  0.0833
12739TIP3    H259633   6.214   2.609   0.722 -0.6493 -0.3161 -2.7683
12740TIP3   OH259634   4.504   6.706   1.359  0.5117  0.4892  0.3645
12740TIP3    H159635   4.469   6.683   1.273 -0.2154 -0.2673  0.8432
12740TIP3    H259636   4.485   6.799   1.369  0.1572  0.4691 -0.0907
12741TIP3   OH259637   1.573   0.451  12.916 -0.6566  0.2956 -0.0957
12741TIP3    H159638   1.499   0.511  12.913 -1.0663 -0.0481  1.9423
12741TIP3    H259639   1.630   0.480  12.845 -2.2993  1.1311 -1.1348
12742TIP3   OH259640   2.700   4.071   0.069 -0.3037  0.4504 -0.7310
12742TIP3    H159641   2.618   4.104   0.107  1.4094  1.6277  2.2909
12742TIP3    H259642   2.735   4.013   0.137  0.1593 -2.2073 -3.0858
12743TIP3   OH259643   2.112   3.197   3.209  0.1656  0.1856 -0.5170
12743TIP3    H159644   2.097   3.103   3.211 -0.1776  0.2201 -1.3589
12743TIP3    H259645   2.170   3.213   3.284  0.8173 -0.7923 -0.7965
12744TIP3   OH259646   1.757   0.535  15.809  0.1808  0.1560 -0.6413
12744TIP3    H159647   1.706   0.614  15.791 -1.4525 -0.6781  0.0650
12744TIP3    H259648   1.700   0.463  15.783  0.3395 -0.8736  1.5572
12745TIP3   OH259649   5.573   4.696   0.673 -0.3971 -0.4908  0.5534
12745TIP3    H159650   5.545   4.788   0.668  0.7872 -0.0126  1.9091
12745TIP3    H259651   5.666   4.700   0.694  0.2212 -2.0360 -1.5922
12746TIP3   OH259652   5.832   0.654  11.610 -0.3235  0.1492  0.4046
12746TIP3    H159653   5.873   0.580  11.654 -0.9070 -0.4879 -0.0984
12746TIP3    H259654   5.738   0.637  11.616 -0.4398  0.3807 -0.4913
12747TIP3   OH259655   3.108   4.795  13.854 -0.0614  0.1454  0.0012
12747TIP3    H159656   3.128   4.880  13.814  1.7621 -0.8327 -1.2984
12747TIP3    H259657   3.014   4.785  13.843 -0.3419  2.0461  0.3096
12748TIP3   OH259658   0.475   6.352   5.668 -0.4802  0.0606 -0.2446
12748TIP3    H159659   0.465   6.260   5.642 -2.2843 -0.2782  1.4143
12748TIP3    H259660   0.560   6.377   5.633 -0.4149 -1.8986 -1.7090
12749TIP3   OH259661   1.910   0.231  11.071  0.3703 -0.3060  0.1861
12749TIP3    H159662   1.958   0.216  10.989  0.1683 -0.2427  0.0574
12749TIP3    H259663   1.904   0.326  11.078  0.4342 -0.3101  0.3032
12750TIP3   OH259664   3.115   1.716  14.461 -0.2767 -0.7484  0.5542
12750TIP3    H159665   3.091   1.808  14.456 -0.4183 -0.8249 -0.2617
12750TIP3    H259666   3.078   1.686  14.545  0.7046  0.1899  1.3439
12751TIP3   OH259667   1.439   2.594   0.140 -0.1071 -0.0204  0.1082
12751TIP3    H159668   1.498   2.644   0.196  1.9635 -2.1585  0.0246
12751TIP3    H259669   1.417   2.516   0.191 -2.7337  0.5601  0.0114
12752TIP3   OH259670   1.986   1.803   5.116 -0.6051  0.0155 -0.0481
12752TIP3    H159671   1.902   1.759   5.123 -0.9913  0.2660 -2.3187
12752TIP3    H259672   2.051   1.735   5.137 -1.3083 -0.7072 -0.1757
12753TIP3   OH259673   0.316   1.549   5.777  0.6082 -0.3215 -0.5535
12753TIP3    H159674   0.388   1.599   5.738  0.3412  2.6692  2.3459
12753TIP3    H259675   0.239   1.573   5.725  0.8383  0.8388 -0.3936
12754TIP3   OH259676   1.655   1.291  15.789  0.1433  0.3964 -0.4892
12754TIP3    H159677   1.712   1.368  15.782 -0.0764  0.6091 -0.0184
12754TIP3    H259678   1.715   1.216  15.783  0.4852  0.6176  0.0722
12755TIP3   OH259679   3.224   4.301   2.393  0.0040 -0.1767  0.2129
12755TIP3    H159680   3.299   4.243   2.379 -0.0594 -0.0608 -0.6736
12755TIP3    H259681   3.240   4.342   2.478  0.8061 -0.3510  0.1498
12756TIP3   OH259682   0.028   4.080  12.645 -0.3097  0.4398 -0.4906
12756TIP3    H159683   0.007   4.058  12.554  0.7941  1.0604 -0.9126
12756TIP3    H259684   0.124   4.084  12.647 -0.2917 -0.1905  0.8609
12757TIP3   OH259685   1.867   0.327   0.741 -0.0933 -0.1161  0.5550
12757TIP3    H159686   1.787   0.281   0.766 -0.8412  0.1756 -1.1502
12757TIP3    H259687   1.858   0.415   0.778 -0.7492  0.0360  0.0427
12758TIP3   OH259688   3.873   4.072   1.851 -0.2381  0.3064  0.7556
12758TIP3    H159689   3.876   4.016   1.774 -2.8319 -0.8053  1.3361
12758TIP3    H259690   3.861   4.160   1.816  0.0597  0.0124 -0.1180
12759TIP3   OH259691   3.517   2.697   3.201  0.1537  0.0231  0.0090
12759TIP3    H159692   3.434   2.733   3.232 -0.0051 -0.8897  0.7278
12759TIP3    H259693   3.567   2.772   3.171 -1.3862  0.4692 -1.5725
12760TIP3   OH259694   3.116   0.504   2.277  0.0562 -0.2608  0.1804
12760TIP3    H159695   3.199   0.512   2.229 -0.6108 -1.0589 -1.1861
12760TIP3    H259696   3.112   0.582   2.332  1.4088  0.1155 -0.2109
12761TIP3   OH259697   3.201   2.952  13.809 -0.1145 -0.0153  0.5811
12761TIP3    H159698   3.235   2.934  13.721  1.6563  0.3913  1.1303
12761TIP3    H259699   3.132   2.887  13.822 -0.1280 -0.3447 -0.9427
12762TIP3   OH259700   1.668   2.970   1.700 -0.4909  0.4308  0.4310
12762TIP3    H159701   1.726   2.990   1.772  1.0219 -0.4105 -0.4934
12762TIP3    H259702   1.640   3.055   1.666 -1.1764  0.8298  1.9263
12763TIP3   OH259703   2.792   5.739   0.402  0.5045 -0.1988  0.1525
12763TIP3    H159704   2.848   5.789   0.343 -0.2976 -1.3014 -1.6416
12763TIP3    H259705   2.788   5.652   0.362 -1.1654 -0.5980  1.1154
12764TIP3   OH259706   3.091   5.999   3.019 -0.0713 -0.2056 -0.2804
12764TIP3    H159707   3.022   5.948   3.061 -1.0045 -1.0763 -2.6548
12764TIP3    H259708   3.166   5.991   3.077 -1.4219 -0.7807  1.4727
12765TIP3   OH259709   3.886   4.435  10.994  0.9708 -0.0055 -0.1186
12765TIP3    H159710   3.896   4.366  10.928  0.6410  0.4972 -0.7052
12765TIP3    H259711   3.935   4.509  10.959  1.4089  0.0308  0.5596
12766TIP3   OH259712   1.227   4.677   5.582 -0.2351  0.6326 -0.4729
12766TIP3    H159713   1.200   4.745   5.644  0.3498  0.8752 -0.4719
12766TIP3    H259714   1.288   4.721   5.524  0.1864  0.0960 -0.4455
12767TIP3   OH259715   5.352   0.344   3.476  0.9108  0.1012 -0.0834
12767TIP3    H159716   5.439   0.304   3.486  0.5936 -0.4492  0.4811
12767TIP3    H259717   5.303   0.281   3.423  0.7925  0.3251 -0.2420
12768TIP3   OH259718   5.978   0.792  12.745 -0.2517 -0.5405 -0.0167
12768TIP3    H159719   5.938   0.718  12.792 -0.2520  0.4750  1.6725
12768TIP3    H259720   6.056   0.755  12.705 -0.2524 -1.4713  0.7811
12769TIP3   OH259721   6.734   3.562   6.670 -0.6365 -0.0809  0.4942
12769TIP3    H159722   6.701   3.473   6.663 -0.0141 -0.2888  0.0911
12769TIP3    H259723   6.658   3.618   6.657 -0.8366 -0.5455 -0.3597
12770TIP3   OH259724   2.861   5.799   0.662  0.0951 -0.6327 -0.2719
12770TIP3    H159725   2.825   5.794   0.574 -2.0098 -1.7758  0.5727
12770TIP3    H259726   2.789   5.831   0.716  0.9538 -1.1038  1.2156
12771TIP3   OH259727   1.812   5.213  13.036  0.1815 -0.0526  0.0977
12771TIP3    H159728   1.830   5.134  12.985  1.0508 -0.4732  1.0194
12771TIP3    H259729   1.725   5.241  13.008 -0.4355 -1.7270  0.2646
12772TIP3   OH259730   6.114   5.675   1.778 -1.0235  0.0278  0.4095
12772TIP3    H159731   6.109   5.615   1.852 -1.1557 -0.7664 -0.2232
12772TIP3    H259732   6.039   5.652   1.724 -0.9391  0.6074  0.0412
12773TIP3   OH259733   5.878   3.591  16.734  0.1775 -0.1183  0.6987
12773TIP3    H159734   5.970   3.589  16.758  0.4954  1.1469 -0.3357
12773TIP3    H259735   5.861   3.681  16.708 -0.8811 -0.7208 -0.8897
12774TIP3   OH259736   3.968   1.613   0.547 -0.2407 -0.7387 -0.3420
12774TIP3    H159737   4.000   1.602   0.458  3.1130 -0.3406  0.6949
12774TIP3    H259738   3.994   1.532   0.592 -0.4000 -0.2530  0.6525
12775TIP3   OH259739   0.323   2.464  13.240 -0.1132 -0.3347 -0.9489
12775TIP3    H159740   0.416   2.442  13.238  0.0600  0.0573  0.8496
12775TIP3    H259741   0.278   2.379  13.237  0.2365 -0.4936 -2.7194
12776TIP3   OH259742   0.742   3.740   0.328  0.2147 -0.1875 -0.3608
12776TIP3    H159743   0.656   3.725   0.367  0.6729  0.9718  1.1939
12776TIP3    H259744   0.722   3.781   0.243 -0.7706 -1.1597 -0.6295
12777TIP3   OH259745   2.716   2.955   1.370  0.4170  0.0497  0.5304
12777TIP3    H159746   2.634   2.909   1.389  0.3220  0.8201  2.1155
12777TIP3    H259747   2.781   2.884   1.360 -0.4335 -0.5664 -0.8662
12778TIP3   OH259748   5.216   3.091   6.251  0.0777 -0.0897  0.5619
12778TIP3    H159749   5.300   3.124   6.219  0.6033 -0.0679  1.9102
12778TIP3    H259750   5.236   3.004   6.284 -0.1640  0.3774  1.9900
12779TIP3   OH259751   4.906   4.158  12.641 -0.2781 -0.0322  0.0982
12779TIP3    H159752   4.822   4.112  12.644  0.7702 -2.0454  1.3363
12779TIP3    H259753   4.889   4.241  12.685 -2.1642  0.6990 -1.8632
12780TIP3   OH259754   3.487   0.312  12.886 -0.6951  0.1891 -0.0305
12780TIP3    H159755   3.408   0.311  12.940  0.1096 -0.3331  1.1885
12780TIP3    H259756   3.531   0.394  12.907  0.6806 -0.9192  1.7994
12781TIP3   OH259757   4.203   2.310   2.123  0.2924 -0.1037  0.4669
12781TIP3    H159758   4.230   2.338   2.211 -0.4823 -0.9079  0.9701
12781TIP3    H259759   4.253   2.230   2.107 -0.1115 -0.3558  0.4706
12782TIP3   OH259760   6.468   0.414   3.548 -0.0757  0.0445  0.1971
12782TIP3    H159761   6.466   0.424   3.644  0.2488 -1.1370  0.3435
12782TIP3    H259762   6.419   0.489   3.515 -0.2863  0.4089  1.3004
12783TIP3   OH259763   2.209   6.556   5.646  0.9493  0.1712 -0.0480
12783TIP3    H159764   2.151   6.624   5.679  1.7098  0.5172  0.6004
12783TIP3    H259765   2.150   6.484   5.623  0.0130  1.4122 -1.7823
12784TIP3   OH259766   2.002   2.970  11.611  0.0464 -0.1643 -0.2717
12784TIP3    H159767   2.027   2.880  11.631  0.5558 -0.2410 -1.2232
12784TIP3    H259768   1.955   3.000  11.690 -0.0544 -1.2210  0.0801
12785TIP3   OH259769   5.075   5.865   4.941  0.2416 -0.3715 -0.1028
12785TIP3    H159770   4.983   5.867   4.968  0.3325  1.2903  0.1683
12785TIP3    H259771   5.123   5.845   5.022  0.2372  0.7469  0.1960
12786TIP3   OH259772   4.723   6.027  14.591  0.6092 -0.1699  0.2900
12786TIP3    H159773   4.751   6.112  14.625  1.5883 -0.6690  0.7562
12786TIP3    H259774   4.628   6.027  14.603  0.3162  1.6613 -1.5826
12787TIP3   OH259775   3.459   6.292  11.479 -0.1016 -0.3175 -0.0134
12787TIP3    H159776   3.425   6.382  11.477 -1.6250 -0.7849  1.9124
12787TIP3    H259777   3.425   6.253  11.398 -1.0082  0.3390  0.0226
12788TIP3   OH259778   1.983   3.492   4.757 -0.1721 -0.2638 -0.3110
12788TIP3    H159779   1.994   3.466   4.666 -0.3675 -0.2028 -0.3525
12788TIP3    H259780   2.056   3.552   4.774 -0.0005 -0.4615 -0.3562
12789TIP3   OH259781   6.161   2.301   0.857 -0.7862 -0.1887 -0.0074
12789TIP3    H159782   6.157   2.377   0.800 -0.1122  0.5840  0.9329
12789TIP3    H259783   6.238   2.316   0.913  0.0976 -2.1363 -0.5804
12790TIP3   OH259784   6.727   0.122  10.899 -0.1426 -0.1243  0.0916
12790TIP3    H159785   6.797   0.165  10.947 -0.8865  0.3091  0.8305
12790TIP3    H259786   6.686   0.192  10.848 -0.0447 -0.3697 -0.3282
12791TIP3   OH259787   4.918   6.758   0.314  0.1170  0.8083  0.5501
12791TIP3    H159788   4.868   6.797   0.386  0.1882  1.6924  0.1324
12791TIP3    H259789   5.009   6.785   0.330  0.3835 -0.2982  0.9802
12792TIP3   OH259790   4.683   0.308   2.762  0.5039 -0.0101  0.4329
12792TIP3    H159791   4.599   0.270   2.788  1.1233 -1.3140  0.6118
12792TIP3    H259792   4.662   0.364   2.687 -0.5867  0.0767  0.7840
12793TIP3   OH259793   0.034   3.066   5.511  0.0121 -0.3556  0.4825
12793TIP3    H159794  -0.047   3.118   5.516 -0.8467 -1.6692  0.5359
12793TIP3    H259795   0.078   3.085   5.594  0.3204  1.2227 -0.0053
12794TIP3   OH259796   6.766   1.288  13.648 -0.2972  0.4445  0.2707
12794TIP3    H159797   6.833   1.225  13.672 -0.9456 -0.4789 -0.3107
12794TIP3    H259798   6.726   1.253  13.569  1.5960  3.2452 -2.1162
12795TIP3   OH259799   1.294   4.523  11.482  0.1737  0.2110  0.1160
12795TIP3    H159800   1.348   4.582  11.534  0.5512  0.4607 -0.5466
12795TIP3    H259801   1.254   4.465  11.546  2.6980 -1.2323  0.5322
12796TIP3   OH259802   1.577   1.039  13.413  0.0040 -0.6195 -0.0286
12796TIP3    H159803   1.644   1.081  13.468  0.2027  0.7159 -1.2389
12796TIP3    H259804   1.496   1.053  13.461  0.2714 -0.1410  0.2983
12797TIP3   OH259805   2.470   2.161  12.478 -0.0405  0.1451  0.5939
12797TIP3    H159806   2.412   2.122  12.413  0.1550  0.4597  0.2299
12797TIP3    H259807   2.412   2.197  12.545 -0.3557  2.0210 -0.6305
12798TIP3   OH259808   6.782   6.196  16.785  0.5133 -0.2852 -0.2160
12798TIP3    H159809   6.872   6.218  16.807  0.1061  0.8235  0.3997
12798TIP3    H259810   6.760   6.253  16.711 -0.0377  0.2643  0.3623
12799TIP3   OH259811   4.878   4.226  11.621  0.2752 -0.3385  0.2315
12799TIP3    H159812   4.876   4.244  11.715 -0.2660 -0.4159  0.2335
12799TIP3    H259813   4.970   4.239  11.596  0.1936  0.9555  0.5247
12800TIP3   OH259814   5.015   6.439  13.576 -0.7933  0.1916 -0.1892
12800TIP3    H159815   4.938   6.386  13.555 -0.8050  0.2394 -0.2686
12800TIP3    H259816   5.050   6.400  13.656 -1.0233  0.3031 -0.0339
12801TIP3   OH259817   2.647   3.995  15.124 -0.4607  0.0273  0.4578
12801TIP3    H159818   2.567   4.020  15.170 -0.4431 -0.2826  0.6642
12801TIP3    H259819   2.616   3.951  15.044 -0.4922  1.1179 -0.1518
12802TIP3   OH259820   6.024   6.442   1.550  0.3817  0.2467 -0.3946
12802TIP3    H159821   6.055   6.451   1.639  0.5446  1.2083 -0.5366
12802TIP3    H259822   5.989   6.353   1.545  0.9498 -0.0295  0.4352
12803TIP3   OH259823   5.059   4.597  13.659  0.3059  0.2322 -0.5342
12803TIP3    H159824   4.982   4.601  13.715 -0.1723  1.2942 -1.2378
12803TIP3    H259825   5.072   4.687  13.628  2.3283  0.2613  0.2183
12804TIP3   OH259826   2.673   0.676  14.853 -0.2665 -0.4221  0.2122
12804TIP3    H159827   2.748   0.619  14.867  0.7303  0.9144  0.6132
12804TIP3    H259828   2.651   0.664  14.760  1.7683  0.5935 -0.4894
12805TIP3   OH259829   0.565   3.022   4.750 -0.9734 -0.2281 -0.4096
12805TIP3    H159830   0.479   3.005   4.788 -0.6531 -0.5891  0.1922
12805TIP3    H259831   0.602   2.935   4.734 -0.7519 -0.0778 -0.7340
12806TIP3   OH259832   1.375   1.512  15.766  0.6639 -0.0261  0.3791
12806TIP3    H159833   1.432   1.459  15.712 -1.1494 -0.2810 -1.3993
12806TIP3    H259834   1.427   1.533  15.844  1.8853 -3.2814  0.5660
12807TIP3   OH259835   2.836   6.296  14.524 -0.2360 -0.4142 -0.4756
12807TIP3    H159836   2.799   6.207  14.525 -2.8411  0.5718  0.6754
12807TIP3    H259837   2.874   6.305  14.437 -1.7252 -2.0062 -1.3701
12808TIP3   OH259838   4.694   3.024  13.618 -0.1292 -0.1485 -0.2471
12808TIP3    H159839   4.607   2.985  13.614  0.5704 -1.7157 -1.3585
12808TIP3    H259840   4.732   3.009  13.531  1.1090  0.8326  0.0905
12809TIP3   OH259841   3.412   1.496  14.275 -0.7469  0.4201  0.5163
12809TIP3    H159842   3.429   1.447  14.195 -0.6179  1.2087  0.0470
12809TIP3    H259843   3.406   1.429  14.344  2.8636 -0.0928  0.5227
12810TIP3   OH259844   5.581   4.414  12.604 -0.0039  0.1559 -0.6087
12810TIP3    H159845   5.675   4.423  12.592  0.5135 -1.7630  1.2441
12810TIP3    H259846   5.548   4.382  12.520  0.7351  2.1258 -1.6914
12811TIP3   OH259847   2.173   3.268  13.186 -0.1475  0.0486  0.0140
12811TIP3    H159848   2.174   3.310  13.100  0.9658 -0.1950 -0.1042
12811TIP3    H259849   2.135   3.182  13.171  0.0583  0.0008 -0.2372
12812TIP3   OH259850   2.127   4.351  16.655 -0.5039 -0.0537  0.3733
12812TIP3    H159851   2.126   4.366  16.750 -0.3512 -1.4701  0.6287
12812TIP3    H259852   2.108   4.257  16.646  0.8181 -0.2281 -0.9230
12813TIP3   OH259853   3.591   4.140  15.777 -0.0616  0.4981  0.1355
12813TIP3    H159854   3.650   4.121  15.704 -1.3511  1.0817 -1.0989
12813TIP3    H259855   3.640   4.203  15.830 -0.3017  2.6392 -1.9932
12814TIP3   OH259856   1.262   3.414   4.892  0.0328 -0.8071  0.1085
12814TIP3    H159857   1.318   3.345   4.857  1.1500 -0.2434  0.7245
12814TIP3    H259858   1.193   3.425   4.827 -1.5785 -4.1211  1.0408
12815TIP3   OH259859   2.156   0.617  12.310  0.5590  0.4750  0.5484
12815TIP3    H159860   2.096   0.648  12.242 -0.1678 -0.0681  0.9362
12815TIP3    H259861   2.235   0.592  12.262  0.9752  2.3971  0.1687
12816TIP3   OH259862   1.032   4.670  16.543  0.0546  0.0658 -0.4911
12816TIP3    H159863   1.039   4.690  16.450 -0.0183 -1.2127 -0.7877
12816TIP3    H259864   0.948   4.625  16.551 -0.8631  1.8256  0.5323
12817TIP3   OH259865   2.269   0.497  16.355  0.1231  0.8189  0.5068
12817TIP3    H159866   2.264   0.466  16.446 -0.3422  0.0438  0.2282
12817TIP3    H259867   2.296   0.588  16.362 -0.0994  0.8214  1.4360
12818TIP3   OH259868   0.184   3.280   1.437  0.3456 -0.4355 -0.3323
12818TIP3    H159869   0.139   3.254   1.517  2.0908 -1.8431  0.2844
12818TIP3    H259870   0.173   3.375   1.432  0.3058 -0.2900  1.6813
12819TIP3   OH259871   2.722   1.758  17.130  0.0437  0.1423 -0.2639
12819TIP3    H159872   2.696   1.740  17.039 -0.4879 -0.6078  0.0323
12819TIP3    H259873   2.736   1.672  17.169  2.5427  0.4754 -0.2554
12820TIP3   OH259874   0.050   4.555   1.518 -0.0634  0.0368  0.5937
12820TIP3    H159875  -0.022   4.559   1.455  0.1868 -0.6571  0.2483
12820TIP3    H259876   0.095   4.638   1.509  1.1384 -0.7629 -1.5640
12821TIP3   OH259877   4.826   6.511   0.647 -0.1153 -0.3204  0.0601
12821TIP3    H159878   4.749   6.464   0.615  0.6449 -1.0968 -0.7056
12821TIP3    H259879   4.888   6.509   0.573  0.4255  0.7829  0.4590
12822TIP3   OH259880   1.101   5.351  11.973 -0.1577 -0.0778 -0.2007
12822TIP3    H159881   1.051   5.430  11.996  2.1565  1.8385 -1.2938
12822TIP3    H259882   1.140   5.323  12.056 -1.1398 -0.1771  0.2331
12823TIP3   OH259883   4.857   5.754   4.472 -0.1374  0.5260 -0.2303
12823TIP3    H159884   4.842   5.660   4.474 -1.6490  0.7403  0.6789
12823TIP3    H259885   4.884   5.773   4.382 -2.3055 -0.4708 -1.1763
12824TIP3   OH259886   4.254   5.727   9.879  0.5371  0.7614 -0.0305
12824TIP3    H159887   4.321   5.658   9.881 -0.2623 -0.0235  0.3595
12824TIP3    H259888   4.259   5.767   9.966 -0.4921 -0.2922  0.5377
12825TIP3   OH259889   3.541   1.957  15.358 -0.7064 -0.3700  0.1995
12825TIP3    H159890   3.566   1.889  15.420  0.4495 -1.2217 -1.1351
12825TIP3    H259891   3.522   2.033  15.412  1.0313 -0.8386  1.5645
12826TIP3   OH259892   0.101   2.695  14.082  0.1005 -0.1839 -0.5954
12826TIP3    H159893   0.052   2.752  14.140 -0.1114 -2.3633  1.5475
12826TIP3    H259894   0.039   2.626  14.058  0.8287 -0.5018 -1.6578
12827TIP3   OH259895   2.294   4.780  13.474  0.0087  0.4998  0.3861
12827TIP3    H159896   2.385   4.768  13.446 -0.5518 -0.1058 -1.2914
12827TIP3    H259897   2.288   4.731  13.557  1.8014  2.6206  1.8888
12828TIP3   OH259898   0.467   5.358   6.477 -0.0161  0.4459 -0.5173
12828TIP3    H159899   0.377   5.387   6.495 -0.2940 -0.9659  0.5746
12828TIP3    H259900   0.457   5.266   6.453  1.2635 -0.2083  1.2449
12829TIP3   OH259901   6.600   5.895  12.333  0.4344  0.3991  0.1286
12829TIP3    H159902   6.665   5.873  12.267 -0.1266 -0.1065 -0.2689
12829TIP3    H259903   6.516   5.890  12.287 -0.2674 -2.8257  1.4987
12830TIP3   OH259904   4.523   4.376   0.187 -0.2338 -0.1558 -0.7807
12830TIP3    H159905   4.580   4.422   0.125  0.7997 -0.4299 -0.0681
12830TIP3    H259906   4.492   4.444   0.246  0.3300 -0.1824 -0.4487
12831TIP3   OH259907   2.928   0.323  13.181 -0.0729 -0.0149  0.4794
12831TIP3    H159908   2.969   0.384  13.242 -1.1375 -0.7024  1.9244
12831TIP3    H259909   2.903   0.248  13.234  0.5426 -1.4293 -1.1285
12832TIP3   OH259910   2.470   4.875   2.151 -0.0096  0.1680 -1.1222
12832TIP3    H159911   2.376   4.891   2.158 -0.1868 -0.8648 -0.9433
12832TIP3    H259912   2.478   4.815   2.077  0.3815 -0.6804 -0.4100
12833TIP3   OH259913   0.582   4.183  14.815  0.0399 -0.0932 -0.0789
12833TIP3    H159914   0.635   4.186  14.735  0.8013 -0.5260  0.3971
12833TIP3    H259915   0.645   4.196  14.886 -0.3313 -1.6529  0.5662
12834TIP3   OH259916   3.286   3.325  13.127  0.0300 -0.5697  0.4022
12834TIP3    H159917   3.316   3.302  13.215  0.0252  0.3841  0.6626
12834TIP3    H259918   3.215   3.388  13.142 -0.1672 -0.6279 -0.2777
12835TIP3   OH259919   2.745   2.089  11.389 -0.1281  0.7376 -0.4544
12835TIP3    H159920   2.714   2.018  11.446 -2.3112  2.3977  0.6155
12835TIP3    H259921   2.789   2.045  11.317 -0.3007 -1.6253  0.7732
12836TIP3   OH259922   1.360   5.869  17.037  0.2230 -0.1462  0.1327
12836TIP3    H159923   1.372   5.964  17.030  1.5108 -0.1938  1.3845
12836TIP3    H259924   1.391   5.835  16.954  2.7743  0.3017  0.8311
12837TIP3   OH259925   2.304   4.812   4.500  0.3131 -0.3927 -0.1734
12837TIP3    H159926   2.214   4.799   4.531  0.1985  2.0090  0.7197
12837TIP3    H259927   2.293   4.837   4.408  0.1441 -0.7758 -0.2630
12838TIP3   OH259928   3.720   3.859  15.650  0.3937 -0.0485  0.3039
12838TIP3    H159929   3.720   3.765  15.635  3.3399  0.0949 -1.4297
12838TIP3    H259930   3.627   3.884  15.651 -0.4298 -2.8430  0.1276
12839TIP3   OH259931   2.066   2.745  16.494  0.7408 -0.1031 -0.1775
12839TIP3    H159932   2.050   2.770  16.585 -3.0380  1.2903 -1.0090
12839TIP3    H259933   2.077   2.650  16.497  1.3725 -0.0208  1.7614
12840TIP3   OH259934   3.709   0.099   4.933  0.1288 -0.1381 -0.1476
12840TIP3    H159935   3.731   0.064   5.019 -0.2013 -0.3080 -0.1306
12840TIP3    H259936   3.782   0.075   4.877  0.4662  0.1918  0.1414
12841TIP3   OH259937   4.130   3.605   2.353 -0.8917 -0.0451 -0.1211
12841TIP3    H159938   4.138   3.684   2.300 -1.5977 -0.7857 -1.3659
12841TIP3    H259939   4.153   3.534   2.294  1.0879 -0.7233  1.3466
12842TIP3   OH259940   6.332   6.351  13.269 -0.4307 -0.4735 -0.0371
12842TIP3    H159941   6.248   6.397  13.265  0.0741  0.3926 -1.9113
12842TIP3    H259942   6.315   6.273  13.321 -2.4181 -0.3677 -0.4627
12843TIP3   OH259943   5.091   4.839  14.815  0.5691  0.9486  0.1058
12843TIP3    H159944   5.129   4.763  14.771  1.1877  0.8115  0.8583
12843TIP3    H259945   5.110   4.913  14.757  0.2307  0.5826 -0.4808
12844TIP3   OH259946   2.950   6.272  16.670 -0.1078 -0.1905 -0.1727
12844TIP3    H159947   2.979   6.286  16.760  0.9453  1.5814 -0.7427
12844TIP3    H259948   2.872   6.327  16.661  0.4180  0.4894 -0.6409
12845TIP3   OH259949   0.058   3.704  15.524  0.3911  0.0413  0.0019
12845TIP3    H159950   0.008   3.637  15.476 -0.1109  1.1012 -1.0307
12845TIP3    H259951   0.116   3.655  15.581  0.2305 -1.2856 -0.9216
12846TIP3   OH259952   4.350   2.532  16.863 -0.1879  0.3774 -0.3660
12846TIP3    H159953   4.369   2.442  16.889  0.1837  0.1918 -1.2542
12846TIP3    H259954   4.266   2.528  16.819 -1.1110  0.7891  1.2632
12847TIP3   OH259955   5.869   1.205   1.144  0.2735 -0.6040  0.2748
12847TIP3    H159956   5.914   1.136   1.192  0.2933 -1.2318 -0.6428
12847TIP3    H259957   5.905   1.202   1.056 -0.9663 -0.6008 -0.2632
12848TIP3   OH259958   3.943   0.696  12.179  0.0994 -0.0935  0.5740
12848TIP3    H159959   4.036   0.676  12.181  0.5679  1.8293  0.0170
12848TIP3    H259960   3.924   0.713  12.086 -1.0100 -1.1923  0.5621
12849TIP3   OH259961   4.042   6.093  13.162 -0.2715  0.2751  0.1285
12849TIP3    H159962   4.100   6.023  13.133  2.3118  1.5585  1.8535
12849TIP3    H259963   4.060   6.166  13.103 -1.9564  0.0131 -0.7970
12850TIP3   OH259964   1.916   0.585   0.962  0.6341  0.2784 -0.0675
12850TIP3    H159965   1.861   0.591   1.040  0.7681 -0.7235  0.1217
12850TIP3    H259966   1.970   0.664   0.964  0.1807  0.5780  0.5021
12851TIP3   OH259967   5.330   1.723   1.078 -0.2670  0.7695 -0.2120
12851TIP3    H159968   5.368   1.783   1.142 -0.5188  0.4394  0.2498
12851TIP3    H259969   5.274   1.665   1.129  1.0651 -0.7728 -0.4413
12852TIP3   OH259970   3.753   5.018   4.858  0.0717 -0.0539 -0.2168
12852TIP3    H159971   3.706   4.949   4.812 -0.6217  0.9786 -1.0994
12852TIP3    H259972   3.835   5.027   4.811 -0.2392  0.3568 -0.6912
12853TIP3   OH259973   0.340   5.538   2.034  0.1829  0.8547 -0.1080
12853TIP3    H159974   0.367   5.583   1.953  0.2745  1.8054  0.4326
12853TIP3    H259975   0.330   5.447   2.009  0.6974  1.0570 -1.0834
12854TIP3   OH259976   2.102   3.156   2.517 -0.7333  0.1909 -0.4153
12854TIP3    H159977   2.090   3.062   2.504 -0.4514  0.1468 -0.3567
12854TIP3    H259978   2.125   3.165   2.610 -1.7905  0.4153 -0.1567
12855TIP3   OH259979   4.096   5.506   3.643  0.0721 -0.4321 -0.1185
12855TIP3    H159980   4.184   5.541   3.629  0.3615 -0.0733  2.1797
12855TIP3    H259981   4.041   5.584   3.650  0.1256 -0.4884  1.4362
12856TIP3   OH259982   4.150   4.281  12.545  0.5468  0.2288  0.0639
12856TIP3    H159983   4.084   4.316  12.606 -1.5875 -2.1351 -0.6876
12856TIP3    H259984   4.176   4.198  12.584  0.8980 -0.2283 -1.1161
12857TIP3   OH259985   3.466   1.570  12.703  0.0310  0.0135  0.9354
12857TIP3    H159986   3.526   1.627  12.750 -0.5953  0.1033  1.6448
12857TIP3    H259987   3.453   1.495  12.761  1.2221 -1.1120 -0.1881
12858TIP3   OH259988   2.969   1.513  14.062  0.3912  0.1297  0.0341
12858TIP3    H159989   2.960   1.577  13.991 -0.4108 -0.4771 -0.4315
12858TIP3    H259990   3.052   1.534  14.104  0.7029  0.7226 -0.8677
12859TIP3   OH259991   4.116   3.024   1.702 -1.1815  0.2998  0.9660
12859TIP3    H159992   4.041   3.006   1.645 -0.8170 -1.5026  0.9813
12859TIP3    H259993   4.097   2.975   1.782  0.3548 -0.9278  0.6367
12860TIP3   OH259994   5.815   4.872  14.648  0.0233  0.8352 -0.3897
12860TIP3    H159995   5.803   4.829  14.732  0.1352  1.8406  0.1512
12860TIP3    H259996   5.778   4.811  14.584 -0.6832  0.3641  0.4556
12861TIP3   OH259997   5.314   4.086  13.145 -0.0502  0.2852  0.0004
12861TIP3    H159998   5.384   4.091  13.210  1.1350 -0.0786 -1.1986
12861TIP3    H259999   5.329   4.161  13.087 -0.2433 -0.1628 -0.6460
12862TIP3   OH260000   6.143   3.721  14.912  0.4133  0.2431 -0.0525
12862TIP3    H160001   6.163   3.628  14.919  0.0723  0.2527  1.3455
12862TIP3    H260002   6.053   3.723  14.878  0.6756  0.0944 -0.7822
12863TIP3   OH260003   1.797   6.264  12.475  0.8443 -0.3527  0.3791
12863TIP3    H160004   1.866   6.236  12.535  1.5728  0.2157 -0.1570
12863TIP3    H260005   1.837   6.337  12.427 -0.0477 -0.1910 -0.1295
12864TIP3   OH260006   2.146   1.507   2.606  0.0739  0.4745  0.2153
12864TIP3    H160007   2.176   1.458   2.682 -1.7401 -0.3899  0.4109
12864TIP3    H260008   2.055   1.482   2.595  0.0077  1.3576 -1.6502
12865TIP3   OH260009   6.536   4.632  10.628  0.1769  0.4408 -0.0082
12865TIP3    H160010   6.598   4.573  10.671  0.3749 -0.4850 -1.4839
12865TIP3    H260011   6.454   4.618  10.675  0.1133 -1.3879 -0.5953
12866TIP3   OH260012   2.766   0.538   0.085  0.6787 -0.2552  0.1600
12866TIP3    H160013   2.672   0.555   0.090  0.4342 -1.4899 -0.0094
12866TIP3    H260014   2.790   0.562  -0.005  0.6360  0.5108  0.3430
12867TIP3   OH260015   0.877   2.358  16.839 -0.6263  0.0821  0.2946
12867TIP3    H160016   0.967   2.391  16.842 -0.3189 -0.6174 -0.7248
12867TIP3    H260017   0.869   2.300  16.914 -0.0890 -0.1695  0.1614
12868TIP3   OH260018   0.989   4.117  13.456  0.5273 -0.0249 -0.3364
12868TIP3    H160019   1.042   4.197  13.464  1.4458 -0.6770  0.4821
12868TIP3    H260020   1.037   4.062  13.395  0.9064 -0.6891  0.5346
12869TIP3   OH260021   1.802   4.011   5.480  0.1475 -0.3437  0.3915
12869TIP3    H160022   1.706   4.010   5.480  0.1318  0.4994  0.3418
12869TIP3    H260023   1.827   3.922   5.458 -0.6362 -0.3499 -0.5330
12870TIP3   OH260024   0.287   3.359  11.215  0.2229 -0.6078 -0.1939
12870TIP3    H160025   0.231   3.319  11.148  0.3666  1.0044 -1.3393
12870TIP3    H260026   0.341   3.421  11.166  1.0750 -0.1477  1.2893
12871TIP3   OH260027   0.548   0.551   5.562 -0.1150 -0.1360  0.1364
12871TIP3    H160028   0.619   0.615   5.573 -0.1927 -0.0330  0.0462
12871TIP3    H260029   0.468   0.602   5.578 -0.1974 -0.1180 -0.3414
12872TIP3   OH260030   1.344   2.088  16.368 -0.7858 -0.2159 -0.0033
12872TIP3    H160031   1.359   2.009  16.420  1.2569  0.0816 -0.0824
12872TIP3    H260032   1.431   2.121  16.348 -1.4544 -0.0501 -3.2290
12873TIP3   OH260033   2.257   5.097  13.320 -0.0632 -0.2267  0.2333
12873TIP3    H160034   2.215   5.071  13.238 -0.9846 -1.0765  0.9419
12873TIP3    H260035   2.348   5.113  13.297  0.2870 -2.8605 -0.5345
12874TIP3   OH260036   0.143   5.650  11.812 -0.1857 -0.0213 -0.5445
12874TIP3    H160037   0.106   5.570  11.848 -0.6415  0.6774  0.6237
12874TIP3    H260038   0.235   5.630  11.795 -0.5552 -1.1065 -1.3314
12875TIP3   OH260039   1.209   6.445  12.987  0.7466  0.2834 -0.7455
12875TIP3    H160040   1.150   6.467  12.914  0.0385 -1.6499 -0.8016
12875TIP3    H260041   1.273   6.385  12.950  0.2249 -0.9326  0.2374
12876TIP3   OH260042   4.890   1.858   0.156 -0.1032 -0.1567  0.1216
12876TIP3    H160043   4.829   1.931   0.169  2.2975  2.3067 -1.1539
12876TIP3    H260044   4.840   1.792   0.109 -1.8528  1.6305 -0.6579
12877TIP3   OH260045   3.851   4.977   4.428 -0.4740 -0.1940 -0.1031
12877TIP3    H160046   3.805   4.904   4.387  0.4794 -0.9822  0.1825
12877TIP3    H260047   3.916   5.004   4.363 -1.4117  1.0199 -0.5700
12878TIP3   OH260048   4.735   6.488  11.529 -0.2987 -0.2574  0.0556
12878TIP3    H160049   4.782   6.564  11.495 -0.7008 -0.4852 -1.0832
12878TIP3    H260050   4.789   6.413  11.504 -0.5766 -0.4292 -0.0368
12879TIP3   OH260051   4.653   0.906  15.974 -0.0402  0.0788  0.3299
12879TIP3    H160052   4.577   0.899  15.915 -0.4988 -0.7405  0.9971
12879TIP3    H260053   4.668   0.817  16.005  0.7969  0.3427  0.7130
12880TIP3   OH260054   5.163   1.190   4.893  0.1074  0.5209  0.4451
12880TIP3    H160055   5.252   1.157   4.899  0.0023  0.0012 -0.7006
12880TIP3    H260056   5.172   1.285   4.900  0.8899  0.5665 -0.9869
12881TIP3   OH260057   1.630   0.755  13.120  0.5597 -0.1706 -0.6007
12881TIP3    H160058   1.591   0.769  13.033  0.2886  1.3591 -0.2746
12881TIP3    H260059   1.640   0.661  13.127  0.8134 -0.3175 -2.3995
12882TIP3   OH260060   3.474   1.451   4.181 -0.4094 -0.6135  0.7105
12882TIP3    H160061   3.496   1.360   4.164 -0.3767 -0.4441 -0.2379
12882TIP3    H260062   3.449   1.454   4.273  1.2331 -1.2572  1.2046
12883TIP3   OH260063   6.620   4.825  12.543  0.5066 -0.0792  0.3552
12883TIP3    H160064   6.686   4.756  12.551  1.4288  0.8880  1.4868
12883TIP3    H260065   6.603   4.831  12.449  0.1689 -2.0256  0.2327
12884TIP3   OH260066   2.414   1.322  15.768 -0.3471 -0.1124 -0.1170
12884TIP3    H160067   2.365   1.279  15.837 -0.8507  0.9926  0.2299
12884TIP3    H260068   2.499   1.277  15.767  0.6963  1.5284  3.0184
12885TIP3   OH260069   5.311   3.872  11.480 -0.0814 -0.6974  0.4948
12885TIP3    H160070   5.370   3.868  11.555 -0.9021  0.5384  1.2353
12885TIP3    H260071   5.335   3.953  11.435 -2.1403  0.6184  1.6402
12886TIP3   OH260072   3.530   4.720   6.494  0.1269 -0.3565 -1.0814
12886TIP3    H160073   3.436   4.714   6.509  0.1731 -1.3081 -1.0650
12886TIP3    H260074   3.547   4.813   6.479 -0.5360  0.0991  0.7233
12887TIP3   OH260075   4.177   6.173  14.389 -0.0996 -0.5954  0.1100
12887TIP3    H160076   4.107   6.222  14.345 -0.9429 -3.0212 -1.4332
12887TIP3    H260077   4.146   6.163  14.479 -1.1708 -0.6151 -0.2441
12888TIP3   OH260078   1.243   2.377  14.058 -0.0721 -0.0005  0.7513
12888TIP3    H160079   1.216   2.462  14.022  0.0047 -0.8972 -1.6042
12888TIP3    H260080   1.310   2.346  13.997 -0.1190 -1.7767  1.5518
12889TIP3   OH260081   1.038   5.816  12.066  0.4456  0.1002  0.0088
12889TIP3    H160082   1.002   5.818  11.978 -1.5280 -0.4828  0.7468
12889TIP3    H260083   1.020   5.903  12.102  2.0137  0.6288 -0.4125
12890TIP3   OH260084   1.276   5.911  15.685  0.1877 -0.0012 -0.3462
12890TIP3    H160085   1.277   5.815  15.686  0.5850 -0.0349  2.1102
12890TIP3    H260086   1.196   5.934  15.733  0.4526  0.9041 -0.3271
12891TIP3   OH260087   5.176   3.667   5.439  0.0634  0.7302  0.0189
12891TIP3    H160088   5.247   3.672   5.374  0.3944  0.4441  0.3539
12891TIP3    H260089   5.118   3.740   5.416 -0.8507 -0.4932 -1.7844
12892TIP3   OH260090   5.641   3.088  13.499 -0.6235 -0.2403  0.8737
12892TIP3    H160091   5.716   3.028  13.509 -0.9151 -0.8640 -0.4476
12892TIP3    H260092   5.674   3.172  13.530  1.2130 -0.0973 -1.1945
12893TIP3   OH260093   2.806   2.934   0.918  0.7646 -0.1149  0.0054
12893TIP3    H160094   2.816   2.850   0.962  1.0197 -0.4337 -0.6516
12893TIP3    H260095   2.863   2.928   0.841  0.8354  0.6798 -0.0173
12894TIP3   OH260096   2.512   0.249  14.659  0.1234  0.0330  0.4198
12894TIP3    H160097   2.535   0.167  14.616  3.0337  0.3095  1.1708
12894TIP3    H260098   2.514   0.229  14.753 -0.6410  0.6397  0.5797
12895TIP3   OH260099   0.872   5.087   0.960  0.0343  0.7303 -0.3364
12895TIP3    H160100   0.793   5.126   0.923 -0.1878  0.0894 -0.5598
12895TIP3    H260101   0.923   5.060   0.884  0.5556  1.3050 -0.1947
12896TIP3   OH260102   6.086   0.371  11.982  0.4332  0.1055  0.6237
12896TIP3    H160103   6.120   0.380  12.071  0.6482  1.5473  0.4198
12896TIP3    H260104   6.163   0.351  11.929  0.4021 -0.1456  0.6727
12897TIP3   OH260105   0.059   4.083  14.019  0.1139 -0.6275  0.3818
12897TIP3    H160106   0.073   4.020  14.089  2.3225 -3.3716 -2.2296
12897TIP3    H260107   0.018   4.031  13.949 -0.6360  1.5764 -0.9025
12898TIP3   OH260108   3.508   6.179   2.129 -0.3335 -0.4416 -0.4109
12898TIP3    H160109   3.468   6.264   2.108  2.5353  0.9931 -0.5766
12898TIP3    H260110   3.519   6.136   2.045 -0.9204 -0.5811 -0.4230
12899TIP3   OH260111   0.612   4.200   1.177 -1.2347 -0.5232 -0.1962
12899TIP3    H160112   0.656   4.136   1.122 -1.3827 -0.2835 -0.5974
12899TIP3    H260113   0.634   4.174   1.266 -1.1517 -1.0309 -0.3587
12900TIP3   OH260114   2.526   2.345  12.027  0.5152  0.5599 -0.0638
12900TIP3    H160115   2.434   2.321  12.019  1.1404 -1.7551 -1.5445
12900TIP3    H260116   2.548   2.386  11.944  1.3500 -1.2898 -0.8324
12901TIP3   OH260117   3.428   2.585   5.017  0.2301 -0.3844 -0.3549
12901TIP3    H160118   3.439   2.663   5.072 -0.5468 -0.6526  0.2074
12901TIP3    H260119   3.444   2.512   5.077 -0.9558 -0.6895 -0.3835
12902TIP3   OH260120   3.751   3.042   1.173  0.7102 -0.1098  0.4302
12902TIP3    H160121   3.769   2.977   1.241  0.3071  1.3362  1.9875
12902TIP3    H260122   3.655   3.043   1.166  0.7610 -0.7669 -0.7398
12903TIP3   OH260123   2.608   1.446   5.024 -0.1652  0.0542  0.1143
12903TIP3    H160124   2.565   1.363   5.004 -0.6350  0.1578  0.6550
12903TIP3    H260125   2.551   1.512   4.987  0.2988  0.1301 -0.4675
12904TIP3   OH260126   2.105   5.370   5.999 -0.0141  0.1234  0.0728
12904TIP3    H160127   2.098   5.360   5.904 -0.8273 -0.1396  0.1561
12904TIP3    H260128   2.136   5.285   6.030 -1.4231 -0.3540  0.2096
12905TIP3   OH260129   6.041   0.505  11.751  0.1711 -0.3532 -0.3916
12905TIP3    H160130   6.070   0.455  11.828 -1.7180 -2.9233 -1.2077
12905TIP3    H260131   6.116   0.501  11.691  0.5444 -1.0066  0.1024
12906TIP3   OH260132   4.986   5.259  15.224 -0.1500  0.1111  0.1200
12906TIP3    H160133   4.907   5.214  15.253 -0.4302  1.6986  2.0738
12906TIP3    H260134   4.974   5.273  15.130 -2.0106 -0.0461  0.3104
12907TIP3   OH260135   5.851   3.062   3.806 -0.0482  0.5399 -0.6952
12907TIP3    H160136   5.769   3.108   3.824 -0.6386 -0.3847 -0.9317
12907TIP3    H260137   5.903   3.072   3.886 -1.6135 -1.3944  0.6596
12908TIP3   OH260138   4.605   5.405   2.949  0.5444  0.0478 -0.6945
12908TIP3    H160139   4.558   5.482   2.980  0.5044 -0.3188  0.1700
12908TIP3    H260140   4.672   5.388   3.016  0.3050 -0.8951 -0.6717
12909TIP3   OH260141   6.730   3.984  13.787 -0.0375  0.1428 -0.0596
12909TIP3    H160142   6.711   4.068  13.745 -0.9819 -0.1750 -0.2824
12909TIP3    H260143   6.645   3.951  13.815  0.3212 -0.7579 -0.0018
12910TIP3   OH260144   1.313   4.615  11.981  0.3876 -0.1229  0.0439
12910TIP3    H160145   1.389   4.561  12.004 -0.6924 -1.5509  0.4544
12910TIP3    H260146   1.242   4.581  12.036 -0.2833  1.9979  0.5860
12911TIP3   OH260147   0.128   4.961  12.332  0.0981 -0.2665 -0.5533
12911TIP3    H160148   0.204   4.965  12.389  0.3632  1.1478 -0.9697
12911TIP3    H260149   0.141   4.881  12.281  1.2161 -0.1429 -0.4942
12912TIP3   OH260150   1.312   3.044  14.139 -0.4078 -0.4518 -0.0506
12912TIP3    H160151   1.313   3.101  14.216  0.5309 -0.4181 -0.0769
12912TIP3    H260152   1.275   3.098  14.069 -0.2369 -0.1203  0.1120
12913TIP3   OH260153   2.012   4.354   4.116 -0.1414 -0.0922  0.5186
12913TIP3    H160154   2.050   4.403   4.043 -0.4558  0.7109  0.8735
12913TIP3    H260155   2.065   4.275   4.122 -1.2620 -1.1018 -1.7637
12914TIP3   OH260156   0.744   3.300   0.111  0.5515 -0.6296  0.4615
12914TIP3    H160157   0.733   3.394   0.103  0.0465 -0.7722 -0.6977
12914TIP3    H260158   0.657   3.264   0.094  1.2143 -1.4135 -1.4835
12915TIP3   OH260159   1.692   5.829   5.802 -0.3004 -0.3715  0.2972
12915TIP3    H160160   1.718   5.832   5.710  1.6415 -0.3771  0.8105
12915TIP3    H260161   1.769   5.796   5.848 -1.6606 -1.6630  1.7948
12916TIP3   OH260162   0.627   0.273   3.549  0.8212 -0.6413 -0.0086
12916TIP3    H160163   0.673   0.228   3.478  1.2362  1.2626 -1.0066
12916TIP3    H260164   0.549   0.219   3.564  0.5878 -0.9838 -2.0990
12917TIP3   OH260165   2.613   1.786  13.750 -0.3952  0.1878  0.1109
12917TIP3    H160166   2.625   1.758  13.659  2.2693 -0.0363  0.4468
12917TIP3    H260167   2.682   1.851  13.764 -0.5999  0.0446  2.0213
12918TIP3   OH260168   5.042   1.296   4.665  0.0906 -0.3170 -0.1467
12918TIP3    H160169   5.073   1.240   4.735  1.9711  0.0744 -0.6085
12918TIP3    H260170   5.107   1.367   4.660 -0.5504  0.2166 -1.5894
12919TIP3   OH260171   6.536   1.474   6.304  0.1774  0.4783 -0.3751
12919TIP3    H160172   6.625   1.484   6.335 -0.7047 -1.2101  3.1135
12919TIP3    H260173   6.493   1.557   6.326  0.4700  0.6751 -0.5432
12920TIP3   OH260174   5.503   4.905  12.717  0.0103 -0.3628 -0.5081
12920TIP3    H160175   5.485   4.993  12.750  0.1744 -0.3591 -0.4294
12920TIP3    H260176   5.483   4.910  12.623 -0.1754 -0.2961 -0.4648
12921TIP3   OH260177   0.930   0.746  12.417  0.7303 -0.1992  0.0582
12921TIP3    H160178   0.926   0.653  12.395  0.9698 -0.5346  1.3141
12921TIP3    H260179   0.985   0.750  12.496 -3.7895  0.2573  3.5940
12922TIP3   OH260180   2.787   1.573  15.258  0.8517  0.1547  0.2789
12922TIP3    H160181   2.693   1.562  15.272  0.4066 -0.5345 -2.5218
12922TIP3    H260182   2.814   1.637  15.323 -1.9173  1.6992  0.0526
12923TIP3   OH260183   1.823   6.161   2.976 -0.4992 -0.3407 -0.1080
12923TIP3    H160184   1.918   6.147   2.970 -0.1945  0.9534  1.1650
12923TIP3    H260185   1.798   6.191   2.889  0.6344  1.1838  0.0493
12924TIP3   OH260186   5.756   3.612  13.298  0.0770  0.4891  0.7157
12924TIP3    H160187   5.776   3.698  13.263 -0.0893  1.2219  2.3505
12924TIP3    H260188   5.838   3.564  13.293 -0.2024  0.1272 -1.7416
12925TIP3   OH260189   3.158   0.685   2.470 -0.2156  0.3136  0.0629
12925TIP3    H160190   3.099   0.709   2.541  0.0618 -0.8487  0.7229
12925TIP3    H260191   3.243   0.718   2.497 -0.3240  0.8861 -0.2876
12926TIP3   OH260192   1.051   4.629  17.012  0.3327 -0.2989  0.2003
12926TIP3    H160193   1.075   4.668  17.096  1.4968  1.2945 -0.8265
12926TIP3    H260194   1.095   4.544  17.011  3.1067  1.0470 -0.1258
12927TIP3   OH260195   1.199   2.505   1.620  0.0917  0.1713  0.1181
12927TIP3    H160196   1.235   2.429   1.666 -1.0163  0.3845  1.4118
12927TIP3    H260197   1.236   2.580   1.665  0.6780  0.4243 -0.7513
12928TIP3   OH260198   3.209   0.444  12.800  0.1480 -0.3039  0.1869
12928TIP3    H160199   3.276   0.507  12.823 -0.5566  0.7122 -0.4161
12928TIP3    H260200   3.227   0.422  12.709  1.9341 -3.0154  1.0994
12929TIP3   OH260201   3.968   0.837   1.843 -0.3324 -0.0922  0.7704
12929TIP3    H160202   4.060   0.858   1.854 -0.6116  1.0893  1.0096
12929TIP3    H260203   3.932   0.839   1.931 -0.4962 -1.0689  0.7381
12930TIP3   OH260204   6.172   3.438   4.323 -0.0330  0.1610  0.2127
12930TIP3    H160205   6.127   3.460   4.242  0.4606  0.8665  0.1234
12930TIP3    H260206   6.187   3.343   4.317 -0.1886  0.1703 -0.4160
12931TIP3   OH260207   2.074   1.366   1.644  0.3998  0.3896 -0.0211
12931TIP3    H160208   2.052   1.447   1.598 -0.2991  1.0582  1.4389
12931TIP3    H260209   2.151   1.333   1.598  1.2753  2.3642 -0.0776
12932TIP3   OH260210   1.466   3.657   3.851  0.6753  0.3849 -0.1789
12932TIP3    H160211   1.499   3.727   3.794  0.6148  0.8526  0.3568
12932TIP3    H260212   1.501   3.678   3.937 -1.0767  0.9578  0.4395
12933TIP3   OH260213   1.238   5.183   1.182  0.0408  0.1676 -0.3058
12933TIP3    H160214   1.238   5.220   1.094 -0.3893 -0.4079 -0.5565
12933TIP3    H260215   1.145   5.177   1.204  0.0566 -1.3567 -0.5348
12934TIP3   OH260216   5.427   6.069  16.981  0.6538  0.1223  0.3931
12934TIP3    H160217   5.338   6.074  16.945  0.2570 -0.7271  1.2126
12934TIP3    H260218   5.484   6.082  16.906 -0.1603 -0.4812 -0.3426
12935TIP3   OH260219   4.268   1.198   3.726  0.3677 -0.2192 -0.1751
12935TIP3    H160220   4.304   1.114   3.697  0.0394 -0.4951  0.1940
12935TIP3    H260221   4.337   1.236   3.780 -0.0123 -0.9226  0.8513
12936TIP3   OH260222   4.144   1.060   2.450  0.4375 -0.1670 -0.4580
12936TIP3    H160223   4.052   1.063   2.424  0.3865  1.4839 -0.1975
12936TIP3    H260224   4.192   1.085   2.372  0.5403  0.6385 -0.1519
12937TIP3   OH260225   2.059   6.512  15.789 -0.0380  0.4798  0.4803
12937TIP3    H160226   2.114   6.563  15.849 -0.1285 -0.4775  1.4079
12937TIP3    H260227   2.021   6.443  15.844 -2.8879  1.6177  0.0580
12938TIP3   OH260228   0.965   0.582  17.068  0.7438  0.2770 -0.8046
12938TIP3    H160229   0.991   0.672  17.046  0.0043  0.2645 -1.7609
12938TIP3    H260230   0.982   0.532  16.989  1.6765 -0.5640 -0.1005
12939TIP3   OH260231   6.736   1.806   1.710  0.2434 -0.4703  0.3627
12939TIP3    H160232   6.767   1.805   1.801 -0.4554 -0.5994  0.6108
12939TIP3    H260233   6.810   1.776   1.658  0.1866 -1.8300  1.0411
12940TIP3   OH260234   0.298   4.250  11.299 -0.0570  0.0244 -0.3975
12940TIP3    H160235   0.282   4.156  11.284 -1.9526  0.5142 -1.9076
12940TIP3    H260236   0.383   4.266  11.258  1.2346 -1.3302  1.5300
12941TIP3   OH260237   2.424   2.647   5.271  0.4236  0.2525  0.2997
12941TIP3    H160238   2.390   2.723   5.318  1.9149  0.6832  0.7408
12941TIP3    H260239   2.346   2.595   5.248 -0.8057  2.6515 -1.3738
12942TIP3   OH260240   3.594   5.404  11.172 -0.4361  0.1952  0.4826
12942TIP3    H160241   3.562   5.487  11.208 -0.2429 -0.1150  1.3979
12942TIP3    H260242   3.680   5.393  11.212 -0.5658 -0.5676  0.5588
12943TIP3   OH260243   2.311   5.479  14.298  0.0052  0.1358 -0.1495
12943TIP3    H160244   2.360   5.404  14.265 -0.0398 -0.1799  0.4731
12943TIP3    H260245   2.237   5.440  14.345  0.0846  0.5586  0.3433
12944TIP3   OH260246   3.459   6.094  15.381 -0.0801  0.3718  0.4313
12944TIP3    H160247   3.392   6.111  15.447 -1.9318  1.7600 -1.6743
12944TIP3    H260248   3.427   6.016  15.334  0.1539  0.5981 -0.1091
12945TIP3   OH260249   2.442   3.441  11.339  0.4657  0.1394 -0.1455
12945TIP3    H160250   2.363   3.489  11.316 -0.9229 -2.1978 -0.6698
12945TIP3    H260251   2.416   3.386  11.413  2.1772  0.6819  0.9156
12946TIP3   OH260252   4.786   3.420   3.833 -0.3290  0.4902  0.2327
12946TIP3    H160253   4.793   3.365   3.911  1.4068 -1.4015 -1.1197
12946TIP3    H260254   4.716   3.482   3.852 -0.7613 -0.6794  2.7914
12947TIP3   OH260255   0.710   1.600   1.388  0.0061 -0.3839 -0.1221
12947TIP3    H160256   0.670   1.583   1.303 -0.9274 -0.1232  0.2553
12947TIP3    H260257   0.787   1.544   1.390 -1.5378 -2.6115  0.0285
12948TIP3   OH260258   6.508   0.099   3.828 -0.0563  0.3347 -0.2530
12948TIP3    H160259   6.566   0.113   3.753  1.5872  0.8932  1.0689
12948TIP3    H260260   6.496   0.186   3.866 -2.3477  0.3406 -0.8664
12949TIP3   OH260261   2.318   1.594   1.663 -0.0781 -0.1311  0.3622
12949TIP3    H160262   2.361   1.661   1.609  1.4762 -0.9547  0.5255
12949TIP3    H260263   2.257   1.551   1.604  0.6826 -0.1762 -0.4148
12950TIP3   OH260264   4.467   2.774   3.524  0.3074  0.2818 -0.3814
12950TIP3    H160265   4.474   2.739   3.435 -0.4832 -0.2084 -0.2581
12950TIP3    H260266   4.522   2.716   3.577 -0.1838 -0.1709 -0.3539
12951TIP3   OH260267   6.363   1.315  15.770  0.2795  0.3860 -0.3668
12951TIP3    H160268   6.292   1.264  15.808 -0.6135  0.2347 -2.1253
12951TIP3    H260269   6.415   1.250  15.722  0.1499  0.8572 -1.1577
12952TIP3   OH260270   3.690   6.132   4.499  0.0388 -0.3247 -0.4402
12952TIP3    H160271   3.728   6.171   4.420  2.1735  0.6870  1.0009
12952TIP3    H260272   3.628   6.197   4.531  0.6980  0.1863 -0.1824
12953TIP3   OH260273   3.521   5.201  14.410  0.1896 -0.0407 -0.0819
12953TIP3    H160274   3.561   5.192  14.496 -0.7195 -1.4018  0.2225
12953TIP3    H260275   3.577   5.149  14.352 -1.6931 -3.0545  0.5749
12954TIP3   OH260276   6.445   6.117   4.661  0.0324  0.2709  0.2395
12954TIP3    H160277   6.533   6.129   4.697  0.2983  3.1480 -1.0648
12954TIP3    H260278   6.392   6.182   4.705 -1.6460 -1.6761  1.2754
12955TIP3   OH260279   4.167   5.887   4.361  0.4830 -0.0196  0.5352
12955TIP3    H160280   4.210   5.878   4.446 -2.0308  1.4493  2.1064
12955TIP3    H260281   4.140   5.798   4.337 -0.0408 -0.2761  2.0203
12956TIP3   OH260282   0.762   4.034   3.043 -0.4229 -0.1522 -0.0136
12956TIP3    H160283   0.773   4.041   2.948 -0.3083 -0.3755 -0.0179
12956TIP3    H260284   0.851   4.026   3.077 -0.4746 -0.2440  0.0997
12957TIP3   OH260285   3.081   6.628  12.663 -0.3561 -0.0717  0.4710
12957TIP3    H160286   2.993   6.641  12.628  0.3701 -0.8834 -1.8015
12957TIP3    H260287   3.067   6.594  12.751 -2.3266 -1.2671 -0.2510
12958TIP3   OH260288   0.610   2.133   5.189  0.0472  0.0783 -0.2518
12958TIP3    H160289   0.607   2.193   5.115  1.1636 -0.2143 -0.5565
12958TIP3    H260290   0.556   2.174   5.256  3.1229  3.0245  0.7233
12959TIP3   OH260291   2.698   3.556  15.812 -0.0753 -0.1764 -0.0351
12959TIP3    H160292   2.734   3.557  15.724  0.7083 -0.8229  0.2612
12959TIP3    H260293   2.761   3.603  15.865  0.1648 -0.9920  0.4241
12960TIP3   OH260294   4.407   6.616   5.814 -0.3270  0.4981  0.5939
12960TIP3    H160295   4.470   6.587   5.748 -1.3638 -0.0203 -0.2088
12960TIP3    H260296   4.354   6.538   5.833 -1.2885  1.1277  0.5811
12961TIP3   OH260297   3.767   2.824   0.078 -0.2692 -0.3169 -0.2716
12961TIP3    H160298   3.713   2.781   0.011 -0.7047  2.0635 -1.5364
12961TIP3    H260299   3.833   2.872   0.029  0.4397  0.1801  1.1010
12962TIP3   OH260300   0.939   2.067   0.109 -0.6732  0.0063 -0.1126
12962TIP3    H160301   1.028   2.103   0.101 -0.2923 -1.0123 -0.6001
12962TIP3    H260302   0.891   2.134   0.156  0.5831  0.2036  0.9573
12963TIP3   OH260303   0.528   1.513  15.070 -0.3014 -0.2283  0.2045
12963TIP3    H160304   0.451   1.498  15.125  0.2902  0.3950  1.2209
12963TIP3    H260305   0.549   1.606  15.083  0.6726 -0.4140  0.0003
12964TIP3   OH260306   0.398   2.398  13.565  0.0259 -0.3794  0.2854
12964TIP3    H160307   0.429   2.371  13.479  1.5468 -2.1583  1.3186
12964TIP3    H260308   0.339   2.328  13.592 -2.6869  1.4772 -0.3485
12965TIP3   OH260309   1.446   0.424  12.124  0.1539  0.7738  0.1080
12965TIP3    H160310   1.416   0.415  12.214 -0.6438  3.8472  0.2729
12965TIP3    H260311   1.376   0.472  12.080 -0.0717 -1.7498 -2.5636
12966TIP3   OH260312   1.178   3.245  16.105 -0.1965  0.1393  0.2214
12966TIP3    H160313   1.271   3.225  16.107 -0.6312 -2.1159 -0.0024
12966TIP3    H260314   1.152   3.247  16.197  0.1691  1.5312  0.3270
12967TIP3   OH260315   2.440   2.796   4.843  0.6498  0.1804  0.2707
12967TIP3    H160316   2.345   2.786   4.851  0.6860  0.4182  1.0211
12967TIP3    H260317   2.451   2.858   4.770  0.2205  0.3063  0.3078
12968TIP3   OH260318   4.880   5.161   5.764 -0.5456 -0.5285  0.6048
12968TIP3    H160319   4.873   5.134   5.856  0.0020  0.5062  0.9734
12968TIP3    H260320   4.963   5.209   5.760 -2.0890  2.3278  0.3524
12969TIP3   OH260321   4.993   3.131  16.142  0.3012  0.1021  0.1570
12969TIP3    H160322   4.961   3.219  16.126  0.5807  0.0920 -0.4797
12969TIP3    H260323   4.977   3.116  16.235 -1.9871 -0.0990 -0.2150
12970TIP3   OH260324   1.436   5.638   2.840 -0.0785 -0.5563 -0.6393
12970TIP3    H160325   1.368   5.610   2.778 -0.0062 -2.8467  0.2296
12970TIP3    H260326   1.388   5.658   2.920  0.0678  0.0207 -0.6931
12971TIP3   OH260327   1.838   2.176   2.176  0.0431 -0.3264  0.0211
12971TIP3    H160328   1.808   2.094   2.214 -1.7892  0.0280 -0.5500
12971TIP3    H260329   1.759   2.216   2.140  1.0497  1.2413 -0.5616
12972TIP3   OH260330   3.809   2.663  16.484  0.0024  0.1279 -0.7573
12972TIP3    H160331   3.761   2.704  16.556  1.1242  0.5102 -0.1981
12972TIP3    H260332   3.876   2.727  16.461  1.2825 -1.0286 -0.4048
12973TIP3   OH260333   5.840   5.885   2.813 -0.9001 -0.4789  0.2473
12973TIP3    H160334   5.832   5.956   2.749 -0.0298 -1.2673 -0.7908
12973TIP3    H260335   5.760   5.834   2.803 -0.9995 -0.3031  0.1457
12974TIP3   OH260336   1.069   2.598  14.040 -0.2395  0.1556  0.1286
12974TIP3    H160337   1.012   2.554  14.103  0.9880 -0.2130  1.0272
12974TIP3    H260338   1.018   2.673  14.008 -1.6243 -0.8028  0.0434
12975TIP3   OH260339   0.857   1.000  12.513  0.1259 -0.1799  0.0289
12975TIP3    H160340   0.804   0.987  12.592  1.7661  0.3973  1.2782
12975TIP3    H260341   0.864   0.913  12.474  0.6748 -0.8137  1.4626
12976TIP3   OH260342   2.719   3.483  13.573  0.6435  0.4149 -0.3841
12976TIP3    H160343   2.696   3.480  13.665  0.2623 -0.8821 -0.5064
12976TIP3    H260344   2.812   3.508  13.572  0.5150  0.9589  0.3062
12977TIP3   OH260345   6.041   0.967  15.817  0.0499 -0.1444 -0.5913
12977TIP3    H160346   6.105   0.933  15.756 -0.5072 -2.0585 -0.1965
12977TIP3    H260347   5.959   0.972  15.767  0.1247  0.6785 -0.6476
12978TIP3   OH260348   0.283   5.288   4.841 -0.0291 -0.1358 -0.5175
12978TIP3    H160349   0.316   5.376   4.857  0.5646 -0.0705 -1.9738
12978TIP3    H260350   0.352   5.230   4.873  0.9262 -0.0132 -2.2404
12979TIP3   OH260351   2.997   6.055  11.282 -0.1107  0.5542  0.0967
12979TIP3    H160352   2.933   6.126  11.289  0.6150  1.2169  0.1184
12979TIP3    H260353   3.080   6.100  11.266  0.0806 -0.3573 -1.7349
12980TIP3   OH260354   4.481   4.955  13.814  0.0792  0.4202  0.5424
12980TIP3    H160355   4.460   4.947  13.907 -1.2006  3.6510  0.6926
12980TIP3    H260356   4.432   4.885  13.771 -0.9874  0.1409  2.1544
12981TIP3   OH260357   6.666   2.929   0.074  0.3522 -0.0106 -0.1847
12981TIP3    H160358   6.616   2.899  -0.002 -1.6221  0.9151  0.6780
12981TIP3    H260359   6.612   2.904   0.149 -0.7004  4.0971  0.6565
12982TIP3   OH260360   4.746   4.401  12.745  0.0514 -0.3730  0.0478
12982TIP3    H160361   4.660   4.416  12.783  0.1710 -0.1022  0.2194
12982TIP3    H260362   4.746   4.453  12.665  0.6672  1.0620  0.9298
12983TIP3   OH260363   6.454   1.067   5.881 -0.3133  0.7719 -0.3681
12983TIP3    H160364   6.428   1.020   5.802 -0.6191  2.1959 -1.1646
12983TIP3    H260365   6.545   1.092   5.866  0.1543 -0.3766  0.4734
12984TIP3   OH260366   3.387   6.366  14.619 -0.3880 -0.7263  0.1093
12984TIP3    H160367   3.442   6.444  14.610 -0.9505 -0.5638 -2.8645
12984TIP3    H260368   3.435   6.309  14.678  1.6223  0.5497 -0.2200
12985TIP3   OH260369   3.920   5.739  14.291  0.0854 -0.4775 -0.0144
12985TIP3    H160370   4.014   5.759  14.285 -0.1410  0.8771  0.4615
12985TIP3    H260371   3.883   5.777  14.212 -0.2628  0.4651  0.5758
12986TIP3   OH260372   5.284   5.437  14.209 -0.2949  0.0723 -0.6738
12986TIP3    H160373   5.273   5.399  14.296 -1.4923  1.6111 -0.1213
12986TIP3    H260374   5.359   5.390  14.172  0.4006 -0.4359  1.2733
12987TIP3   OH260375   2.179   5.876  16.227  0.3048  0.4864  0.1545
12987TIP3    H160376   2.225   5.865  16.144  0.6033  3.2082 -0.1570
12987TIP3    H260377   2.134   5.960  16.217 -2.0049 -0.4818  1.7159
12988TIP3   OH260378   0.657   0.587   2.808  0.4630  0.2355 -0.1939
12988TIP3    H160379   0.590   0.534   2.851 -0.3885  2.8177  1.9610
12988TIP3    H260380   0.638   0.579   2.715 -2.5383  0.4168  0.3130
12989TIP3   OH260381   0.610   2.839   5.757 -0.3875 -0.5301  0.0518
12989TIP3    H160382   0.642   2.772   5.697 -0.5069 -0.2830 -0.2923
12989TIP3    H260383   0.554   2.792   5.819  0.5215 -0.9512  0.5768
12990TIP3   OH260384   4.360   5.422  16.480 -0.0328  0.4647  0.2950
12990TIP3    H160385   4.284   5.365  16.468  0.9022 -0.7127 -0.1775
12990TIP3    H260386   4.430   5.364  16.507  0.7135  1.5424  0.7395
12991TIP3   OH260387   0.844   1.206   6.460  0.6613  0.5604  0.2598
12991TIP3    H160388   0.834   1.112   6.471  0.5004  0.5754  0.2414
12991TIP3    H260389   0.929   1.217   6.416  0.4706  0.3995 -0.1528
12992TIP3   OH260390   6.100   3.687   1.664 -0.4111  0.4034 -0.0288
12992TIP3    H160391   6.029   3.697   1.728  0.2699 -0.2955  0.8613
12992TIP3    H260392   6.172   3.740   1.700 -0.0785  0.1394 -0.3029
12993TIP3   OH260393   6.511   1.003   5.249 -0.0178 -0.4368 -0.9383
12993TIP3    H160394   6.569   1.078   5.234  0.7342 -0.8664 -0.2747
12993TIP3    H260395   6.435   1.039   5.294  0.2348 -0.0380 -0.8317
12994TIP3   OH260396   1.217   4.473  16.643 -0.1753 -0.1001 -0.6586
12994TIP3    H160397   1.296   4.512  16.606  0.8188  0.5910  2.0275
12994TIP3    H260398   1.153   4.544  16.644  0.7847  0.8242  1.7011
12995TIP3   OH260399   2.749   5.375   6.153 -0.5513 -0.2321  0.0948
12995TIP3    H160400   2.780   5.309   6.092  0.0407  0.8624 -0.8381
12995TIP3    H260401   2.815   5.378   6.222  0.4661  0.7224 -0.8791
12996TIP3   OH260402   5.804   5.730  16.992  0.7177 -0.0386 -0.1435
12996TIP3    H160403   5.771   5.640  17.005  1.0318 -0.0941  0.3060
12996TIP3    H260404   5.892   5.728  17.029 -0.3733  1.2563  2.9029
12997TIP3   OH260405   3.146   4.425  15.291 -0.4252  0.3162 -0.1086
12997TIP3    H160406   3.113   4.403  15.378 -1.2284 -1.2913 -0.7724
12997TIP3    H260407   3.190   4.509  15.302 -2.2272  1.1060  1.4356
12998TIP3   OH260408   6.194   3.114  13.934 -0.0247  0.3432 -0.3121
12998TIP3    H160409   6.102   3.140  13.945 -1.7889 -4.8497 -0.0890
12998TIP3    H260410   6.231   3.117  14.022 -0.7028  0.1905 -0.0183
12999TIP3   OH260411   1.751   0.762  13.911 -0.5460  0.5769  0.1371
12999TIP3    H160412   1.833   0.746  13.957  1.1149  2.4910 -1.9030
12999TIP3    H260413   1.747   0.694  13.844  0.6169  1.7840 -1.2162
13000TIP3   OH260414   3.907   6.042   0.169 -0.9715  0.1814  0.1916
13000TIP3    H160415   3.872   6.078   0.087 -1.5244 -0.7348  0.0165
13000TIP3    H260416   3.830   6.024   0.222 -0.6561 -0.0834  0.5632
13001TIP3   OH260417   6.190   5.839  14.470 -0.5830 -0.1916  0.6148
13001TIP3    H160418   6.245   5.820  14.394  2.1146 -0.8942  2.5684
13001TIP3    H260419   6.137   5.915  14.443  1.5579  0.7398 -1.3697
13002TIP3   OH260420   5.957   3.951   0.360  0.3193 -0.6498  0.5837
13002TIP3    H160421   5.883   3.927   0.305  1.6790 -2.0411 -0.7652
13002TIP3    H260422   5.940   3.907   0.444 -1.5784  1.1625  1.2318
13003TIP3   OH260423   3.236   6.269   3.076  0.0806  0.0626  0.0834
13003TIP3    H160424   3.279   6.268   3.161 -0.5099  0.2950  0.3934
13003TIP3    H260425   3.200   6.181   3.066 -0.1102  0.1267  0.2096
13004TIP3   OH260426   5.652   5.605   3.928  0.1072 -0.0423  0.3911
13004TIP3    H160427   5.600   5.535   3.968 -1.1235  1.2797  1.1764
13004TIP3    H260428   5.732   5.608   3.981  0.4998 -1.3002 -0.0928
13005TIP3   OH260429   4.124   4.079   2.134  0.4932  0.1576  0.0636
13005TIP3    H160430   4.129   4.105   2.226 -0.8085 -0.9827  0.4912
13005TIP3    H260431   4.031   4.070   2.116  0.6342  1.5133 -1.7476
13006TIP3   OH260432   6.224   3.574  16.352  0.3861 -0.4006  0.2562
13006TIP3    H160433   6.273   3.497  16.324  3.0869  1.6721 -1.1467
13006TIP3    H260434   6.167   3.594  16.277 -0.0690 -0.8101  0.4872
13007TIP3   OH260435   5.001   0.559  12.933 -0.8360 -0.7416  0.1349
13007TIP3    H160436   5.079   0.573  12.880 -0.7251 -0.5945  0.3330
13007TIP3    H260437   4.985   0.644  12.975  0.2952 -1.3768  1.9543
13008TIP3   OH260438   5.796   1.781   2.953  0.5467  0.3858 -0.5773
13008TIP3    H160439   5.738   1.850   2.985  0.4451  0.4198 -0.8280
13008TIP3    H260440   5.745   1.700   2.963 -0.4595  0.6455 -2.8720
13009TIP3   OH260441   0.130   6.601  12.742 -0.6666  0.0805  0.5539
13009TIP3    H160442   0.045   6.568  12.772  0.5040 -1.3010  2.5642
13009TIP3    H260443   0.131   6.692  12.772 -1.6513  0.2888 -0.0040
13010TIP3   OH260444   2.090   3.400  15.441 -0.1447  0.1241 -0.2461
13010TIP3    H160445   2.162   3.425  15.498 -0.2752 -0.4276  0.1659
13010TIP3    H260446   2.056   3.483  15.408 -1.2900  0.5996  1.9542
13011TIP3   OH260447   2.239   1.053   1.690 -0.2830  0.2176  0.2517
13011TIP3    H160448   2.266   1.118   1.625  0.5226  0.7731  1.1101
13011TIP3    H260449   2.163   1.010   1.651 -0.1853  0.9499 -0.7908
13012TIP3   OH260450   0.207   6.162  15.568 -0.7259  0.3535  0.0460
13012TIP3    H160451   0.283   6.119  15.607  0.1125 -0.2910 -2.1465
13012TIP3    H260452   0.208   6.251  15.605 -0.3466 -0.3505  1.8450
13013TIP3   OH260453   3.544   3.429  11.836  0.0579  0.2608  0.8973
13013TIP3    H160454   3.473   3.449  11.775  0.1947  0.7677  0.8995
13013TIP3    H260455   3.581   3.514  11.860 -0.5635  0.1508  2.3718
13014TIP3   OH260456   1.190   6.141  14.859  0.3165 -0.4783  0.8377
13014TIP3    H160457   1.225   6.067  14.910  2.4567  0.2203  0.4552
13014TIP3    H260458   1.179   6.106  14.771 -0.1273 -0.7395  0.9912
13015TIP3   OH260459   2.458   5.557   3.914 -0.0134 -0.2646  0.0269
13015TIP3    H160460   2.378   5.511   3.890 -0.0258 -0.2721  0.0827
13015TIP3    H260461   2.505   5.496   3.971  0.8200 -0.9495 -1.3301
13016TIP3   OH260462   0.982   0.740   2.948  0.4135  0.2238  0.3777
13016TIP3    H160463   0.913   0.780   2.895  0.0820 -0.1998  0.4792
13016TIP3    H260464   1.043   0.811   2.967  1.7878 -0.0392 -2.4907
13017TIP3   OH260465   6.190   3.676   5.827  0.3496  0.4415  0.1540
13017TIP3    H160466   6.129   3.734   5.783  1.5914  2.1919  0.5926
13017TIP3    H260467   6.182   3.699   5.920 -0.0831 -1.0563  0.5056
13018TIP3   OH260468   6.234   0.148   4.123 -0.0627 -0.1931 -0.2476
13018TIP3    H160469   6.178   0.090   4.174 -0.3033 -0.4701 -0.8183
13018TIP3    H260470   6.254   0.220   4.182  1.1939 -1.4119  0.8673
13019TIP3   OH260471   6.044   1.717  11.041 -0.4533 -0.2393  0.2823
13019TIP3    H160472   6.112   1.784  11.035 -0.0938 -0.4269  1.7396
13019TIP3    H260473   6.059   1.676  11.126 -1.4595 -1.3132 -0.0318
13020TIP3   OH260474   2.655   3.136  16.448 -0.2496  0.4731 -0.1313
13020TIP3    H160475   2.687   3.052  16.415  0.2379  1.0423 -1.1779
13020TIP3    H260476   2.560   3.130  16.441 -0.1617  0.7633 -2.2440
13021TIP3   OH260477   3.262   5.780   4.515  0.4629 -0.1426  0.3932
13021TIP3    H160478   3.340   5.836   4.522  0.6317 -0.3236 -0.0469
13021TIP3    H260479   3.285   5.701   4.563  0.9066 -0.5871 -0.5295
13022TIP3   OH260480   3.940   3.060  11.386  0.2707 -0.2331  0.1697
13022TIP3    H160481   3.888   2.982  11.368  0.5175 -0.2568 -0.4667
13022TIP3    H260482   3.879   3.133  11.379  0.1327 -0.3353  0.3228
13023TIP3   OH260483   0.726   3.742  12.269 -0.2374 -0.3466  0.0141
13023TIP3    H160484   0.747   3.671  12.208 -2.7074 -1.7312  0.6342
13023TIP3    H260485   0.783   3.815  12.242  2.1592 -2.4059 -0.8457
13024TIP3   OH260486   3.783   5.268   3.626  0.0984  0.4187 -0.5320
13024TIP3    H160487   3.694   5.239   3.646  0.2242  0.6953  0.5270
13024TIP3    H260488   3.781   5.362   3.643  1.7620 -0.1545  4.5828
13025TIP3   OH260489   2.754   0.409  10.743 -0.4160  0.0080  0.0296
13025TIP3    H160490   2.746   0.368  10.657 -0.5708 -1.0083  0.5109
13025TIP3    H260491   2.697   0.486  10.738 -0.3937 -0.0151 -0.7860
13026TIP3   OH260492   3.668   0.991  14.845 -0.2283 -0.0867 -1.0547
13026TIP3    H160493   3.723   1.006  14.923 -2.0823  0.9479  0.1259
13026TIP3    H260494   3.727   0.949  14.782  1.0751 -1.9601  1.2681
13027TIP3   OH260495   2.927   5.699  14.582  0.2653 -0.4869  0.3989
13027TIP3    H160496   2.868   5.685  14.656  0.7299 -1.0187  0.6800
13027TIP3    H260497   2.958   5.611  14.560 -0.0878 -0.3711 -0.6158
13028TIP3   OH260498   0.545   1.789  15.074  0.4537 -0.2323 -0.2938
13028TIP3    H160499   0.619   1.830  15.119  0.2895  1.3264 -1.3522
13028TIP3    H260500   0.468   1.834  15.109  0.0522 -1.3372  0.2727
13029TIP3   OH260501   6.699   5.309   0.842 -0.5843 -0.0700  0.0977
13029TIP3    H160502   6.650   5.228   0.856 -1.1244  0.3141  0.4585
13029TIP3    H260503   6.690   5.358   0.924 -3.0757  1.8498 -1.1962
13030TIP3   OH260504   1.967   6.113   0.098  0.0338 -0.0815 -0.1146
13030TIP3    H160505   1.962   6.022   0.066 -0.6512  0.0452 -0.3878
13030TIP3    H260506   1.923   6.111   0.183 -0.1636  0.0333 -0.2133
13031TIP3   OH260507   0.022   2.283   0.624  0.4627 -0.3799 -0.4348
13031TIP3    H160508  -0.011   2.229   0.696 -0.5684 -0.2117 -0.7508
13031TIP3    H260509   0.098   2.328   0.660  0.9520 -1.5393  0.0348
13032TIP3   OH260510   3.000   0.275  13.929 -0.3788  0.2171  0.1309
13032TIP3    H160511   3.060   0.200  13.922 -1.2438 -1.0505  3.7076
13032TIP3    H260512   2.918   0.244  13.892  0.2399  0.8420 -1.8833
13033TIP3   OH260513   5.263   2.633  14.460 -0.0610 -0.0840  0.4162
13033TIP3    H160514   5.280   2.582  14.381 -1.0019  0.0174  0.1298
13033TIP3    H260515   5.260   2.568  14.531 -0.0630 -0.2841  0.2329
13034TIP3   OH260516   1.558   6.242  12.275  0.3360  0.2690 -0.1718
13034TIP3    H160517   1.620   6.257  12.346  0.0050 -0.2277  0.2327
13034TIP3    H260518   1.534   6.150  12.284  0.2814  0.2042 -0.9242
13035TIP3   OH260519   1.453   1.123   3.502  0.3958  0.3102 -0.4159
13035TIP3    H160520   1.522   1.126   3.569  0.2316  1.9366 -0.2672
13035TIP3    H260521   1.381   1.077   3.545  1.3105 -1.2603 -0.5169
13036TIP3   OH260522   1.436   3.941  13.231 -0.0768  0.3571  0.0155
13036TIP3    H160523   1.377   4.016  13.224  0.5970  0.9901  0.7775
13036TIP3    H260524   1.523   3.980  13.242  0.3316 -0.5422  0.0955
13037TIP3   OH260525   5.266   2.796   1.481  0.3646 -0.1114  0.1196
13037TIP3    H160526   5.208   2.723   1.501 -0.1201  0.2464  0.0514
13037TIP3    H260527   5.334   2.759   1.425  1.1454 -0.9035  1.5228
13038TIP3   OH260528   6.522   0.456   4.554 -0.2453 -0.5333  0.1409
13038TIP3    H160529   6.435   0.422   4.533  0.0201 -1.8874  1.1416
13038TIP3    H260530   6.505   0.545   4.587 -0.9280  0.4408 -2.5567
13039TIP3   OH260531   2.662   6.436  16.864 -0.2126  0.4552  0.3084
13039TIP3    H160532   2.732   6.453  16.928 -0.1783  0.4619  0.2695
13039TIP3    H260533   2.603   6.375  16.908  1.0910 -1.5043 -0.5060
13040TIP3   OH260534   5.819   5.011  12.428  0.1946 -0.0619 -0.3823
13040TIP3    H160535   5.752   5.079  12.441 -0.0076 -0.1929 -0.7138
13040TIP3    H260536   5.899   5.049  12.462  0.4132  0.9386 -1.9359
13041TIP3   OH260537   2.856   3.332  15.908 -0.1605 -0.0741  0.1677
13041TIP3    H160538   2.832   3.314  15.817  1.1921  1.9079 -0.6538
13041TIP3    H260539   2.784   3.296  15.959 -1.4927 -0.2922 -1.7585
13042TIP3   OH260540   2.279   2.301   5.506 -0.1306 -0.0335  0.2941
13042TIP3    H160541   2.185   2.301   5.489 -0.1505  1.3906  0.2623
13042TIP3    H260542   2.295   2.217   5.549 -1.4410 -0.2362  0.4479
13043TIP3   OH260543   1.013   3.093   4.300  0.1335  0.5365 -0.0221
13043TIP3    H160544   0.973   3.091   4.387 -1.0177  0.5414 -0.5263
13043TIP3    H260545   1.015   3.002   4.272  0.2153  0.5642 -0.1065
13044TIP3   OH260546   3.693   4.905   1.788  0.0962  0.3894  0.3363
13044TIP3    H160547   3.652   4.869   1.868  1.7507  1.4656  1.7442
13044TIP3    H260548   3.685   5.000   1.798 -1.0372  0.5443 -1.5934
13045TIP3   OH260549   6.432   1.767  13.784 -0.4436  0.7340 -0.0364
13045TIP3    H160550   6.427   1.833  13.715  0.7247  1.3556  0.4637
13045TIP3    H260551   6.369   1.700  13.756  0.2167  0.8204 -1.8652
13046TIP3   OH260552   2.481   2.537   0.582 -0.2838 -0.5031 -0.0753
13046TIP3    H160553   2.456   2.480   0.508  0.2007 -0.0133 -0.6317
13046TIP3    H260554   2.550   2.488   0.627 -0.2083 -0.5772 -0.2667
13047TIP3   OH260555   4.433   1.713  16.107 -0.1907 -0.2449 -0.2486
13047TIP3    H160556   4.413   1.787  16.164  0.8569  0.2102 -0.4357
13047TIP3    H260557   4.392   1.735  16.023  0.4898  0.3509 -0.4362
13048TIP3   OH260558   0.873   1.187   1.920 -0.3114  0.0489 -0.6705
13048TIP3    H160559   0.843   1.259   1.864 -0.1527 -0.6603 -1.6894
13048TIP3    H260560   0.957   1.161   1.884 -1.0500 -1.6559 -1.3127
13049TIP3   OH260561   3.356   6.016   4.303  0.1949 -0.2213 -0.0101
13049TIP3    H160562   3.421   5.946   4.315 -0.0330 -0.3811  0.3069
13049TIP3    H260563   3.405   6.097   4.317  0.2113 -0.3591  0.8062
13050TIP3   OH260564   1.026   5.741   6.335  0.3265 -0.0689  0.1099
13050TIP3    H160565   1.109   5.694   6.331  1.5437  1.8397  1.3306
13050TIP3    H260566   1.035   5.800   6.410 -1.6561  1.0959 -0.4842
13051TIP3   OH260567   3.121   3.486  13.999 -0.4515 -0.3842 -0.2650
13051TIP3    H160568   3.031   3.479  14.031  0.0283  1.2445  1.6245
13051TIP3    H260569   3.159   3.399  14.015 -0.7522 -0.1414  2.0929
13052TIP3   OH260570   1.042   2.140   0.487  0.1074  0.3072 -0.0249
13052TIP3    H160571   1.046   2.188   0.570 -2.1005  0.1935  0.1988
13052TIP3    H260572   0.971   2.076   0.499  1.8195 -1.9175 -0.9118
13053TIP3   OH260573   6.361   1.430  12.157 -0.1290  0.3698  0.2618
13053TIP3    H160574   6.456   1.445  12.160 -0.1680  0.4561  1.7615
13053TIP3    H260575   6.345   1.362  12.223 -1.2061  0.9655  0.6403
13054TIP3   OH260576   1.690   0.629   5.446  0.0896 -0.1449  0.0946
13054TIP3    H160577   1.746   0.692   5.491  0.0820  0.9939 -1.4151
13054TIP3    H260578   1.751   0.569   5.403  0.1718  0.6128 -0.8819
13055TIP3   OH260579   5.063   1.581   3.743  0.9325  0.4715  0.5085
13055TIP3    H160580   5.048   1.584   3.838 -0.6368  0.5689  0.2772
13055TIP3    H260581   5.113   1.500   3.729 -0.6200 -0.6599  1.2100
13056TIP3   OH260582   0.130   2.652   5.589  0.8536  0.5536 -0.7679
13056TIP3    H160583   0.096   2.689   5.670  0.2379  0.7820 -1.1284
13056TIP3    H260584   0.138   2.726   5.530  3.1990  0.7581 -0.3270
13057TIP3   OH260585   4.654   3.969   3.653  0.3396  0.4689  0.6155
13057TIP3    H160586   4.599   4.047   3.665  1.7128  1.7370 -0.9162
13057TIP3    H260587   4.728   4.000   3.601  0.5779 -2.0348 -0.6552
13058TIP3   OH260588   0.241   3.089   0.281 -0.3892 -0.4540 -0.2137
13058TIP3    H160589   0.167   3.032   0.259 -1.4444  0.7324  0.0927
13058TIP3    H260590   0.215   3.175   0.247  0.8659 -0.0199 -0.1013
13059TIP3   OH260591   2.890   1.216   4.098  0.2432 -0.3716  0.1171
13059TIP3    H160592   2.868   1.296   4.050  0.1408  0.0745  0.8735
13059TIP3    H260593   2.975   1.235   4.138  0.8364 -1.1465 -0.7678
13060TIP3   OH260594   2.258   1.929   0.588  0.8023  0.2910 -0.0233
13060TIP3    H160595   2.280   1.892   0.503  2.7479 -0.9689  0.9611
13060TIP3    H260596   2.243   1.854   0.644 -1.0542  1.1076  0.6724
13061TIP3   OH260597   2.079   1.013   4.847  0.2256 -1.0803  0.7421
13061TIP3    H160598   2.038   0.992   4.763 -1.3889  0.2622  1.1581
13061TIP3    H260599   2.037   0.955   4.910  1.1536 -1.8063  0.7177
13062TIP3   OH260600   5.151   2.448  15.617 -0.7438  0.1022 -0.1755
13062TIP3    H160601   5.187   2.533  15.639 -1.8818  0.9841 -1.5459
13062TIP3    H260602   5.072   2.440  15.670 -0.4232 -0.2878  0.2501
13063TIP3   OH260603   1.082   6.374  16.223  0.3569 -0.3100  0.2477
13063TIP3    H160604   1.108   6.441  16.160  1.0526  1.5972  2.4091
13063TIP3    H260605   0.987   6.384  16.231  0.3342 -0.2188 -0.1305
13064TIP3   OH260606   5.678   0.770  13.455  0.0422 -0.2999 -0.0733
13064TIP3    H160607   5.738   0.789  13.383  0.4300 -1.1493  0.0197
13064TIP3    H260608   5.618   0.704  13.419 -0.5935  0.2445 -0.0362
13065TIP3   OH260609   4.108   6.589  12.270 -0.2454 -0.2230  0.0873
13065TIP3    H160610   4.108   6.603  12.365  0.1490  0.3191  0.0124
13065TIP3    H260611   4.016   6.601  12.244 -0.6992 -2.0909  0.6196
13066TIP3   OH260612   5.786   3.692   0.053 -0.0267 -0.2118 -0.7241
13066TIP3    H160613   5.721   3.622   0.063  0.4863 -0.4074  1.8631
13066TIP3    H260614   5.867   3.647   0.031 -0.2742 -0.1337 -1.8937
13067TIP3   OH260615   5.828   0.302  11.707  0.1974  0.4024 -0.4482
13067TIP3    H160616   5.850   0.284  11.616  1.9144  0.3991 -0.0537
13067TIP3    H260617   5.886   0.373  11.733 -0.7638  0.9051  0.4566
13068TIP3   OH260618   0.159   3.747   6.089 -0.5116  0.3586 -0.3186
13068TIP3    H160619   0.087   3.754   6.151 -2.4360 -2.3778 -2.0327
13068TIP3    H260620   0.133   3.802   6.016  0.1628  0.9582 -0.1223
13069TIP3   OH260621   1.199   2.917  15.052  0.7676 -0.0786  0.4284
13069TIP3    H160622   1.257   2.841  15.046  0.6649 -0.1289  0.0375
13069TIP3    H260623   1.237   2.981  14.993  1.3764  0.5320  1.4572
13070TIP3   OH260624   2.631   5.220   2.963 -0.4074  0.1886 -0.5686
13070TIP3    H160625   2.572   5.145   2.966  0.8619 -0.8267  2.4147
13070TIP3    H260626   2.578   5.293   2.996 -0.8089 -0.0396 -0.6991
13071TIP3   OH260627   0.904   6.769   0.258  0.0257  0.1473 -0.3217
13071TIP3    H160628   0.991   6.751   0.294 -0.0239  0.5558  0.0054
13071TIP3    H260629   0.922   6.809   0.173  0.1861  1.2152  0.1949
13072TIP3   OH260630   0.303   3.189  10.836 -0.0029 -0.1923  0.0927
13072TIP3    H160631   0.280   3.186  10.743  0.3698  0.0973 -0.0114
13072TIP3    H260632   0.366   3.118  10.848  0.1699 -0.0468  0.0583
13073TIP3   OH260633   2.337   3.471  15.563 -0.8363  0.5036  0.2591
13073TIP3    H160634   2.345   3.508  15.651  0.3139 -3.5350  2.0780
13073TIP3    H260635   2.424   3.484  15.524 -0.9084  1.0124  0.2565
13074TIP3   OH260636   0.548   6.726  14.348 -0.2728 -0.3409 -0.0125
13074TIP3    H160637   0.557   6.752  14.257  1.9690 -1.0444 -0.0562
13074TIP3    H260638   0.564   6.807  14.398  4.0204 -0.8612 -0.2042
13075TIP3   OH260639   4.563   6.147   4.924 -0.5378  0.4174  0.7312
13075TIP3    H160640   4.608   6.071   4.887 -0.6218  1.2037 -1.1071
13075TIP3    H260641   4.631   6.215   4.929 -0.8454  0.7294  0.7099
13076TIP3   OH260642   2.321   3.949  11.078 -0.2488 -0.5925  0.2493
13076TIP3    H160643   2.238   3.911  11.048 -0.0930 -0.5598 -0.2394
13076TIP3    H260644   2.386   3.917  11.015 -0.0610  0.1862  0.0328
13077TIP3   OH260645   1.349   6.211   2.198  0.0635 -0.1655 -0.9972
13077TIP3    H160646   1.316   6.133   2.244  1.8024 -0.4997 -0.2351
13077TIP3    H260647   1.272   6.266   2.187 -0.4878  0.0083  2.5057
13078TIP3   OH260648   0.078   0.282  14.467  0.2316  0.2110  0.0796
13078TIP3    H160649   0.144   0.335  14.423  1.1717 -1.6791 -0.9427
13078TIP3    H260650   0.117   0.260  14.551 -0.5084  1.7540  0.8616
13079TIP3   OH260651   2.035   5.386   1.752  0.5091 -0.3525  0.0344
13079TIP3    H160652   2.018   5.440   1.829 -0.4377 -1.9901  1.0371
13079TIP3    H260653   1.966   5.409   1.690 -0.9417 -1.5964  1.1351
13080TIP3   OH260654   4.549   4.706  15.107  0.1491  0.2928  0.4989
13080TIP3    H160655   4.517   4.747  15.027  0.5815 -0.5884 -0.1447
13080TIP3    H260656   4.570   4.616  15.081  0.4646  0.0453  1.5618
13081TIP3   OH260657   3.756   2.713   5.055  0.0173 -0.1924 -0.1917
13081TIP3    H160658   3.803   2.777   5.108 -0.3630 -1.3601  1.6681
13081TIP3    H260659   3.695   2.672   5.116  0.4338 -2.5122 -1.2231
13082TIP3   OH260660   4.983   6.751   3.901  0.4719  0.2956  0.4280
13082TIP3    H160661   5.062   6.755   3.954 -0.2215 -0.4311  1.5432
13082TIP3    H260662   4.952   6.661   3.910 -0.3312  0.4891 -0.2397
13083TIP3   OH260663   4.120   0.673  14.512 -0.9003  0.4075  0.4214
13083TIP3    H160664   4.195   0.727  14.536 -0.8591  0.6980 -0.3327
13083TIP3    H260665   4.119   0.675  14.416 -0.0656 -2.0817  0.3044
13084TIP3   OH260666   0.533   5.550  12.352 -0.3934  0.1092  0.6004
13084TIP3    H160667   0.526   5.573  12.445 -2.3892  1.0059  0.2676
13084TIP3    H260668   0.443   5.543  12.322  0.1979 -1.6337 -0.9592
13085TIP3   OH260669   0.819   2.491  15.673 -0.3543 -0.4248  0.4242
13085TIP3    H160670   0.816   2.551  15.748  0.6430  1.3277 -0.8542
13085TIP3    H260671   0.893   2.434  15.691 -0.0482  0.0589  0.7109
13086TIP3   OH260672   6.766   4.108   4.942  0.0446  0.3504 -0.4205
13086TIP3    H160673   6.853   4.147   4.932  1.0361 -1.5235  0.2798
13086TIP3    H260674   6.728   4.153   5.017  0.1161  1.6305 -1.1162
13087TIP3   OH260675   1.235   4.828   4.768 -0.7444 -0.6186 -0.3306
13087TIP3    H160676   1.277   4.746   4.792 -2.3874 -1.1165  1.0599
13087TIP3    H260677   1.306   4.884   4.738  0.6900 -1.8607  0.6256
13088TIP3   OH260678   6.071   0.974  10.545 -0.1431  0.2017 -0.0372
13088TIP3    H160679   6.161   0.969  10.513 -0.5682 -1.5065 -1.1074
13088TIP3    H260680   6.078   1.016  10.631  1.9239 -1.6735  0.7995
13089TIP3   OH260681   0.791   2.093  13.363 -0.0112 -0.5383 -0.3335
13089TIP3    H160682   0.699   2.066  13.367  0.4330 -2.0444  1.4184
13089TIP3    H260683   0.799   2.163  13.427 -0.5115  1.8364 -2.7037
13090TIP3   OH260684   4.182   1.961  16.534  0.1815  0.3736 -0.2276
13090TIP3    H160685   4.171   1.940  16.627  1.3495  0.8759  0.0425
13090TIP3    H260686   4.183   2.057  16.531 -0.4755  0.3747 -0.8563
13091TIP3   OH260687   1.634   6.086   6.782  0.3634 -0.0028  0.5732
13091TIP3    H160688   1.689   6.149   6.736  2.3729 -0.4211  2.2313
13091TIP3    H260689   1.597   6.135   6.856 -0.8035  0.0416 -0.0177
13092TIP3   OH260690   3.108   3.420  15.008  0.6588 -0.6560  0.0834
13092TIP3    H160691   3.060   3.341  14.985 -0.5336  0.1414 -0.2923
13092TIP3    H260692   3.046   3.471  15.061  1.2668  0.1754  0.0173
13093TIP3   OH260693   6.317   0.180   0.346  0.4856 -0.5062 -0.4784
13093TIP3    H160694   6.330   0.259   0.399  0.1698 -1.2650  0.7524
13093TIP3    H260695   6.297   0.111   0.409  2.1907 -1.9306 -1.3959
13094TIP3   OH260696   0.563   4.064  11.020  0.3790  0.0951 -0.0046
13094TIP3    H160697   0.515   4.092  10.943 -1.7775 -3.6835 -0.2641
13094TIP3    H260698   0.641   4.019  10.986  0.5762  0.3170  0.1446
13095TIP3   OH260699   1.847   4.972   2.566  0.1674 -0.1381  0.5992
13095TIP3    H160700   1.774   4.931   2.612  0.2865  0.0972  1.0023
13095TIP3    H260701   1.812   5.055   2.534  0.4648  0.3394  1.4671
13096TIP3   OH260702   4.177   5.151   2.121 -0.3726 -0.3063  0.2379
13096TIP3    H160703   4.147   5.078   2.175  1.3772  0.4909  2.4183
13096TIP3    H260704   4.246   5.114   2.067  0.9856 -0.1835  1.8267
13097TIP3   OH260705   0.355   3.564   1.603 -0.0060 -0.0153  0.5016
13097TIP3    H160706   0.317   3.556   1.691 -1.4021 -0.8837 -0.1479
13097TIP3    H260707   0.322   3.647   1.570 -1.3479 -0.7395 -0.0371
13098TIP3   OH260708   4.343   4.386   1.556  0.3509  0.2499  0.3668
13098TIP3    H160709   4.268   4.370   1.613 -0.4328  0.6986 -0.5080
13098TIP3    H260710   4.322   4.468   1.511  1.8881  1.0070  0.9340
13099TIP3   OH260711   0.330   6.537  13.381  0.0855  0.8529 -0.1671
13099TIP3    H160712   0.383   6.498  13.312  3.0876  0.8386  1.9321
13099TIP3    H260713   0.354   6.629  13.381  0.0892  0.8669  0.7627
13100TIP3   OH260714   0.349   0.859   4.734 -0.7958  0.0561 -0.1502
13100TIP3    H160715   0.286   0.832   4.801  0.5219 -1.9731  0.3888
13100TIP3    H260716   0.321   0.812   4.655 -3.2065  3.5327 -1.6397
13101TIP3   OH260717   3.352   0.578   2.173 -0.4300 -0.3689 -0.0724
13101TIP3    H160718   3.295   0.630   2.117 -0.4337  0.7624  0.9384
13101TIP3    H260719   3.427   0.635   2.190  1.1377 -1.8839 -1.5186
13102TIP3   OH260720   4.719   4.728   3.407  0.0391  0.7139  0.1972
13102TIP3    H160721   4.776   4.697   3.336 -0.9939  0.7350 -0.6774
13102TIP3    H260722   4.775   4.731   3.484  1.2155  0.7244 -0.6320
13103TIP3   OH260723   4.757   5.688   1.088  0.2993 -0.1403  0.4549
13103TIP3    H160724   4.742   5.782   1.074  3.1871  0.4426  0.5553
13103TIP3    H260725   4.776   5.680   1.182 -0.4247 -0.9160  0.5419
13104TIP3   OH260726   0.835   5.497  11.764 -0.4766 -0.3514  0.1406
13104TIP3    H160727   0.862   5.506  11.855 -0.1141 -0.4457  0.0471
13104TIP3    H260728   0.889   5.562  11.717 -2.8292  1.9473  0.3812
13105TIP3   OH260729   4.770   3.339   5.767  0.4332 -0.5751  0.8198
13105TIP3    H160730   4.727   3.381   5.692  2.3355  0.8880  0.4684
13105TIP3    H260731   4.781   3.409   5.831  3.0643 -0.5587  0.4955
13106TIP3   OH260732   3.482   4.031   4.150  0.3406 -0.4392  0.1190
13106TIP3    H160733   3.447   4.118   4.170  0.3892  0.0760 -1.8040
13106TIP3    H260734   3.562   4.025   4.202  0.8376  1.0904 -0.4058
13107TIP3   OH260735   5.875   0.013   4.533  0.3172 -0.3667 -0.2568
13107TIP3    H160736   5.873   0.073   4.608  0.7153  0.5799 -0.9757
13107TIP3    H260737   5.798  -0.042   4.544 -0.4823  0.7613  0.0512
13108TIP3   OH260738   2.379   4.903   3.968  0.0662  0.4898  0.3665
13108TIP3    H160739   2.366   4.904   3.873 -1.9007  0.4159  0.5977
13108TIP3    H260740   2.344   4.818   3.996 -0.5385  1.0226  1.2863
13109TIP3   OH260741   6.339   1.570  12.844  0.3126  0.0849  0.4112
13109TIP3    H160742   6.260   1.585  12.896 -0.5774 -1.7664 -0.3247
13109TIP3    H260743   6.328   1.483  12.808  2.1435  0.2731 -0.7417
13110TIP3   OH260744   3.604   1.562  17.030  0.2324  0.4518  0.1225
13110TIP3    H160745   3.643   1.489  17.078  2.4048  2.1661  1.1978
13110TIP3    H260746   3.679   1.617  17.006 -1.3168  2.4468 -0.4095
13111TIP3   OH260747   3.499   6.144   0.417  0.1811  0.5078 -0.0686
13111TIP3    H160748   3.579   6.113   0.374  0.1871  0.3735  0.0392
13111TIP3    H260749   3.516   6.131   0.511  1.3329  3.4282  0.2439
13112TIP3   OH260750   0.747   1.196  15.690  0.0680  0.2246 -0.5946
13112TIP3    H160751   0.704   1.125  15.738  0.7883 -1.2423 -1.9906
13112TIP3    H260752   0.806   1.151  15.629  0.6353  2.0477 -1.4702
13113TIP3   OH260753   3.254   2.470  13.778  0.3269 -0.0962  0.4918
13113TIP3    H160754   3.332   2.441  13.825  0.1525 -0.8111  0.3490
13113TIP3    H260755   3.282   2.476  13.686 -0.2189 -2.1109  0.1341
13114TIP3   OH260756   3.157   6.089   1.770 -0.4921 -0.3948 -0.7832
13114TIP3    H160757   3.234   6.142   1.788  0.0161 -0.7069 -1.9350
13114TIP3    H260758   3.167   6.063   1.678 -1.0690 -1.9323 -0.4354
13115TIP3   OH260759   0.190   3.097  15.633 -0.7524 -0.2991  0.5192
13115TIP3    H160760   0.141   3.177  15.617 -1.5638 -0.9712 -0.5428
13115TIP3    H260761   0.246   3.087  15.555 -0.5399 -0.6740  0.7147
13116TIP3   OH260762   2.394   4.423  16.257  0.0325 -0.2967  0.0347
13116TIP3    H160763   2.358   4.502  16.218 -0.3013  1.1893  3.0822
13116TIP3    H260764   2.478   4.450  16.295 -0.5435 -1.0615  1.9941
13117TIP3   OH260765   1.943   2.645  14.125 -0.2617  0.5337  0.4781
13117TIP3    H160766   1.913   2.713  14.065  0.2209 -1.2776 -1.9513
13117TIP3    H260767   1.863   2.599  14.151 -0.4623  1.2722  1.2203
13118TIP3   OH260768   1.492   5.918   3.740 -0.1671  0.0995 -0.4702
13118TIP3    H160769   1.436   5.841   3.743  0.5615 -0.4157  1.3009
13118TIP3    H260770   1.578   5.884   3.715  0.1089  0.3308  0.1241
13119TIP3   OH260771   5.145   1.888   4.600 -0.2168  0.1678  0.8631
13119TIP3    H160772   5.068   1.901   4.656 -0.1838  1.9666  0.5423
13119TIP3    H260773   5.218   1.921   4.652  0.1081 -0.0218  0.5305
13120TIP3   OH260774   1.328   0.921  11.508 -0.1893 -0.0181  0.2171
13120TIP3    H160775   1.371   1.004  11.487 -1.1288  0.0407 -1.6144
13120TIP3    H260776   1.241   0.946  11.539 -0.1911 -0.2970  0.4476
13121TIP3   OH260777   5.968   4.055  14.459  0.3368 -0.1762 -0.1476
13121TIP3    H160778   6.035   4.109  14.418 -0.0136 -0.8063 -1.6257
13121TIP3    H260779   5.885   4.090  14.426  0.0201 -0.4145  0.3815
13122TIP3   OH260780   4.045   0.846   5.692  0.6638  0.0717  0.6292
13122TIP3    H160781   4.124   0.805   5.656  0.4513 -0.2722  0.5521
13122TIP3    H260782   3.974   0.817   5.634  0.2912 -0.5947  1.3971
13123TIP3   OH260783   5.470   0.223  12.242 -0.5735 -0.0173 -0.2827
13123TIP3    H160784   5.380   0.198  12.224 -1.4684  2.6435  0.0442
13123TIP3    H260785   5.476   0.225  12.337 -1.0621  2.3761 -0.2350
13124TIP3   OH260786   6.584   0.706  17.164  0.5696 -0.3237  0.0044
13124TIP3    H160787   6.492   0.694  17.144  0.9067  1.5981 -3.6282
13124TIP3    H260788   6.585   0.760  17.243 -1.3759 -1.0467  0.5516
13125TIP3   OH260789   4.792   2.268  14.946  0.3055  1.1651  0.3042
13125TIP3    H160790   4.866   2.224  14.904  0.6533  1.0647  1.0036
13125TIP3    H260791   4.737   2.197  14.978 -0.5747  1.2312 -1.0119
13126TIP3   OH260792   3.584   1.020   1.256 -0.0256  0.3974 -0.0970
13126TIP3    H160793   3.562   1.110   1.232  2.4192  0.8124 -1.0884
13126TIP3    H260794   3.584   0.972   1.173  2.7577  0.5130 -0.2724
13127TIP3   OH260795   5.308   0.498  14.551  0.2927 -0.1417  0.2875
13127TIP3    H160796   5.236   0.445  14.583 -0.5903  0.0477 -1.2612
13127TIP3    H260797   5.295   0.584  14.591  0.1300 -0.3305  0.6440
13128TIP3   OH260798   2.916   3.223   0.316 -0.0926 -0.7660 -0.2224
13128TIP3    H160799   2.947   3.209   0.226  2.0020  1.0277  0.1565
13128TIP3    H260800   2.840   3.280   0.306  0.0240 -0.7127 -0.8505
13129TIP3   OH260801   5.400   3.616   4.207 -0.2425  0.1043  0.6127
13129TIP3    H160802   5.477   3.580   4.253 -1.0805 -0.8130  1.3469
13129TIP3    H260803   5.346   3.539   4.187 -2.4693  0.9130  2.9157
13130TIP3   OH260804   5.796   4.495   3.547  0.5605  0.4536  0.5116
13130TIP3    H160805   5.835   4.459   3.468  1.6409  0.7247  0.8939
13130TIP3    H260806   5.839   4.447   3.618 -2.1503 -1.5542  0.9459
13131TIP3   OH260807   4.243   0.693   3.846  0.3229 -0.0287 -0.2467
13131TIP3    H160808   4.187   0.681   3.922  0.1304  0.2144 -0.3461
13131TIP3    H260809   4.321   0.738   3.879  0.7681 -0.9580  0.0120
13132TIP3   OH260810   4.429   6.606  16.646 -0.1905 -0.5078  1.1671
13132TIP3    H160811   4.400   6.589  16.557 -1.0570 -1.4483  1.6099
13132TIP3    H260812   4.525   6.602  16.642 -0.2504 -1.5482  0.4589
13133TIP3   OH260813   5.021   6.145   4.266 -0.0694  0.3020 -0.0954
13133TIP3    H160814   4.932   6.174   4.251 -0.3120 -0.9079 -1.1201
13133TIP3    H260815   5.027   6.059   4.224  1.8812  0.8052 -0.9928
13134TIP3   OH260816   1.659   4.017   1.006 -0.9010  0.2100  0.0209
13134TIP3    H160817   1.616   4.095   1.039 -0.1091  0.6837 -0.0453
13134TIP3    H260818   1.641   4.017   0.912 -1.3329  0.0292  0.1016
13135TIP3   OH260819   3.883   2.172  16.474 -0.3898 -0.5404  0.5238
13135TIP3    H160820   3.879   2.267  16.463 -1.5382 -0.7332 -1.0805
13135TIP3    H260821   3.958   2.145  16.421 -0.8495 -0.6444 -0.0830
13136TIP3   OH260822   0.109   5.192   1.942 -0.2389 -0.3380 -0.1767
13136TIP3    H160823   0.203   5.198   1.959 -0.0247  1.4750 -1.6685
13136TIP3    H260824   0.095   5.100   1.920  1.5420 -0.3010 -1.7284
13137TIP3   OH260825   6.148   2.241  15.633  0.3437 -0.6220 -0.0391
13137TIP3    H160826   6.104   2.233  15.718 -0.1953 -2.3672 -0.4294
13137TIP3    H260827   6.201   2.320  15.640 -1.4536  0.5563  1.1025
13138TIP3   OH260828   5.662   0.875  13.071  0.1339  0.1922  0.0556
13138TIP3    H160829   5.667   0.942  13.002  0.8611  0.8587  0.7404
13138TIP3    H260830   5.737   0.892  13.127  0.2558 -1.1335  0.3237
13139TIP3   OH260831   4.251   2.109   5.166  0.6985  0.2708  0.1653
13139TIP3    H160832   4.229   2.020   5.137  1.3207  0.3613 -0.5950
13139TIP3    H260833   4.167   2.146   5.193  0.4878 -0.6816  0.8793
13140TIP3   OH260834   4.282   2.319  13.897  0.2145 -0.2314 -0.6635
13140TIP3    H160835   4.373   2.303  13.919 -0.0636 -1.0621 -0.0529
13140TIP3    H260836   4.234   2.300  13.978 -0.7049 -1.9761 -1.5685
13141TIP3   OH260837   0.971   0.709   1.567 -0.9304 -0.8534  0.3856
13141TIP3    H160838   0.917   0.784   1.591  1.0734  0.9686 -0.5145
13141TIP3    H260839   1.060   0.732   1.593  0.0815 -2.0112 -1.7126
13142TIP3   OH260840   2.292   3.274  12.666 -0.3064 -0.1865 -0.6749
13142TIP3    H160841   2.290   3.230  12.751 -0.1400  1.2185  0.0793
13142TIP3    H260842   2.282   3.203  12.602  1.6537 -1.5437  0.4193
13143TIP3   OH260843   2.976   0.051  11.906  0.0430  0.7343 -0.0317
13143TIP3    H160844   2.907   0.065  11.971 -1.7519  2.2402 -2.0975
13143TIP3    H260845   2.962   0.120  11.841  1.4515 -0.9119 -2.2396
13144TIP3   OH260846   5.659   0.528  11.356  0.5640  0.4413  0.4174
13144TIP3    H160847   5.741   0.555  11.397 -0.1084  1.0690  1.3760
13144TIP3    H260848   5.686   0.467  11.287  1.7415 -0.5956  1.7320
13145TIP3   OH260849   2.977   3.261  14.832  0.5553 -0.3493  0.3105
13145TIP3    H160850   2.911   3.220  14.776 -1.1964  0.2322  1.8260
13145TIP3    H260851   2.988   3.349  14.796  0.5352 -0.4552  0.0414
13146TIP3   OH260852   6.290   2.915  13.754 -0.2139  0.3183  0.3095
13146TIP3    H160853   6.274   2.837  13.807 -1.7760 -0.0620 -0.6490
13146TIP3    H260854   6.271   2.988  13.812  0.8237 -0.0068  1.0830
13147TIP3   OH260855   4.370   5.088   2.641  0.3937 -0.1961 -0.4498
13147TIP3    H160856   4.342   5.163   2.692  1.0932 -0.8305  0.9132
13147TIP3    H260857   4.458   5.068   2.673  0.4346 -1.2620 -1.1699
13148TIP3   OH260858   4.087   2.662   2.220 -0.6709  0.0224  0.0642
13148TIP3    H160859   4.032   2.584   2.231  0.3356 -0.9433 -1.2814
13148TIP3    H260860   4.071   2.690   2.130  0.4957  0.1286 -0.1303
13149TIP3   OH260861   6.690   1.932  15.798  0.2806 -0.7207 -0.5041
13149TIP3    H160862   6.659   1.933  15.707  1.1366 -2.9633 -0.9000
13149TIP3    H260863   6.658   2.014  15.836  0.0379  0.3599 -2.8691
13150TIP3   OH260864   4.506   0.603   3.649 -0.2033  0.4589  0.3767
13150TIP3    H160865   4.414   0.580   3.652 -0.1650  0.3230  0.5558
13150TIP3    H260866   4.525   0.620   3.557 -0.3187  0.1313  0.2942
13151TIP3   OH260867   2.668   5.032  11.318  0.6959  0.4181  0.7198
13151TIP3    H160868   2.760   5.047  11.297  0.4727  1.6547  0.4976
13151TIP3    H260869   2.645   4.953  11.270  1.7531 -0.1596  1.1454
13152TIP3   OH260870   0.834   5.788  13.444  0.4457  0.3850  0.2252
13152TIP3    H160871   0.753   5.833  13.420  0.1450 -0.2415  0.0498
13152TIP3    H260872   0.898   5.859  13.455 -0.3440  0.9666  1.2908
13153TIP3   OH260873   2.451   6.740  16.998  0.2013  0.4812 -0.3706
13153TIP3    H160874   2.447   6.687  17.077  0.8410  0.1729 -0.5444
13153TIP3    H260875   2.417   6.683  16.929 -0.5767  0.8283 -0.2854
13154TIP3   OH260876   5.516   2.034   0.012 -0.4795 -0.3692  0.0360
13154TIP3    H160877   5.605   2.053  -0.018  0.8505 -1.2314  3.0533
13154TIP3    H260878   5.505   1.940  -0.003 -0.8326 -0.3018 -0.1474
13155TIP3   OH260879   2.443   2.434  16.786 -0.0996  0.2251  0.4612
13155TIP3    H160880   2.395   2.516  16.774  0.3100  0.4602  0.4375
13155TIP3    H260881   2.452   2.425  16.881 -2.5132 -1.1642  0.6639
13156TIP3   OH260882   2.482   0.168  12.207 -0.5794  0.7657  0.0093
13156TIP3    H160883   2.517   0.113  12.137 -0.0353  2.1544 -0.8696
13156TIP3    H260884   2.541   0.154  12.281  0.6407  1.4920 -0.7862
13157TIP3   OH260885   0.806   0.341  17.199 -0.3486 -0.5634 -0.1917
13157TIP3    H160886   0.848   0.350  17.284  1.6269 -1.4974 -0.9971
13157TIP3    H260887   0.718   0.376  17.211  0.8792  2.2619  1.3891
13158TIP3   OH260888   2.287   3.634   4.718  0.4101 -0.3988 -0.6660
13158TIP3    H160889   2.315   3.549   4.685  0.8047 -0.5956  0.1492
13158TIP3    H260890   2.360   3.693   4.702  1.7634 -1.1010  2.2285
13159TIP3   OH260891   4.307   4.329  15.259  0.1322 -0.3766 -0.2288
13159TIP3    H160892   4.391   4.357  15.294  1.0715 -0.8355 -1.9903
13159TIP3    H260893   4.243   4.360  15.323  1.6442 -0.3679  1.3770
13160TIP3   OH260894   2.809   5.362  16.679  0.4595  0.1795 -0.5300
13160TIP3    H160895   2.745   5.402  16.620 -0.1945  0.0109  0.0614
13160TIP3    H260896   2.889   5.359  16.627 -0.2185 -0.3925 -1.5798
13161TIP3   OH260897   4.969   2.907  13.234 -0.2590 -0.1457 -0.2129
13161TIP3    H160898   5.035   2.923  13.302 -0.4583  1.6958 -0.4121
13161TIP3    H260899   5.014   2.926  13.152 -1.1056  1.5525 -0.3257
13162TIP3   OH260900   2.949   3.368   5.248  0.2478  0.3232  0.1385
13162TIP3    H160901   2.992   3.288   5.218 -0.4768 -0.7710  1.8859
13162TIP3    H260902   2.938   3.356   5.342 -0.9067  1.9944  0.2655
13163TIP3   OH260903   0.034   3.168   2.532 -0.0415 -0.3073  0.2040
13163TIP3    H160904  -0.044   3.224   2.526  0.5412  0.7183  1.5840
13163TIP3    H260905   0.076   3.177   2.447 -1.7910 -1.4944 -0.8550
13164TIP3   OH260906   0.146   6.615   2.030  0.1190  0.2604  0.0299
13164TIP3    H160907   0.195   6.554   2.084  0.2363 -0.2543 -0.6479
13164TIP3    H260908   0.079   6.651   2.089 -1.4548 -2.2314 -0.1075
13165TIP3   OH260909   4.548   5.921  15.314 -0.0293 -0.0712  0.5108
13165TIP3    H160910   4.604   5.972  15.255 -0.4171  0.2854  0.4473
13165TIP3    H260911   4.532   5.978  15.388  0.3275 -0.4636  0.8934
13166TIP3   OH260912   4.031   5.725  15.741  0.2671 -0.0108  0.1545
13166TIP3    H160913   4.003   5.749  15.829  1.6859  0.2883  0.5508
13166TIP3    H260914   4.085   5.647  15.753 -0.7771 -0.9008 -0.6517
13167TIP3   OH260915   1.010   1.960   2.188 -0.5790  0.0081  0.1954
13167TIP3    H160916   1.100   1.946   2.218 -0.7543  0.3822  0.9233
13167TIP3    H260917   0.956   1.936   2.263 -1.1211 -0.7282 -0.4101
13168TIP3   OH260918   0.899   3.078  11.540  0.1401  0.6115  0.1799
13168TIP3    H160919   0.849   3.155  11.513 -0.4228 -0.2496 -1.3453
13168TIP3    H260920   0.834   3.009  11.550  0.9424 -0.4923 -1.6766
13169TIP3   OH260921   1.922   2.972   1.351 -0.1598  0.0564  0.7998
13169TIP3    H160922   1.854   2.987   1.285 -0.7023  0.2910  1.3925
13169TIP3    H260923   1.915   3.048   1.409  2.5514  1.6430 -0.7075
13170TIP3   OH260924   2.723   2.735   0.241 -0.6546 -0.2597 -0.7812
13170TIP3    H160925   2.692   2.781   0.319 -2.1155 -1.7926 -0.3773
13170TIP3    H260926   2.757   2.803   0.184  1.1805  0.8422  1.4979
13171TIP3   OH260927   4.592   4.343   3.005  0.1469 -0.6954  0.5806
13171TIP3    H160928   4.502   4.315   2.986  0.2609 -0.2910 -0.6965
13171TIP3    H260929   4.646   4.290   2.946  0.4290  1.4530 -1.2485
13172TIP3   OH260930   4.404   6.231  11.619  0.0627  0.3407  0.3174
13172TIP3    H160931   4.479   6.288  11.638  0.4721 -0.3866  0.9001
13172TIP3    H260932   4.354   6.230  11.700 -1.2193  1.7319 -0.3994
13173TIP3   OH260933   3.921   0.474  14.740 -0.0191 -0.3913 -0.0402
13173TIP3    H160934   3.875   0.538  14.794  0.8482 -0.6249  1.0247
13173TIP3    H260935   3.939   0.520  14.658 -0.6169  0.2634  0.1857
13174TIP3   OH260936   0.325   0.370   4.457  0.2323 -0.0976  0.4731
13174TIP3    H160937   0.310   0.354   4.550  1.5370  1.8874  1.0830
13174TIP3    H260938   0.253   0.427   4.431  0.8576  0.8336  0.7467
13175TIP3   OH260939   4.107   3.805   3.645  0.4006  0.0504  0.3295
13175TIP3    H160940   4.193   3.842   3.664  0.1744 -0.2222  2.0495
13175TIP3    H260941   4.046   3.859   3.696 -0.1941 -1.0823  0.8619
13176TIP3   OH260942   0.130   6.544  16.989 -0.6825  0.9156  0.1962
13176TIP3    H160943   0.154   6.635  16.971 -1.8652  0.9091 -1.7159
13176TIP3    H260944   0.106   6.508  16.903 -2.0584 -0.6429  1.1710
13177TIP3   OH260945   2.031   5.158  13.716  0.0341  0.1102  0.0790
13177TIP3    H160946   1.946   5.118  13.736  0.1370  0.3486  1.0492
13177TIP3    H260947   2.010   5.246  13.686 -0.0782  0.0719  0.0446
13178TIP3   OH260948   0.066   0.294  13.216  0.4380  0.0089  0.1427
13178TIP3    H160949   0.025   0.374  13.185 -0.0169 -0.6164 -0.9124
13178TIP3    H260950   0.158   0.303  13.193  0.3110  0.0513 -0.3563
13179TIP3   OH260951   3.194   1.691  12.715  0.1307 -0.4462 -0.3740
13179TIP3    H160952   3.190   1.745  12.794 -1.3336 -2.8105  1.2906
13179TIP3    H260953   3.280   1.648  12.720 -0.2402 -1.1315  0.3605
13180TIP3   OH260954   3.227   1.310   3.664  0.0538 -0.1509  0.6099
13180TIP3    H160955   3.138   1.344   3.670 -0.2417 -0.5538 -0.9635
13180TIP3    H260956   3.269   1.363   3.596  0.2081 -1.5514 -0.4430
13181TIP3   OH260957   0.001   2.700   2.192  0.1274 -0.1076 -0.2723
13181TIP3    H160958  -0.047   2.783   2.199 -0.5015 -0.5900  1.8034
13181TIP3    H260959  -0.058   2.642   2.145  0.5503  0.5724 -1.6951
13182TIP3   OH260960   5.528   1.803  13.275  0.5191 -0.1389  0.2017
13182TIP3    H160961   5.594   1.736  13.293 -0.0474 -0.9056 -0.4971
13182TIP3    H260962   5.522   1.806  13.180  0.9344  1.3293  0.1962
13183TIP3   OH260963   2.392   4.802   6.172  0.3107 -0.3740  0.5669
13183TIP3    H160964   2.433   4.782   6.088 -0.4904 -1.3027  0.3843
13183TIP3    H260965   2.462   4.841   6.224  0.9254 -0.1722 -0.3862
13184TIP3   OH260966   0.322   0.719  15.139 -0.3720 -0.1017 -0.0190
13184TIP3    H160967   0.380   0.728  15.214  0.8469 -0.1207 -0.9398
13184TIP3    H260968   0.289   0.807  15.122  0.1337  0.0782 -0.0714
13185TIP3   OH260969   2.004   1.326  12.553 -0.4311  0.0176 -0.0444
13185TIP3    H160970   2.019   1.326  12.459  1.6793 -0.3704  0.2378
13185TIP3    H260971   2.053   1.401  12.586  0.5601 -1.0149  0.9368
13186TIP3   OH260972   0.961   1.494  14.965  0.0465 -0.1639 -0.3412
13186TIP3    H160973   0.983   1.571  14.913 -2.1152  0.3604 -0.5387
13186TIP3    H260974   0.983   1.420  14.909  0.8268  0.3229 -0.6926
13187TIP3   OH260975   4.590   5.724   3.498  0.1636 -0.1301  0.9411
13187TIP3    H160976   4.643   5.741   3.576 -1.5804  0.1017  2.1455
13187TIP3    H260977   4.652   5.727   3.425  1.4662  2.3742  2.0273
13188TIP3   OH260978   1.855   0.811   5.606 -0.2143  0.3382  0.2655
13188TIP3    H160979   1.851   0.888   5.549  2.5206 -0.5003 -1.2177
13188TIP3    H260980   1.856   0.848   5.695 -0.8437  1.8963 -0.3391
13189TIP3   OH260981   1.624   0.493   0.708  0.6112  0.7997 -0.6441
13189TIP3    H160982   1.619   0.569   0.767  0.3853  0.5068 -0.2859
13189TIP3    H260983   1.710   0.501   0.667 -0.1433  2.3063 -2.0481
13190TIP3   OH260984   0.030   5.834   1.421 -0.0772 -0.7537 -0.3337
13190TIP3    H160985  -0.014   5.824   1.506 -1.6174 -1.7776 -1.1966
13190TIP3    H260986  -0.016   5.907   1.379  2.1459  1.2702  0.5181
13191TIP3   OH260987   4.011   0.343   1.099 -0.8058  0.3124  0.0213
13191TIP3    H160988   3.974   0.290   1.028  0.9528  1.3384 -1.7675
13191TIP3    H260989   3.940   0.404   1.122 -0.9976  0.8563 -1.8405
13192TIP3   OH260990   2.427   0.970  12.237  0.2973 -0.4800  0.2910
13192TIP3    H160991   2.515   1.005  12.241 -0.2587  0.8456  1.7745
13192TIP3    H260992   2.422   0.928  12.151  1.8084  0.8998 -0.5251
13193TIP3   OH260993   2.726   1.148   2.241 -0.9200  0.3734  0.2645
13193TIP3    H160994   2.764   1.063   2.264 -0.8662  0.5832  0.9634
13193TIP3    H260995   2.633   1.140   2.264 -1.0011  0.3622 -0.0639
13194TIP3   OH260996   4.238   5.775  16.636 -0.2351  0.0543  0.1623
13194TIP3    H160997   4.294   5.732  16.701 -1.1041 -1.4813 -0.0630
13194TIP3    H260998   4.281   5.859  16.620 -0.1203  0.6161  2.8994
13195TIP3   OH260999   4.684   5.249   5.571  0.0333 -0.0084 -0.2556
13195TIP3    H161000   4.724   5.270   5.486 -0.2690  1.4765 -0.0639
13195TIP3    H261001   4.757   5.245   5.632  0.0002  2.2128  0.0021
13196TIP3   OH261002   6.247   0.655   5.730 -0.3089  0.1022  0.2592
13196TIP3    H161003   6.228   0.633   5.821 -1.5980 -0.7255 -0.1750
13196TIP3    H261004   6.319   0.596   5.705 -2.3686 -2.3637 -0.2807
13197TIP3   OH261005   5.607   2.587   3.476 -0.0052 -0.3806  0.1108
13197TIP3    H161006   5.562   2.669   3.498  2.2505  1.5309 -1.7631
13197TIP3    H261007   5.575   2.564   3.389  1.5081  0.2781 -0.6731
13198TIP3   OH261008   1.487   5.674  15.375 -0.3141 -0.4294 -0.7395
13198TIP3    H161009   1.543   5.681  15.298 -2.6177 -0.5268 -2.5514
13198TIP3    H261010   1.476   5.764  15.406  1.7435 -0.5126  0.4457
13199TIP3   OH261011   4.640   1.373   5.019 -0.2941 -0.2461 -0.4562
13199TIP3    H161012   4.696   1.297   5.004  0.2667  0.2031 -0.6914
13199TIP3    H261013   4.590   1.351   5.097  0.9922 -0.2337  0.4063
13200TIP3   OH261014   5.866   2.257  17.055 -0.1452  0.0381 -0.0557
13200TIP3    H161015   5.868   2.306  16.973  1.8193  1.1044  0.5597
13200TIP3    H261016   5.958   2.239  17.074 -0.5271  0.1058  2.0606
13201TIP3   OH261017   2.843   1.481   3.903 -0.2484  0.5671 -0.6432
13201TIP3    H161018   2.898   1.527   3.967  1.0757 -0.7449 -0.7771
13201TIP3    H261019   2.789   1.550   3.864  0.0889  1.6405  0.7175
13202TIP3   OH261020   0.837   1.788  11.144 -0.0409 -0.5577 -0.5056
13202TIP3    H161021   0.811   1.815  11.232 -2.1435  0.7065 -1.4304
13202TIP3    H261022   0.930   1.769  11.151 -0.2346 -0.8958  2.0606
13203TIP3   OH261023   2.764   4.626  11.032  0.2330  0.1163  0.1830
13203TIP3    H161024   2.797   4.716  11.022 -1.3406  0.6392 -0.7192
13203TIP3    H261025   2.791   4.601  11.120  0.3682  1.6472  0.6190
13204TIP3   OH261026   0.140   3.188  13.277 -0.2361 -0.2546 -0.1452
13204TIP3    H161027   0.109   3.255  13.215  2.3338  0.7637 -0.5070
13204TIP3    H261028   0.183   3.123  13.221  2.8912  1.1090  0.4243
13205TIP3   OH261029   1.128   0.905  10.831  0.0825  0.2456 -0.8577
13205TIP3    H161030   1.051   0.860  10.865  0.6664 -0.0253  0.1524
13205TIP3    H261031   1.117   0.996  10.859  1.2850 -0.2577  1.4609
13206TIP3   OH261032   1.866   6.419   1.090 -0.2065  0.0949  0.2433
13206TIP3    H161033   1.904   6.335   1.118  0.4276  0.4603  0.4792
13206TIP3    H261034   1.936   6.462   1.041 -0.8228  0.1130 -0.6336
13207TIP3   OH261035   5.125   5.581   0.074 -0.1558  0.2442  1.4157
13207TIP3    H161036   5.047   5.531   0.101  0.2721 -0.6042  1.1139
13207TIP3    H261037   5.191   5.559   0.139  0.1734  0.0575  1.0202
13208TIP3   OH261038   4.212   3.115  11.395 -0.5870 -0.3413 -0.0254
13208TIP3    H161039   4.237   3.182  11.331  0.8455 -0.2835  0.5598
13208TIP3    H261040   4.119   3.099  11.378 -0.2292 -0.4067 -2.1729
13209TIP3   OH261041   5.838   1.420   1.999 -0.1881 -0.1794  0.3356
13209TIP3    H161042   5.929   1.400   1.978  0.0684  1.4385 -0.2382
13209TIP3    H261043   5.795   1.430   1.914 -0.4600  0.8439  0.5778
13210TIP3   OH261044   0.792   2.542   0.504  0.3392 -0.3261 -0.1794
13210TIP3    H161045   0.769   2.468   0.560  0.6323 -0.5452 -0.3438
13210TIP3    H261046   0.810   2.613   0.565 -0.6887 -0.1617 -0.0422
13211TIP3   OH261047   5.521   0.787  17.069  0.4363 -0.7438  0.0150
13211TIP3    H161048   5.537   0.693  17.064  0.8396 -0.6850  0.1778
13211TIP3    H261049   5.533   0.809  17.161  0.8255 -0.4488 -0.1032
13212TIP3   OH261050   2.911   3.971   1.109 -0.3765  0.1300 -0.1129
13212TIP3    H161051   2.881   3.904   1.047  0.2032  0.4549 -0.7683
13212TIP3    H261052   2.834   3.994   1.159 -0.3226 -2.0281  1.1060
13213TIP3   OH261053   6.388   5.365  16.192  0.2087 -0.2516  0.2346
13213TIP3    H161054   6.447   5.363  16.267  1.6457  0.7445 -0.8135
13213TIP3    H261055   6.355   5.455  16.189 -0.5473 -0.5179  0.1823
13214TIP3   OH261056   2.480   1.271   1.896 -0.0600 -0.1621 -0.3630
13214TIP3    H161057   2.411   1.216   1.860  0.3519 -1.0461  0.1839
13214TIP3    H261058   2.473   1.261   1.990  1.6551 -1.3495 -0.3172
13215TIP3   OH261059   0.485   0.526  15.978  0.0404  0.2370  0.4964
13215TIP3    H161060   0.460   0.463  15.910  0.0652  1.2290 -0.4492
13215TIP3    H261061   0.535   0.474  16.041 -1.3491 -1.0438  0.6123
13216TIP3   OH261062   5.443   6.477   3.498 -0.0020 -0.0950 -0.2463
13216TIP3    H161063   5.497   6.540   3.547 -1.0509  0.5490  0.1183
13216TIP3    H261064   5.403   6.529   3.428  1.2690 -0.9573 -1.6648
13217TIP3   OH261065   0.500   0.308  15.440 -0.3928  0.1141  0.4224
13217TIP3    H161066   0.496   0.383  15.499  0.9056  2.1281 -1.8610
13217TIP3    H261067   0.459   0.338  15.360  0.2028 -1.6088 -0.5765
13218TIP3   OH261068   6.297   5.855   3.912  0.0952  0.2683 -0.1504
13218TIP3    H161069   6.297   5.772   3.864  0.4746 -0.0327  0.3554
13218TIP3    H261070   6.309   5.829   4.004 -0.2694  0.8536  0.0631
13219TIP3   OH261071   1.377   6.413   0.480 -0.0727  0.3998  0.2199
13219TIP3    H161072   1.348   6.408   0.571 -1.0505 -1.5250 -0.1390
13219TIP3    H261073   1.468   6.442   0.486  0.9159 -2.5571  2.1094
13220TIP3   OH261074   5.273   2.266   5.535 -0.6024  0.2979 -0.2948
13220TIP3    H161075   5.360   2.305   5.533 -0.1872 -0.6189 -1.7862
13220TIP3    H261076   5.213   2.341   5.532  0.1702  0.9119 -1.9789
13221TIP3   OH261077   5.272   1.664  15.265  0.4655  0.4252 -0.3890
13221TIP3    H161078   5.331   1.621  15.202  1.5806 -0.1657  1.0150
13221TIP3    H261079   5.292   1.757  15.256  2.6602  0.1515  1.0205
13222TIP3   OH261080   0.701   5.244   0.144  0.2458 -0.0747 -0.3000
13222TIP3    H161081   0.762   5.280   0.208  0.4056 -0.5754 -0.1734
13222TIP3    H261082   0.727   5.153   0.133  0.0962 -0.0444 -0.9316
13223TIP3   OH261083   5.346   0.654  13.685 -0.5265  0.0366 -0.1909
13223TIP3    H161084   5.343   0.656  13.780  1.5690 -0.7960 -0.0615
13223TIP3    H261085   5.402   0.728  13.661  0.2257 -0.6702 -0.6647
13224TIP3   OH261086   0.012   0.184   0.034 -0.6008  0.4423  0.2724
13224TIP3    H161087   0.024   0.188  -0.061  0.7104 -1.1498  0.3224
13224TIP3    H261088   0.056   0.263   0.066 -1.0425  0.9862 -0.4380
13225TIP3   OH261089   5.178   0.724   0.734  0.0153 -0.1695 -0.1345
13225TIP3    H161090   5.124   0.730   0.813  1.5243  0.0253  0.9351
13225TIP3    H261091   5.137   0.784   0.672 -0.5904  0.4994  0.8881
13226TIP3   OH261092   0.346   4.103   1.086 -0.1791  0.5974 -0.2292
13226TIP3    H161093   0.364   4.040   1.016 -0.0326  0.3221  0.0554
13226TIP3    H261094   0.355   4.052   1.167  1.0617  1.2359  0.0542
13227TIP3   OH261095   5.364   3.087  11.507 -0.2504 -0.1267  0.4582
13227TIP3    H161096   5.450   3.108  11.543  0.0656  0.9236 -0.8368
13227TIP3    H261097   5.356   3.142  11.429 -0.8365 -2.3540 -1.1826
13228TIP3   OH261098   2.855   1.850  13.556 -0.1823  0.5709  0.3634
13228TIP3    H161099   2.939   1.805  13.560 -0.2833  0.3123 -0.3872
13228TIP3    H261100   2.817   1.824  13.472 -1.6234 -0.3963  1.2744
13229TIP3   OH261101   4.203   4.467  13.133  0.0476  0.3596  0.4176
13229TIP3    H161102   4.136   4.495  13.195  0.5454  1.3110  0.5329
13229TIP3    H261103   4.239   4.548  13.098  0.8568 -0.1504  0.0453
13230TIP3   OH261104   0.536   6.229   2.699 -0.6904  0.0144 -0.2410
13230TIP3    H161105   0.620   6.275   2.706 -1.6754  1.8363  0.2300
13230TIP3    H261106   0.489   6.252   2.779 -0.5122 -3.5234  1.0919
13231TIP3   OH261107   2.301   0.701  11.151  0.1973  0.6353  0.1084
13231TIP3    H161108   2.258   0.671  11.071  1.0789 -0.9449  0.1839
13231TIP3    H261109   2.255   0.656  11.221  0.2050  1.0861  0.4075
13232TIP3   OH261110   4.002   4.933  12.600  0.5012  0.2096 -0.1537
13232TIP3    H161111   3.975   4.920  12.509 -1.8442  0.5749  0.4152
13232TIP3    H261112   4.074   4.871  12.614  0.7506 -0.0067 -2.1724
13233TIP3   OH261113   4.487   0.607  13.342  0.6185  0.1431 -0.2256
13233TIP3    H161114   4.559   0.645  13.291  0.8670  0.2255  0.1801
13233TIP3    H261115   4.520   0.522  13.370  0.2970 -0.1096 -0.6103
13234TIP3   OH261116   3.574   5.580   2.229 -0.5622  0.0688 -0.1481
13234TIP3    H161117   3.501   5.641   2.240  0.7405  1.3556  1.9847
13234TIP3    H261118   3.651   5.635   2.220  0.3103 -1.2761 -1.6442
13235TIP3   OH261119   1.831   2.203   1.044 -0.5454  0.5316 -0.6313
13235TIP3    H161120   1.795   2.272   0.988 -2.5881 -1.8738 -2.5433
13235TIP3    H261121   1.875   2.143   0.982  0.7676 -0.1425  0.8866
13236TIP3   OH261122   0.560   5.117  14.853 -0.1432  0.2264  0.0850
13236TIP3    H161123   0.634   5.121  14.914 -0.0443 -1.5981  0.1178
13236TIP3    H261124   0.522   5.030  14.866 -2.5745  1.2423  0.3791
13237TIP3   OH261125   6.430   4.925  15.756 -0.1518 -0.9312  0.0232
13237TIP3    H161126   6.410   5.011  15.792 -1.1389 -1.4661  0.8048
13237TIP3    H261127   6.460   4.943  15.667  0.0194  0.2409  0.3020
13238TIP3   OH261128   4.244   3.255   3.940 -0.4099 -0.7705  0.6043
13238TIP3    H161129   4.309   3.319   3.971  2.1476 -2.1968 -1.4478
13238TIP3    H261130   4.244   3.186   4.007 -2.1698  0.5876  2.1261
13239TIP3   OH261131   4.495   6.370   2.924 -0.5279  0.3108 -0.0616
13239TIP3    H161132   4.574   6.339   2.967  0.0507  0.8745 -0.7098
13239TIP3    H261133   4.446   6.413   2.994  0.1478  0.7301  0.1620
13240TIP3   OH261134   3.710   2.502   3.174  0.5501  0.2185  0.2821
13240TIP3    H161135   3.650   2.571   3.203  0.6809 -0.1993  1.6357
13240TIP3    H261136   3.740   2.461   3.255  0.6161 -1.3162 -0.4879
13241TIP3   OH261137   2.775   1.788   4.267  0.0766 -0.5314 -0.5468
13241TIP3    H161138   2.836   1.716   4.283  0.7106  0.1262  0.1042
13241TIP3    H261139   2.729   1.799   4.350  0.8676  0.5999 -0.2249
13242TIP3   OH261140   4.599   0.241  12.490  0.2721 -1.2215 -0.0982
13242TIP3    H161141   4.532   0.208  12.550  0.2418 -0.5063  0.2776
13242TIP3    H261142   4.556   0.314  12.445  0.5145 -1.3265 -0.5102
13243TIP3   OH261143   1.114   4.774   0.467  0.0885  0.1364 -0.1015
13243TIP3    H161144   1.054   4.843   0.496  0.3716  0.8691 -1.1794
13243TIP3    H261145   1.196   4.793   0.512 -0.1639 -0.2227  0.5290
13244TIP3   OH261146   0.163   5.612   1.374 -0.5485 -0.1971  0.5257
13244TIP3    H161147   0.114   5.693   1.385 -0.3360 -0.1061  0.7879
13244TIP3    H261148   0.204   5.596   1.459  0.9101  0.3964 -0.0262
13245TIP3   OH261149   2.305   2.653   1.513  0.0608  0.3000  0.4284
13245TIP3    H161150   2.257   2.672   1.594  1.1014  1.9589  0.6911
13245TIP3    H261151   2.329   2.560   1.521 -1.6569 -0.1305  1.0211
13246TIP3   OH261152   5.985   1.121   2.612  0.2415 -0.2395 -0.0260
13246TIP3    H161153   6.015   1.155   2.528 -1.5479  2.5811  0.3797
13246TIP3    H261154   5.922   1.052   2.589 -0.4270  0.6817 -1.0286
13247TIP3   OH261155   4.983   3.337  14.489 -0.1112 -0.1840 -0.7874
13247TIP3    H161156   5.002   3.340  14.396 -0.9502  1.5951 -0.9587
13247TIP3    H261157   5.058   3.379  14.531  0.3396 -1.1275 -0.6355
13248TIP3   OH261158   3.345   6.711  13.702  0.2632  0.4362  0.0079
13248TIP3    H161159   3.427   6.669  13.680  1.0022  0.6451  2.0859
13248TIP3    H261160   3.369   6.781  13.763 -1.4244  0.5483  0.6238
13249TIP3   OH261161   0.809   5.519  15.135  0.3972 -0.1087  0.4844
13249TIP3    H161162   0.855   5.551  15.058 -0.6678 -0.5752 -0.3836
13249TIP3    H261163   0.817   5.424  15.131  0.9001 -0.1111  1.3259
13250TIP3   OH261164   4.731   2.156  14.587  0.4673  0.0023 -0.1506
13250TIP3    H161165   4.673   2.141  14.513  0.4908  0.3581 -0.2462
13250TIP3    H261166   4.791   2.224  14.557  0.0146  0.6806  0.4329
13251TIP3   OH261167   6.166   4.606   0.970 -0.8322 -0.1597  0.0317
13251TIP3    H161168   6.103   4.641   1.032 -1.9442 -1.7917 -0.1178
13251TIP3    H261169   6.135   4.517   0.951  0.4463 -0.3312 -1.5162
13252TIP3   OH261170   0.022   2.485   3.041  1.2647 -0.0744  0.5959
13252TIP3    H161171  -0.006   2.576   3.056  0.0322 -0.5976  1.6997
13252TIP3    H261172  -0.024   2.459   2.961  1.5755  0.2584  0.3089
13253TIP3   OH261173   5.518   5.196  14.698  0.0074  0.1363  0.1660
13253TIP3    H161174   5.593   5.201  14.757  0.1035  0.3165  0.0278
13253TIP3    H261175   5.544   5.245  14.620  0.4859 -1.4286 -0.7035
13254TIP3   OH261176   5.485   2.514  13.236  0.2786 -0.3925 -0.1459
13254TIP3    H161177   5.440   2.598  13.235  0.0539 -0.5067 -1.4251
13254TIP3    H261178   5.535   2.514  13.318  0.8717  1.2995 -0.4752
13255TIP3   OH261179   0.103   2.334  17.221  0.5077  0.4341  0.2560
13255TIP3    H161180   0.077   2.426  17.216  0.4565  0.3799 -0.5644
13255TIP3    H261181   0.041   2.288  17.165  1.0214  0.0127  0.0165
13256TIP3   OH261182   0.838   5.597  13.655  0.1959 -0.6799  0.1115
13256TIP3    H161183   0.852   5.664  13.588 -1.9379 -0.6227 -0.3382
13256TIP3    H261184   0.787   5.529  13.611  0.0055 -1.3235  1.2844
13257TIP3   OH261185   6.638   5.478  13.278  0.5708  0.0381 -0.3278
13257TIP3    H161186   6.706   5.490  13.212  0.8136  1.4814  0.1568
13257TIP3    H261187   6.556   5.499  13.233  0.6714  0.4254 -0.3300
13258TIP3   OH261188   3.189   1.592   3.174  0.1150  0.1722 -0.6392
13258TIP3    H161189   3.260   1.653   3.155  1.8639 -1.3688  0.5572
13258TIP3    H261190   3.113   1.629   3.130  1.0068  3.3187  0.1996
13259TIP3   OH261191   3.194   5.221   1.719 -0.1929  0.2492 -0.4199
13259TIP3    H161192   3.198   5.209   1.814 -1.6089  1.4272 -0.1773
13259TIP3    H261193   3.186   5.132   1.684 -1.7204 -0.1143  0.7246
13260TIP3   OH261194   0.336   4.730   0.415  0.1935  0.1822  0.1163
13260TIP3    H161195   0.325   4.650   0.364 -0.5120 -0.1524  0.7844
13260TIP3    H261196   0.376   4.701   0.497  0.4453  0.5862  0.1379
13261TIP3   OH261197   0.082   2.220  14.202  0.4713 -0.0329 -0.3434
13261TIP3    H161198   0.019   2.258  14.263  0.5336 -1.0924  0.4010
13261TIP3    H261199   0.057   2.128  14.195  1.9277 -0.4745 -0.0363
13262TIP3   OH261200   5.914   5.702  13.918 -0.3744 -0.2919  0.0457
13262TIP3    H161201   5.993   5.722  13.969 -0.7660 -0.0242  0.5560
13262TIP3    H261202   5.868   5.786  13.912  0.1144 -0.1036 -1.5553
13263TIP3   OH261203   1.364   5.674   1.361  0.2197  0.6984 -0.5447
13263TIP3    H161204   1.348   5.601   1.300  0.9491  0.8682 -0.9561
13263TIP3    H261205   1.453   5.659   1.392  0.1358  1.0640 -0.1340
13264TIP3   OH261206   0.309   4.966   3.318 -0.2906  0.5870  0.2780
13264TIP3    H161207   0.271   4.978   3.405  1.4999  2.9295  0.8275
13264TIP3    H261208   0.247   4.908   3.273 -0.4373 -2.1594  3.5871
13265TIP3   OH261209   2.378   3.744   2.778  0.3338  0.0137 -0.0357
13265TIP3    H161210   2.332   3.668   2.743  0.1890  0.2635 -0.3935
13265TIP3    H261211   2.466   3.738   2.742  0.5847 -0.4540  0.6334
13266TIP3   OH261212   6.648   1.552   4.426 -0.5680 -0.5297  0.2310
13266TIP3    H161213   6.695   1.568   4.344 -0.5163 -1.9401 -0.0390
13266TIP3    H261214   6.697   1.601   4.492  0.7980 -1.3045 -0.1800
13267TIP3   OH261215   0.058   3.824  15.236  0.1487 -0.0434  0.1666
13267TIP3    H161216   0.115   3.900  15.245 -0.0909  0.0661  0.8309
13267TIP3    H261217   0.074   3.773  15.315  0.1325 -0.5629 -0.1677
13268TIP3   OH261218   2.726   4.820   1.161 -0.1313  0.0057 -0.7528
13268TIP3    H161219   2.684   4.760   1.223 -2.7065  1.3243 -1.0918
13268TIP3    H261220   2.724   4.774   1.078 -0.5612 -0.1311 -0.6729
13269TIP3   OH261221   1.778   2.428  11.431 -0.1011  0.7486 -0.0157
13269TIP3    H161222   1.811   2.428  11.521 -1.5218 -0.5223  0.5493
13269TIP3    H261223   1.703   2.368  11.433  0.9152 -0.7467 -2.4471
13270TIP3   OH261224   3.112   6.591  14.963  0.1192  0.0661 -0.3543
13270TIP3    H161225   3.144   6.622  14.877  3.4348  1.1857  1.1089
13270TIP3    H261226   3.136   6.498  14.965 -1.7691 -0.4990 -1.3074
13271TIP3   OH261227   0.964   2.531   2.754 -0.8415  0.1947  0.4702
13271TIP3    H161228   1.037   2.585   2.723 -1.7186  0.0993 -1.9861
13271TIP3    H261229   0.887   2.587   2.742 -1.5951 -1.0387 -0.7729
13272TIP3   OH261230   4.753   5.015  14.380  0.5068 -0.3203 -0.0198
13272TIP3    H161231   4.780   5.071  14.453  1.4855 -0.6299 -0.1283
13272TIP3    H261232   4.712   5.076  14.318  0.3053  0.0538  0.4674
13273TIP3   OH261233   2.770   1.511   6.448 -0.5693  0.7205  0.4847
13273TIP3    H161234   2.826   1.479   6.518  0.2184 -0.5486 -0.6723
13273TIP3    H261235   2.819   1.586   6.412 -0.1597  0.3364  0.2282
13274TIP3   OH261236   4.487   5.313   2.066 -0.1444  0.1055 -0.8008
13274TIP3    H161237   4.582   5.320   2.052  0.1381  0.6658  1.1243
13274TIP3    H261238   4.455   5.403   2.055 -0.0179  0.4258  1.2040
13275TIP3   OH261239   6.035   4.097   0.862  0.0628  0.0802  0.2790
13275TIP3    H161240   6.113   4.054   0.827 -0.3747  0.1355 -0.8176
13275TIP3    H261241   6.046   4.189   0.837  1.1544  0.7508  2.8838
13276TIP3   OH261242   5.709   1.362   0.555  0.8115  0.4969 -0.1305
13276TIP3    H161243   5.788   1.309   0.543  0.4837 -0.1519  0.5037
13276TIP3    H261244   5.681   1.342   0.644 -0.5131  0.1085 -0.6154
13277TIP3   OH261245   1.838   0.426   4.264  0.1471  0.2448 -0.2128
13277TIP3    H161246   1.904   0.357   4.273 -0.3392 -0.2318 -0.2616
13277TIP3    H261247   1.768   0.401   4.324 -0.5656  0.0647 -1.0897
13278TIP3   OH261248   2.987   1.790  16.895 -0.5495 -0.6108  0.3541
13278TIP3    H161249   2.938   1.709  16.907  0.6363 -2.0055 -3.1392
13278TIP3    H261250   3.074   1.762  16.866  0.7544  1.9154  1.4688
13279TIP3   OH261251   2.797   0.481   3.707  0.0546 -0.5497 -0.1826
13279TIP3    H161252   2.725   0.477   3.644 -0.8086 -0.5697  0.7827
13279TIP3    H261253   2.837   0.567   3.693 -1.0607  0.0488  0.2311
13280TIP3   OH261254   4.523   4.527  13.847  0.0490  0.3507 -0.7984
13280TIP3    H161255   4.523   4.538  13.942 -0.9744 -1.2235 -0.5658
13280TIP3    H261256   4.440   4.565  13.818  0.2427  0.5966 -1.0390
13281TIP3   OH261257   6.613   0.913  11.436  0.5245  0.7508 -0.0930
13281TIP3    H161258   6.591   1.003  11.459 -1.6453 -0.2741  2.2704
13281TIP3    H261259   6.612   0.865  11.519  3.4858 -1.1639 -0.9955
13282TIP3   OH261260   5.327   3.464   4.711  0.3608 -0.1104  0.6069
13282TIP3    H161261   5.247   3.457   4.764  0.0075 -1.2818 -0.0582
13282TIP3    H261262   5.298   3.509   4.631  1.0098  2.1880  1.5776
13283TIP3   OH261263   4.237   6.638  13.794  0.0137  0.4626  0.2654
13283TIP3    H161264   4.230   6.704  13.863 -1.8682 -1.0591  1.6454
13283TIP3    H261265   4.146   6.622  13.768  0.3685 -1.8566  0.2742
13284TIP3   OH261266   1.787   2.376   5.574 -0.3062  0.2572 -0.0461
13284TIP3    H161267   1.767   2.463   5.539 -0.9677 -0.3138 -1.1472
13284TIP3    H261268   1.761   2.381   5.666 -0.3956  1.1978 -0.1087
13285TIP3   OH261269   5.745   3.454   2.637  0.1374  0.0339 -0.5605
13285TIP3    H161270   5.831   3.427   2.605  0.5514 -0.9029  1.2711
13285TIP3    H261271   5.750   3.447   2.732 -1.8963  0.1799 -0.3883
13286TIP3   OH261272   4.823   3.239  17.222  0.4519  0.8177  0.1173
13286TIP3    H161273   4.761   3.174  17.188  0.6048  0.5934  0.2633
13286TIP3    H261274   4.845   3.207  17.309 -0.6482  1.8715  0.8232
13287TIP3   OH261275   3.905   6.324   1.216 -0.9325 -0.7172 -0.4275
13287TIP3    H161276   3.835   6.299   1.276  0.3061 -1.1393  0.9084
13287TIP3    H261277   3.968   6.251   1.221  0.4856  0.4723 -0.1462
13288TIP3   OH261278   1.871   4.119   1.198  0.1367 -0.3391  0.0331
13288TIP3    H161279   1.816   4.051   1.159  1.1205 -2.6667  2.4065
13288TIP3    H261280   1.837   4.130   1.287  1.4549  0.5655  0.4572
13289TIP3   OH261281   0.041   1.573  15.356 -0.3391 -0.5801  0.3494
13289TIP3    H161282   0.003   1.660  15.347  0.7865  0.0585  1.4205
13289TIP3    H261283   0.103   1.566  15.284 -0.8311 -0.7284 -0.0644
13290TIP3   OH261284   0.159   2.787  11.264  0.0010  0.7443  0.6864
13290TIP3    H161285   0.130   2.788  11.173  0.7215  0.3660  0.4493
13290TIP3    H261286   0.157   2.695  11.289  1.3262  0.6625  0.5513
13291TIP3   OH261287   0.225   5.439   0.201  0.1155 -0.3508  0.2706
13291TIP3    H161288   0.290   5.480   0.258 -0.7773  0.5967  0.6358
13291TIP3    H261289   0.148   5.429   0.257 -0.3237 -0.6935 -0.3865
13292TIP3   OH261290   2.779   1.877  15.708 -0.4851  0.1227 -0.0815
13292TIP3    H161291   2.800   1.952  15.653  0.6338  0.3190  0.5926
13292TIP3    H261292   2.720   1.911  15.774 -0.7936  0.1753 -0.3817
13293TIP3   OH261293   2.791   2.997   4.065 -0.0662  0.2105 -0.2717
13293TIP3    H161294   2.733   2.958   4.130 -0.5165  0.7643 -0.3335
13293TIP3    H261295   2.786   2.939   3.990  0.3245 -0.3436  0.1225
13294TIP3   OH261296   0.728   0.038  15.061 -0.6042  0.3584  0.6950
13294TIP3    H161297   0.644  -0.008  15.055 -0.5635  0.4447 -0.8786
13294TIP3    H261298   0.790  -0.029  15.089 -0.4675 -0.7134 -1.9461
13295TIP3   OH261299   5.341   6.522   0.352  0.9578 -0.3339 -0.4184
13295TIP3    H161300   5.431   6.498   0.329  1.0718 -1.0868  0.7057
13295TIP3    H261301   5.317   6.459   0.420  0.1231  0.7960  0.3642
13296TIP3   OH261302   6.312   5.634  13.827 -0.8863  0.5612 -0.1627
13296TIP3    H161303   6.294   5.728  13.832  0.0305  0.7064  0.6677
13296TIP3    H261304   6.408   5.628  13.835 -0.5050 -0.2036 -3.7147
13297TIP3   OH261305   1.743   3.673   2.189 -0.2552 -0.3456  0.1850
13297TIP3    H161306   1.668   3.730   2.178 -0.2030 -0.2957  0.0856
13297TIP3    H261307   1.805   3.723   2.241  1.0175  0.8571 -2.2813
13298TIP3   OH261308   3.642   4.186   4.584  0.1076 -0.2970 -0.1628
13298TIP3    H161309   3.733   4.158   4.576  1.1879  2.9393 -0.8314
13298TIP3    H261310   3.613   4.151   4.669  2.8869  0.7757  1.3361
13299TIP3   OH261311   2.162   4.917   5.793  0.1044 -0.0386 -0.2550
13299TIP3    H161312   2.228   4.866   5.840  1.5021  1.4943 -0.4579
13299TIP3    H261313   2.103   4.852   5.755  2.3085 -1.5422 -1.2647
13300TIP3   OH261314   1.004   1.815  16.092  0.6182 -0.5085 -0.1733
13300TIP3    H161315   0.977   1.855  16.175 -0.1101 -2.2345  0.4639
13300TIP3    H261316   1.081   1.763  16.115  1.5699  0.4922 -0.9916
13301TIP3   OH261317   3.358   1.668  11.449 -0.7756 -0.2453  0.4311
13301TIP3    H161318   3.437   1.639  11.493 -0.0231 -0.2148 -0.8565
13301TIP3    H261319   3.295   1.682  11.520  0.0249 -1.2914  1.3841
13302TIP3   OH261320   3.418   0.135  14.324  0.9224 -0.2634 -0.1489
13302TIP3    H161321   3.453   0.073  14.388  1.9859 -0.5457 -0.9710
13302TIP3    H261322   3.406   0.083  14.245 -3.1638 -0.6501  0.5005
13303TIP3   OH261323   4.527   4.494  12.561 -0.4568 -0.3598 -0.0005
13303TIP3    H161324   4.546   4.584  12.535 -2.6288  0.4176  0.8495
13303TIP3    H261325   4.464   4.502  12.632  0.4116 -2.5470  1.1136
13304TIP3   OH261326   5.490   3.089   3.385  0.6952 -0.1307 -1.0677
13304TIP3    H161327   5.472   3.158   3.450  1.3699 -0.9975  0.0899
13304TIP3    H261328   5.428   3.106   3.314 -1.7809 -0.5055  0.8521
13305TIP3   OH261329   0.345   0.268  15.008 -0.1928  0.1907 -0.7109
13305TIP3    H161330   0.395   0.295  14.931 -1.8922  0.2051 -1.8797
13305TIP3    H261331   0.347   0.345  15.066  0.0683  0.6359 -1.3015
13306TIP3   OH261332   0.382   6.651   5.727 -0.1550  0.3360  0.0145
13306TIP3    H161333   0.434   6.661   5.807  0.3323  0.2769 -0.2927
13306TIP3    H261334   0.372   6.556   5.717  1.2751  0.2494 -0.9315
13307TIP3   OH261335   4.227   1.030  14.358 -0.2651 -0.0086  0.0812
13307TIP3    H161336   4.272   1.102  14.314 -0.8895 -1.2284 -2.7862
13307TIP3    H261337   4.140   1.066  14.380  0.1452  0.6911  0.6229
13308TIP3   OH261338   4.342   5.238  13.011  0.5955 -0.2709  0.3838
13308TIP3    H161339   4.376   5.149  13.009  2.9144  0.5475 -1.0406
13308TIP3    H261340   4.401   5.285  13.070 -0.8628  0.2595  1.4638
13309TIP3   OH261341   0.875   2.538   5.081 -0.0875  0.2172  0.4314
13309TIP3    H161342   0.914   2.450   5.078  0.8958  0.5834  1.4494
13309TIP3    H261343   0.794   2.531   5.032  0.7121 -0.8914 -0.7784
13310TIP3   OH261344   4.447   3.410   5.365  0.1974 -0.3415 -0.1843
13310TIP3    H161345   4.413   3.472   5.301 -0.5421  0.7420  1.2122
13310TIP3    H261346   4.424   3.448   5.450  2.6411 -0.8591  0.7861
13311TIP3   OH261347   5.936   5.403   2.660  0.0678  0.6972  0.2379
13311TIP3    H161348   5.931   5.317   2.703 -0.8579  0.5192 -0.1874
13311TIP3    H261349   6.000   5.391   2.590 -0.8533  0.0091 -0.5225
13312TIP3   OH261350   2.092   6.295   5.224  0.2387  0.1107 -0.7747
13312TIP3    H161351   2.085   6.212   5.176  1.0928 -0.5962  0.2915
13312TIP3    H261352   2.004   6.332   5.220 -0.4440 -1.3838 -0.3407
13313TIP3   OH261353   3.787   2.505   3.838 -0.2189  0.1258  0.2963
13313TIP3    H161354   3.799   2.563   3.763 -0.8162 -0.5801 -0.3703
13313TIP3    H261355   3.875   2.483   3.866  0.0093  0.7719  0.1020
13314TIP3   OH261356   1.745   3.642   1.151 -0.5906  0.3453 -0.0839
13314TIP3    H161357   1.803   3.567   1.134 -0.6159  0.3516 -0.2005
13314TIP3    H261358   1.760   3.664   1.243 -1.4402 -0.5411  0.2893
13315TIP3   OH261359   4.885   1.455  11.940  0.0471 -0.0210  0.1533
13315TIP3    H161360   4.868   1.449  11.846 -0.5908 -0.3143  0.2832
13315TIP3    H261361   4.951   1.387  11.957  1.0545  0.8256 -0.2770
13316TIP3   OH261362   2.250   2.710  15.973 -0.8491  0.2872  0.2194
13316TIP3    H161363   2.221   2.765  16.046 -1.1269  0.4175  0.0139
13316TIP3    H261364   2.196   2.632  15.979 -0.8357  0.2752  0.1843
13317TIP3   OH261365   0.528   6.388  16.447 -0.2584  0.5945 -0.6059
13317TIP3    H161366   0.587   6.463  16.448 -0.1720  0.5241 -0.2200
13317TIP3    H261367   0.529   6.355  16.537  1.8014 -1.5087 -1.2894
13318TIP3   OH261368   1.155   6.078  11.685  0.3912  0.4121  0.8438
13318TIP3    H161369   1.144   5.983  11.691 -1.7459  0.4849 -0.6425
13318TIP3    H261370   1.103   6.113  11.757  0.9723  0.4673  1.2391
13319TIP3   OH261371   0.870   0.025  16.904  0.3829  0.1940 -0.2914
13319TIP3    H161372   0.835   0.112  16.922  1.7269  0.8381 -0.6562
13319TIP3    H261373   0.824  -0.004  16.825 -0.3237  0.4175  0.0322
13320TIP3   OH261374   4.603   3.075  15.845 -0.1990 -0.0416  0.0834
13320TIP3    H161375   4.524   3.034  15.810 -0.0730 -2.0647  1.9683
13320TIP3    H261376   4.576   3.165  15.864 -1.0982  0.2503 -2.2253
13321TIP3   OH261377   6.078   2.981  10.885 -0.3459  0.4999 -0.2671
13321TIP3    H161378   6.161   2.990  10.837 -0.0287  0.3213  0.2384
13321TIP3    H261379   6.012   3.017  10.826 -0.3410 -1.9531 -1.9027
13322TIP3   OH261380   2.947   6.162   5.097  0.5604  0.5479  0.7122
13322TIP3    H161381   2.993   6.176   5.179 -2.3574  0.3276  2.5251
13322TIP3    H261382   2.994   6.215   5.033  2.9056  0.7631  2.5002
13323TIP3   OH261383   2.008   0.629  12.977 -0.4878  0.0779  0.0258
13323TIP3    H161384   1.932   0.620  12.919 -0.7407 -1.9553  0.6183
13323TIP3    H261385   1.988   0.574  13.052  1.3740 -0.0979  0.4382
13324TIP3   OH261386   0.214   5.893   5.857 -0.2351  0.2865 -0.0192
13324TIP3    H161387   0.213   5.931   5.945  0.2474  0.5660 -0.1305
13324TIP3    H261388   0.269   5.815   5.866 -1.7768 -0.8072  0.3664
13325TIP3   OH261389   6.305   2.624  12.681 -0.2789  0.9533 -0.3747
13325TIP3    H161390   6.286   2.631  12.774 -0.0213 -1.1336 -0.1223
13325TIP3    H261391   6.293   2.531  12.660  0.1530  1.2792 -2.3119
13326TIP3   OH261392   1.304   5.296   2.472  0.4326  0.0583 -0.0137
13326TIP3    H161393   1.322   5.205   2.448  1.1038  0.4078 -0.9010
13326TIP3    H261394   1.391   5.335   2.484  0.1663  0.0256  2.6812
13327TIP3   OH261395   0.588   3.479  15.094 -0.2567 -0.0291 -0.0321
13327TIP3    H161396   0.622   3.436  15.015  0.4892 -0.3057  0.4343
13327TIP3    H261397   0.597   3.573  15.076  2.2423 -0.0713  0.6781
13328TIP3   OH261398   1.514   2.309   1.690 -0.0727 -0.3133 -0.3584
13328TIP3    H161399   1.502   2.293   1.783 -0.6097 -0.1202 -0.3872
13328TIP3    H261400   1.426   2.305   1.653 -0.0443  0.9408 -0.6333
13329TIP3   OH261401   3.365   2.938  12.177 -0.4937  0.1838 -0.3653
13329TIP3    H161402   3.380   2.877  12.105 -0.0375 -0.3363  0.1679
13329TIP3    H261403   3.407   2.898  12.253  0.9425  1.7601 -0.2634
13330TIP3   OH261404   4.913   2.097   5.887 -0.5694  0.0111  0.2298
13330TIP3    H161405   4.904   2.035   5.959  2.3039 -0.5877  0.2280
13330TIP3    H261406   5.005   2.124   5.891 -0.7975  1.3925 -2.0721
13331TIP3   OH261407   4.124   3.549   2.887 -0.5635  0.3352 -0.5349
13331TIP3    H161408   4.193   3.593   2.938  0.3495 -1.1726 -0.4156
13331TIP3    H261409   4.171   3.504   2.817 -1.5865  0.4192 -1.2989
13332TIP3   OH261410   1.031   0.874  14.080 -0.1441  0.7894  0.5538
13332TIP3    H161411   1.068   0.894  13.994  0.1020  0.1021  0.4914
13332TIP3    H261412   1.075   0.793  14.106 -0.8819  0.5023  0.9263
13333TIP3   OH261413   2.099   0.292   6.433  1.0092  0.0522 -0.0352
13333TIP3    H161414   2.124   0.258   6.519  0.3683  0.2080  0.2129
13333TIP3    H261415   2.104   0.387   6.442 -0.2924  0.1034  0.2071
13334TIP3   OH261416   5.618   2.530   0.674 -0.2761  0.0375 -0.3094
13334TIP3    H161417   5.690   2.473   0.645  0.8198  0.3900  1.5344
13334TIP3    H261418   5.547   2.512   0.613  1.1914 -0.7357 -1.8886
13335TIP3   OH261419   0.734   3.281  16.273 -0.5598  0.3166 -0.3919
13335TIP3    H161420   0.651   3.268  16.318 -0.4648  1.6816  0.2451
13335TIP3    H261421   0.766   3.365  16.307  1.4802 -0.5703  0.0260
13336TIP3   OH261422   5.733   6.547   4.205 -0.3549  0.2039  0.1676
13336TIP3    H161423   5.769   6.632   4.181  1.1999 -0.2952  0.6474
13336TIP3    H261424   5.791   6.514   4.273 -1.6242 -0.7352  0.8389
13337TIP3   OH261425   3.365   4.409   4.746  0.0470 -0.2721  0.5160
13337TIP3    H161426   3.355   4.431   4.839  1.8679 -0.4537  0.7920
13337TIP3    H261427   3.425   4.475   4.712  0.0860 -0.7301 -0.3242
13338TIP3   OH261428   3.967   6.330   2.849 -0.8255  0.3901 -0.0469
13338TIP3    H161429   3.912   6.252   2.855  0.5629 -0.6079  0.1311
13338TIP3    H261430   3.993   6.348   2.940 -0.0610  0.2382 -0.2227
13339TIP3   OH261431   0.150   3.683  16.300  0.0123 -0.0239 -0.7577
13339TIP3    H161432   0.228   3.738  16.290 -0.1602  0.4763  0.5186
13339TIP3    H261433   0.166   3.632  16.379 -1.4454  0.9563  0.2213
13340TIP3   OH261434   6.777   0.427   1.482 -0.4064  0.4430 -0.4387
13340TIP3    H161435   6.759   0.403   1.391 -1.1150  0.4009 -0.2948
13340TIP3    H261436   6.714   0.496   1.502 -0.5136  0.1864  0.1374
13341TIP3   OH261437   2.511   1.944   6.123 -0.0463 -0.1100 -0.1880
13341TIP3    H161438   2.538   1.991   6.044 -0.8590  1.6647  0.5381
13341TIP3    H261439   2.426   1.906   6.100 -1.4856  2.4517  0.4944
13342TIP3   OH261440   1.556   3.565  17.021  0.1676  0.3684 -0.3783
13342TIP3    H161441   1.580   3.526  17.105 -0.8679  1.8401  0.6539
13342TIP3    H261442   1.488   3.629  17.043 -2.7089 -1.5837 -2.7349
13343TIP3   OH261443   6.439   5.976   1.602  0.2889 -0.7465 -0.3946
13343TIP3    H161444   6.373   5.964   1.671  1.2973  0.8677  0.9373
13343TIP3    H261445   6.499   5.902   1.613 -0.8859 -1.8585 -1.1851
13344TIP3   OH261446   3.330   6.345   0.434  0.1000 -0.3446  0.2919
13344TIP3    H161447   3.319   6.393   0.352  0.0818 -1.6955 -0.5270
13344TIP3    H261448   3.380   6.267   0.410 -1.4334 -1.6789  1.2012
13345TIP3   OH261449   1.849   0.057   3.987  0.5014  0.4138  1.0750
13345TIP3    H161450   1.909   0.129   3.969 -0.5302  0.9569 -0.3572
13345TIP3    H261451   1.895   0.003   4.051  2.4705  0.8485  0.0973
13346TIP3   OH261452   2.559   1.296  13.708 -0.1653  0.1158 -0.6245
13346TIP3    H161453   2.503   1.248  13.769  0.3017 -0.7069 -0.8429
13346TIP3    H261454   2.565   1.384  13.746 -0.3840 -0.2110  0.1840
13347TIP3   OH261455   3.473   0.949   0.985 -0.1662  0.2403  0.7701
13347TIP3    H161456   3.416   0.876   0.961  0.8118  0.1370 -1.4720
13347TIP3    H261457   3.413   1.014   1.024 -1.8272  0.0164 -1.2225
13348TIP3   OH261458   3.375   2.161  16.982  0.5490 -0.0229 -0.8713
13348TIP3    H161459   3.333   2.210  16.911 -0.6744  0.7812  0.3550
13348TIP3    H261460   3.469   2.172  16.966  0.3222 -0.3605 -2.6744
13349TIP3   OH261461   6.505   1.174  11.509  0.4718  0.0356 -0.1067
13349TIP3    H161462   6.410   1.183  11.504  0.5421  1.0447  0.1980
13349TIP3    H261463   6.524   1.174  11.603  0.8983  1.3734 -0.1782
13350TIP3   OH261464   3.589   3.688   0.428  0.5754  0.0540 -0.4452
13350TIP3    H161465   3.572   3.668   0.336  3.5220 -2.9800 -0.5362
13350TIP3    H261466   3.584   3.783   0.433 -1.2305  0.2350 -3.3509
13351TIP3   OH261467   3.222   2.959  14.682 -0.3962 -0.4653 -0.0581
13351TIP3    H161468   3.178   2.940  14.765  1.7943  2.3311  1.9464
13351TIP3    H261469   3.152   2.985  14.623 -1.9892 -2.1445  0.9989
13352TIP3   OH261470   6.357   5.442  15.086  0.0834  0.7290 -0.8622
13352TIP3    H161471   6.320   5.359  15.057  1.3457 -1.0322  2.1142
13352TIP3    H261472   6.302   5.469  15.159  0.1733  2.1662 -1.2762
13353TIP3   OH261473   5.784   6.719  11.940 -0.6001  0.1119  0.2331
13353TIP3    H161474   5.827   6.799  11.972 -0.7179  0.4081 -0.3378
13353TIP3    H261475   5.822   6.705  11.853 -1.9883  0.6366 -0.4842
13354TIP3   OH261476   3.856   1.411  14.159 -0.2663  0.5796  0.2240
13354TIP3    H161477   3.920   1.412  14.231 -0.3339  0.6404  0.2836
13354TIP3    H261478   3.781   1.363  14.194 -0.0887  0.1364  0.0100
13355TIP3   OH261479   0.061   1.880   2.788  0.0164 -0.1907  0.6208
13355TIP3    H161480   0.057   1.954   2.849 -2.3991  0.1048  0.2151
13355TIP3    H261481  -0.029   1.849   2.783  0.3571 -0.9869 -1.8660
13356TIP3   OH261482   5.535   3.987  11.911  0.0768  0.2881  0.4132
13356TIP3    H161483   5.620   3.944  11.922 -0.0840 -0.5128 -1.1876
13356TIP3    H261484   5.494   3.980  11.997  1.5556  0.5844  1.1909
13357TIP3   OH261485   6.116   6.299  14.820 -0.0301 -0.8943  0.0736
13357TIP3    H161486   6.032   6.261  14.795 -0.2323 -0.4910  0.1277
13357TIP3    H261487   6.139   6.355  14.746 -0.4425  0.0040  0.6108
13358TIP3   OH261488   3.967   4.218   3.929  0.0786  0.0455 -0.4459
13358TIP3    H161489   3.999   4.249   3.844 -0.0363  0.1381 -0.4555
13358TIP3    H261490   3.909   4.287   3.960 -1.6829 -0.9694 -1.3299
13359TIP3   OH261491   4.714   1.287   0.490  0.0702 -0.2768  0.7106
13359TIP3    H161492   4.676   1.263   0.405  1.2962 -0.0712  0.0903
13359TIP3    H261493   4.802   1.252   0.488  1.7536  3.4795  0.0532
13360TIP3   OH261494   1.842   1.467  15.762  0.0575 -0.2816  0.2527
13360TIP3    H161495   1.925   1.420  15.769  0.6738  0.9096  1.3813
13360TIP3    H261496   1.866   1.551  15.723 -0.1336  1.1065  2.9488
13361TIP3   OH261497   3.634   3.525  12.689  0.6034 -0.4225 -0.1842
13361TIP3    H161498   3.625   3.535  12.595  1.1515 -0.0713 -0.1991
13361TIP3    H261499   3.715   3.476  12.701  1.4194  0.9927  0.1687
13362TIP3   OH261500   3.641   1.583  11.606  0.2332 -0.1405  0.6447
13362TIP3    H161501   3.596   1.651  11.656  0.6253  0.8113 -0.2594
13362TIP3    H261502   3.709   1.551  11.666  0.8000  1.0864  0.6912
13363TIP3   OH261503   1.796   3.683  16.116 -0.3230 -0.0917  0.1072
13363TIP3    H161504   1.763   3.593  16.122  0.1512 -0.2700  0.0533
13363TIP3    H261505   1.836   3.699  16.201  1.2157 -0.5796 -0.4861
13364TIP3   OH261506   0.084   2.040  16.303 -0.4579  0.2399 -0.1138
13364TIP3    H161507   0.052   1.990  16.228 -0.8641 -0.4984  0.5302
13364TIP3    H261508   0.033   2.122  16.300 -1.7677 -0.5221  0.3531
13365TIP3   OH261509   4.005   2.651   3.196 -0.3337 -0.2328  0.4519
13365TIP3    H161510   3.944   2.694   3.256 -0.9868 -0.1487 -0.2557
13365TIP3    H261511   3.948   2.601   3.137  0.4037 -2.3641  1.4576
13366TIP3   OH261512   4.067   4.177   4.175 -0.1411  0.3661  0.1446
13366TIP3    H161513   4.037   4.174   4.084 -0.9502  0.3763  0.4056
13366TIP3    H261514   4.142   4.117   4.177 -0.2173  0.2390 -0.4921
13367TIP3   OH261515   1.714   4.639  16.871 -0.4726  0.1156  0.1953
13367TIP3    H161516   1.731   4.619  16.779 -0.9207 -1.3650  0.4108
13367TIP3    H261517   1.800   4.646  16.911 -0.2781  0.6801 -0.3046
13368TIP3   OH261518   3.857   2.140   2.474  0.0804  0.9844 -0.0584
13368TIP3    H161519   3.924   2.160   2.539 -0.5526  1.4921  0.4466
13368TIP3    H261520   3.790   2.092   2.522  1.0939 -1.5717 -1.0326
13369TIP3   OH261521   6.084   0.121  11.265  0.3500  0.0967 -1.0520
13369TIP3    H161522   5.992   0.095  11.261 -0.1272  1.5213 -0.0071
13369TIP3    H261523   6.112   0.124  11.174 -0.6905 -0.1790 -1.3933
13370TIP3   OH261524   5.602   4.755  10.475  0.4199 -0.1992 -0.0812
13370TIP3    H161525   5.608   4.763  10.570 -0.6785  0.1819 -0.0264
13370TIP3    H261526   5.689   4.727  10.447  1.0070  0.5380  0.9507
13371TIP3   OH261527   4.314   0.217  13.319 -0.1587 -0.6202 -0.3288
13371TIP3    H161528   4.301   0.215  13.414 -0.9274  1.0537 -0.3558
13371TIP3    H261529   4.387   0.277  13.306 -1.4541  0.9111 -0.8635
13372TIP3   OH261530   5.046   2.159  11.332  0.2548  0.1704  0.1318
13372TIP3    H161531   4.997   2.130  11.255 -1.8380  0.8370  1.1293
13372TIP3    H261532   4.982   2.210  11.383  1.7536  0.3197  1.9684
13373TIP3   OH261533   3.050   5.229  16.588 -0.6916  0.2720  0.0480
13373TIP3    H161534   3.039   5.135  16.602 -0.1532  0.1629 -0.2342
13373TIP3    H261535   3.112   5.235  16.515  0.4979  0.8436  1.0802
13374TIP3   OH261536   1.393   2.607   5.420 -0.3473  0.0757 -0.0102
13374TIP3    H161537   1.429   2.538   5.363 -1.4725  0.7065 -1.5499
13374TIP3    H261538   1.302   2.583   5.433  0.3061 -1.1458  3.3139
13375TIP3   OH261539   0.600   6.313   3.218  0.7400  0.3085  0.1411
13375TIP3    H161540   0.646   6.232   3.195 -2.4272 -1.7694  0.4700
13375TIP3    H261541   0.617   6.323   3.312 -0.5393 -1.2700  0.5880
13376TIP3   OH261542   3.545   2.688   5.258 -0.6233 -0.2483  0.0490
13376TIP3    H161543   3.481   2.754   5.286 -1.3826 -1.6481  1.7598
13376TIP3    H261544   3.541   2.620   5.325  1.8629 -0.9434 -0.3894
13377TIP3   OH261545   3.175   5.185  14.516  0.2089 -0.3344  0.2584
13377TIP3    H161546   3.190   5.176  14.611 -2.8659 -1.6115  0.7276
13377TIP3    H261547   3.205   5.102  14.480  1.4799  0.1927  0.0309
13378TIP3   OH261548   4.297   1.171   5.254 -0.5322  0.0086 -0.2348
13378TIP3    H161549   4.254   1.180   5.339  2.0296 -2.9664  1.6025
13378TIP3    H261550   4.242   1.222   5.194 -2.3126  2.5186  3.1683
13379TIP3   OH261551   4.825   4.141  15.378 -0.4223  0.1065  0.0858
13379TIP3    H161552   4.899   4.081  15.378 -0.3712  0.1690  0.2018
13379TIP3    H261553   4.798   4.147  15.286  0.2269  0.7139 -0.0802
13380TIP3   OH261554   0.609   4.088  12.464 -0.1045 -0.1125 -0.2211
13380TIP3    H161555   0.622   4.024  12.534  0.9901 -1.5186 -1.6325
13380TIP3    H261556   0.694   4.131  12.455 -0.2352  0.0518 -0.6976
13381TIP3   OH261557   3.251   1.618   1.263  0.2222  0.3268 -0.4870
13381TIP3    H161558   3.338   1.638   1.229  1.8290 -1.1239  2.3665
13381TIP3    H261559   3.245   1.670   1.344 -1.5578  0.2994 -0.5535
13382TIP3   OH261560   4.836   1.928  14.755  0.1984  0.1372 -0.1335
13382TIP3    H161561   4.883   1.966  14.828  1.1574 -1.2496  0.0107
13382TIP3    H261562   4.805   2.003  14.704  0.2519  1.1041  1.2132
13383TIP3   OH261563   6.317   5.237  16.962 -0.3489  0.1671 -0.4311
13383TIP3    H161564   6.341   5.220  16.871 -3.9126 -0.1888 -1.4862
13383TIP3    H261565   6.297   5.150  16.997  1.1438  0.2890  0.7915
13384TIP3   OH261566   3.013   0.865   5.719  0.0585  0.2827  0.1091
13384TIP3    H161567   3.096   0.913   5.710 -0.3563  1.1540  0.7791
13384TIP3    H261568   3.037   0.784   5.765  1.1472 -1.3039 -3.0139
13385TIP3   OH261569   4.995   4.832   2.938 -0.2671  0.9445 -0.3739
13385TIP3    H161570   4.904   4.838   2.967 -0.2361 -0.8162  0.2040
13385TIP3    H261571   5.040   4.902   2.986 -1.0801  0.9802  0.3571
13386TIP3   OH261572   3.092   2.593   5.806  0.1401 -0.2324  0.0911
13386TIP3    H161573   3.153   2.519   5.804  2.0163  1.2276  0.7027
13386TIP3    H261574   3.006   2.553   5.822  1.4310 -2.0950  3.0752
13387TIP3   OH261575   5.071   6.117  13.649  0.2470  0.2030 -0.2856
13387TIP3    H161576   5.123   6.104  13.729 -1.5978 -0.9678  0.8032
13387TIP3    H261577   5.024   6.198  13.664  1.8576  1.3974 -1.3802
13388TIP3   OH261578   6.691   5.017  14.656  0.1382  0.1882  0.6301
13388TIP3    H161579   6.711   4.923  14.656 -0.9553 -0.0580 -0.1399
13388TIP3    H261580   6.729   5.049  14.738 -0.8208 -1.2272  1.6709
13389TIP3   OH261581   3.181   4.646  14.745 -0.3941 -0.7185  0.6157
13389TIP3    H161582   3.100   4.660  14.695 -0.3439 -0.5060  0.5949
13389TIP3    H261583   3.187   4.722  14.802  0.1678 -0.3826  0.1131
13390TIP3   OH261584   0.028   0.105   2.608  0.6999  0.0278 -0.1868
13390TIP3    H161585   0.086   0.175   2.636  2.2852 -1.5217  0.6371
13390TIP3    H261586   0.015   0.052   2.687  0.9609 -1.5411 -1.1603
13391TIP3   OH261587   6.490   2.460   4.624  0.1613  0.1797  0.1151
13391TIP3    H161588   6.441   2.382   4.648  0.9448 -1.1665 -2.2803
13391TIP3    H261589   6.572   2.453   4.674  1.5153 -2.2277 -2.1792
13392TIP3   OH261590   0.152   0.766   4.561  0.5822  0.1296 -0.3438
13392TIP3    H161591   0.152   0.788   4.468  1.1585  0.4731 -0.2687
13392TIP3    H261592   0.123   0.846   4.605  0.3544 -0.0167 -0.2240
13393TIP3   OH261593   1.845   1.302   5.868 -0.2752 -0.2634  0.2890
13393TIP3    H161594   1.805   1.284   5.952 -1.7068 -1.2503 -0.5646
13393TIP3    H261595   1.870   1.216   5.834 -0.3520  0.0536 -0.5923
13394TIP3   OH261596   0.256   3.956   0.522 -0.3560  0.8807  0.0223
13394TIP3    H161597   0.237   3.987   0.433 -0.2041  1.2216  0.1060
13394TIP3    H261598   0.258   4.036   0.574 -0.2070  0.7001  0.2910
13395TIP3   OH261599   0.193   1.797   4.632 -0.2736 -0.2714  0.1946
13395TIP3    H161600   0.251   1.760   4.699  0.0231 -1.1483 -0.5224
13395TIP3    H261601   0.215   1.890   4.631  1.2898 -0.6066 -0.1871
13396TIP3   OH261602   1.995   3.328  11.996 -0.8284 -0.2035 -0.2934
13396TIP3    H161603   2.061   3.259  12.001 -1.4089 -0.7847 -0.5554
13396TIP3    H261604   1.937   3.310  12.070  0.1103  1.1820  0.8659
13397TIP3   OH261605   4.877   6.425  14.235  0.0470 -0.4639 -0.4647
13397TIP3    H161606   4.793   6.396  14.202  1.2574 -1.6728 -2.6871
13397TIP3    H261607   4.937   6.415  14.161  1.7728  2.2486  0.4105
13398TIP3   OH261608   6.441   5.828   5.488 -0.1050 -0.3790  0.4402
13398TIP3    H161609   6.402   5.775   5.557 -0.2738 -0.2513  0.4420
13398TIP3    H261610   6.491   5.766   5.435 -0.5358 -0.5806  0.2732
13399TIP3   OH261611   1.267   1.104   0.519  0.0985 -0.5070 -0.4028
13399TIP3    H161612   1.259   1.029   0.578  1.2588 -0.1573  0.2123
13399TIP3    H261613   1.284   1.065   0.433 -0.8162 -0.9823 -0.3884
13400TIP3   OH261614   2.679   4.422   4.721  0.1896  0.9039  0.3010
13400TIP3    H161615   2.585   4.404   4.723  0.1507  1.1298  0.6297
13400TIP3    H261616   2.706   4.414   4.813  0.0410  3.2307  0.5910
13401TIP3   OH261617   3.906   0.484  12.740 -0.4485 -0.4754  0.0840
13401TIP3    H161618   3.885   0.541  12.814  0.2823  1.8924 -1.4307
13401TIP3    H261619   3.959   0.538  12.682 -1.9121 -1.8594 -2.7369
13402TIP3   OH261620   2.872   6.455   5.153  0.1278 -0.0610  0.7924
13402TIP3    H161621   2.838   6.382   5.206 -0.4314  0.4031  1.0834
13402TIP3    H261622   2.872   6.421   5.063 -2.5732  0.3688  0.5317
13403TIP3   OH261623   5.656   0.581   2.476  0.1961  0.2840 -0.0937
13403TIP3    H161624   5.594   0.601   2.407 -0.9550 -1.6168  0.2978
13403TIP3    H261625   5.740   0.614   2.444 -0.6058  0.8945 -1.6515
13404TIP3   OH261626   5.086   4.159   1.156  0.0501  0.7843 -0.6835
13404TIP3    H161627   5.018   4.184   1.218  0.6268  0.1686  0.2209
13404TIP3    H261628   5.039   4.146   1.073 -1.2768 -1.3625  0.3019
13405TIP3   OH261629   4.160   4.760  14.759 -0.1623  0.1061  0.0922
13405TIP3    H161630   4.072   4.722  14.764 -0.5386  1.0450  0.9371
13405TIP3    H261631   4.173   4.779  14.666 -1.6498  1.7532  0.1855
13406TIP3   OH261632   2.184   0.846   4.640  0.0393  0.0481 -0.1921
13406TIP3    H161633   2.159   0.799   4.719 -0.9601 -0.3041 -0.7040
13406TIP3    H261634   2.275   0.821   4.625  0.6146  0.9850  1.4494
13407TIP3   OH261635   1.200   4.912   2.147  0.1131  0.0699 -0.0586
13407TIP3    H161636   1.202   5.007   2.160 -0.0350  0.0131  0.4085
13407TIP3    H261637   1.231   4.899   2.058  0.3150  0.5462 -0.0599
13408TIP3   OH261638   5.068   4.023   1.743  0.1286 -0.4919  0.1733
13408TIP3    H161639   5.067   4.073   1.661  0.2073  1.1177  1.1209
13408TIP3    H261640   4.983   4.041   1.783  0.0591 -1.3364  0.4196
13409TIP3   OH261641   5.836   6.361   5.564 -0.2912 -0.3506 -0.3673
13409TIP3    H161642   5.913   6.408   5.596  1.1044 -1.9264 -1.2651
13409TIP3    H261643   5.809   6.409   5.485  1.0653 -0.9482 -1.2302
13410TIP3   OH261644   4.498   1.392  12.359  0.1019  0.3351  0.0041
13410TIP3    H161645   4.536   1.307  12.337  0.7369  0.8783 -1.1059
13410TIP3    H261646   4.484   1.434  12.274 -1.2305  0.9204  0.4803
13411TIP3   OH261647   2.687   4.354   5.577  0.2403  0.1570  0.0051
13411TIP3    H161648   2.627   4.368   5.651  1.3588 -0.4780  1.0794
13411TIP3    H261649   2.737   4.435   5.572  1.4742 -0.4702  1.2462
13412TIP3   OH261650   5.145   0.506   4.141 -0.2274 -0.6929 -0.3490
13412TIP3    H161651   5.178   0.551   4.064  0.0912  0.6962  0.5540
13412TIP3    H261652   5.125   0.417   4.111 -1.9388  0.3201 -2.4781
13413TIP3   OH261653   3.996   5.414   6.801  0.1354  0.4029  0.2526
13413TIP3    H161654   4.011   5.348   6.868  2.7245 -0.4714 -1.0396
13413TIP3    H261655   3.981   5.495   6.850  0.9084 -0.3861  1.8800
13414TIP3   OH261656   4.895   4.513  11.814  0.0998  0.0015  0.0858
13414TIP3    H161657   4.852   4.450  11.757 -1.5290 -0.1346  1.3842
13414TIP3    H261658   4.861   4.598  11.786 -1.0338 -0.0992  1.0580
13415TIP3   OH261659   0.754   1.405   2.367  0.1664 -1.0019 -0.2524
13415TIP3    H161660   0.691   1.334   2.356 -2.9416  1.5247  0.1241
13415TIP3    H261661   0.760   1.445   2.280  0.1502 -0.3419  0.0500
13416TIP3   OH261662   1.909   6.001   0.538  0.0169  0.6057 -0.6531
13416TIP3    H161663   1.964   5.960   0.471  1.8636  0.3150  0.9595
13416TIP3    H261664   1.967   6.063   0.582 -1.0684  0.6039  0.8448
13417TIP3   OH261665   3.927   6.548  16.780  0.1469 -0.4486 -0.3538
13417TIP3    H161666   3.859   6.616  16.773  0.2176  0.0548  2.4346
13417TIP3    H261667   3.974   6.552  16.697 -0.4109  2.3419 -0.6427
13418TIP3   OH261668   3.118   0.241   5.829 -0.0547  0.4563 -0.9971
13418TIP3    H161669   3.182   0.172   5.846  1.3573  2.1256  0.9986
13418TIP3    H261670   3.155   0.290   5.756  2.0189  2.4040  1.1559
13419TIP3   OH261671   1.161   4.442  15.675 -0.5636  0.5874 -0.8517
13419TIP3    H161672   1.183   4.401  15.592 -1.6692 -0.7407 -0.5348
13419TIP3    H261673   1.069   4.468  15.665 -0.6487  0.5884 -0.1216
13420TIP3   OH261674   6.053   4.480   6.275  0.9119  0.1091  0.3602
13420TIP3    H161675   5.989   4.457   6.343 -0.2920  1.4082 -0.2772
13420TIP3    H261676   6.096   4.397   6.253 -0.0176 -0.6638  1.3324
13421TIP3   OH261677   1.551   6.065  16.415 -0.1122 -0.3170  0.5502
13421TIP3    H161678   1.473   6.042  16.364  0.3806 -4.0707  1.1862
13421TIP3    H261679   1.516   6.087  16.502 -0.5313 -1.3684  0.6622
13422TIP3   OH261680   5.019   0.243   4.113 -0.1210  0.0357 -0.0609
13422TIP3    H161681   4.941   0.284   4.149  0.3853  1.3142 -0.3837
13422TIP3    H261682   4.991   0.207   4.029 -0.0950  1.5483 -0.7371
13423TIP3   OH261683   5.430   4.313   4.419 -0.0766 -0.5493 -0.7228
13423TIP3    H161684   5.345   4.291   4.379 -0.0160 -0.9047 -0.6550
13423TIP3    H261685   5.459   4.232   4.459 -1.8149  0.5480  3.2448
13424TIP3   OH261686   1.988   5.361  14.153 -0.4194  0.7100 -0.2025
13424TIP3    H161687   2.016   5.417  14.080  0.0181  0.3943 -0.2740
13424TIP3    H261688   1.943   5.288  14.111  2.1437 -0.8720 -0.3442
13425TIP3   OH261689   2.101   6.514  10.739  0.1119 -0.1507  0.5620
13425TIP3    H161690   2.135   6.574  10.805  1.4372  1.4223 -1.4374
13425TIP3    H261691   2.133   6.548  10.656 -2.0537 -1.6311 -1.0080
13426TIP3   OH261692   2.038   1.194  15.575  0.0081  0.3598 -0.0788
13426TIP3    H161693   2.089   1.240  15.643 -0.7199 -0.8993  1.3949
13426TIP3    H261694   1.998   1.263  15.524  1.3851  1.3611  0.1283
13427TIP3   OH261695   1.538   0.435  16.174  0.0952 -0.2816  0.1152
13427TIP3    H161696   1.591   0.358  16.152  2.0584  0.6909  1.1261
13427TIP3    H261697   1.542   0.440  16.269  0.6012  1.4403  0.0339
13428TIP3   OH261698   1.287   4.218  13.564  0.0487 -0.6254  0.2588
13428TIP3    H161699   1.330   4.211  13.650 -0.3178  0.3596  0.5298
13428TIP3    H261700   1.292   4.311  13.542  1.6880 -1.0712 -1.6034
13429TIP3   OH261701   5.817   6.330  11.149  0.2539  0.7289  0.8692
13429TIP3    H161702   5.797   6.409  11.199  0.0827  1.5356 -0.4342
13429TIP3    H261703   5.762   6.335  11.071  0.5308 -0.4786  0.5615
13430TIP3   OH261704   3.786   0.156   2.670 -0.3858  0.2139 -0.4212
13430TIP3    H161705   3.710   0.124   2.719 -0.6308 -0.6359 -1.3283
13430TIP3    H261706   3.777   0.251   2.673 -1.9796  0.1217 -1.2490
13431TIP3   OH261707   0.533   6.572   0.653  1.1411  0.1745 -0.2020
13431TIP3    H161708   0.559   6.655   0.612 -2.6819  1.1220 -1.1488
13431TIP3    H261709   0.511   6.596   0.743 -1.5161  0.6746 -0.9046
13432TIP3   OH261710   4.183   5.695  13.944  0.1301  0.8702  0.2802
13432TIP3    H161711   4.239   5.624  13.973 -0.2633  0.4219 -0.0317
13432TIP3    H261712   4.124   5.654  13.880  0.0702  1.5319 -0.0949
13433TIP3   OH261713   4.778   4.606   5.426 -0.2100 -0.2228 -0.4932
13433TIP3    H161714   4.746   4.527   5.382  2.1818 -1.7102  0.2133
13433TIP3    H261715   4.747   4.597   5.516  1.9226 -1.6426  0.1808
13434TIP3   OH261716   2.637   3.664  13.140  0.1045  0.2448 -0.3854
13434TIP3    H161717   2.706   3.611  13.101  0.5032  0.3861  0.1053
13434TIP3    H261718   2.652   3.752  13.106 -1.2752 -0.1384 -2.1445
13435TIP3   OH261719   3.012   2.499  17.020 -0.3388  0.0373 -0.2746
13435TIP3    H161720   3.104   2.513  16.996  0.3773 -0.7998  1.7838
13435TIP3    H261721   3.011   2.415  17.065 -2.3253 -0.4645 -1.1461
13436TIP3   OH261722   3.589   3.181   5.581 -0.0296  0.4473  0.5555
13436TIP3    H161723   3.514   3.235   5.555 -1.4508 -1.7523 -0.2074
13436TIP3    H261724   3.662   3.215   5.529 -1.6711 -0.5038 -2.6667
13437TIP3   OH261725   6.012   6.669   4.848  0.6214 -0.5125 -0.2438
13437TIP3    H161726   6.107   6.680   4.848  0.7101 -0.6253 -2.7176
13437TIP3    H261727   5.998   6.588   4.799 -0.7517 -0.6121  0.2718
13438TIP3   OH261728   6.648   1.409  15.622  0.4142 -0.0214  0.3156
13438TIP3    H161729   6.637   1.316  15.641 -0.4601 -0.3434 -1.5414
13438TIP3    H261730   6.576   1.431  15.563 -0.7891  2.4495  2.5184
13439TIP3   OH261731   4.761   0.885   3.803 -0.5038 -0.5296  0.1720
13439TIP3    H161732   4.819   0.827   3.852  2.1607 -0.0864 -2.1969
13439TIP3    H261733   4.782   0.973   3.835 -1.9321 -0.5242  1.2097
13440TIP3   OH261734   1.149   5.253   0.445  0.0541  0.4989  0.5159
13440TIP3    H161735   1.172   5.206   0.366 -0.3743  1.5332 -0.2469
13440TIP3    H261736   1.217   5.230   0.508  0.2011 -0.6090 -0.0307
13441TIP3   OH261737   6.350   1.787  15.784  0.6615  0.6656 -0.4879
13441TIP3    H161738   6.426   1.735  15.807  1.1825  0.0476 -3.2819
13441TIP3    H261739   6.281   1.756  15.843  2.1316  0.1526  1.0426
13442TIP3   OH261740   6.278   4.638  14.238  0.1341 -0.2852  0.4556
13442TIP3    H161741   6.232   4.616  14.157  2.1219  0.6800 -1.0093
13442TIP3    H261742   6.357   4.585  14.236 -0.6677 -1.7213  2.8043
13443TIP3   OH261743   4.748   5.975   1.565  0.0844 -0.1298 -0.6008
13443TIP3    H161744   4.800   6.054   1.550  0.7678 -0.6817 -1.1707
13443TIP3    H261745   4.686   5.973   1.491 -0.3791  0.2174 -0.2309
13444TIP3   OH261746   2.469   3.825   1.248  0.2431  0.6978  0.3796
13444TIP3    H161747   2.552   3.858   1.285  0.8065 -0.1468 -0.1035
13444TIP3    H261748   2.402   3.875   1.294  0.9987  1.0089  1.1912
13445TIP3   OH261749   3.379   4.100   0.967  0.2573 -0.1756 -0.3132
13445TIP3    H161750   3.376   4.086   1.062 -2.5728  0.7384 -0.1585
13445TIP3    H261751   3.455   4.156   0.953 -0.7921  1.9978  1.8464
13446TIP3   OH261752   0.996   1.492   2.882 -0.2425  0.7841  0.0175
13446TIP3    H161753   0.959   1.490   2.793  0.4279  0.0152 -0.2516
13446TIP3    H261754   0.991   1.402   2.912  0.6316  0.8257  0.3080
13447TIP3   OH261755   1.202   1.679  14.529  0.6682  0.2981 -0.6602
13447TIP3    H161756   1.184   1.665  14.436  1.0355 -1.4646 -0.4952
13447TIP3    H261757   1.291   1.646  14.541  0.6998  0.7054  0.2747
13448TIP3   OH261758   3.171   1.843  12.941 -0.6037  0.0571 -0.2070
13448TIP3    H161759   3.107   1.859  13.010 -0.8279  2.1240 -0.8130
13448TIP3    H261760   3.188   1.930  12.904 -0.5649 -0.9596 -2.8063
13449TIP3   OH261761   4.442   4.524   4.810  0.5984 -0.4906 -0.3982
13449TIP3    H161762   4.527   4.492   4.780  0.7300 -0.3248 -0.2117
13449TIP3    H261763   4.379   4.462   4.775  0.7864 -0.5495 -0.6378
13450TIP3   OH261764   5.370   1.224  13.390 -0.5768  0.4300  0.2115
13450TIP3    H161765   5.419   1.144  13.407 -1.4710  0.0313  1.0338
13450TIP3    H261766   5.280   1.203  13.416 -0.9767  1.4614 -0.2738
13451TIP3   OH261767   4.833   2.578  12.999 -0.0647 -0.0864 -0.2169
13451TIP3    H161768   4.817   2.494  12.956  0.1485 -1.1853  1.7528
13451TIP3    H261769   4.747   2.618  13.008 -0.1778 -0.1158 -1.0725
13452TIP3   OH261770   1.055   5.896   3.407  0.2907  0.1175 -0.3753
13452TIP3    H161771   0.995   5.894   3.332  0.6041 -1.3351 -0.6189
13452TIP3    H261772   1.072   5.804   3.426  0.9411  0.4830  0.9141
13453TIP3   OH261773   4.341   4.142   4.629  0.2108  0.5577 -0.2676
13453TIP3    H161774   4.331   4.187   4.545  0.1124  1.1241  0.0432
13453TIP3    H261775   4.417   4.184   4.669  0.6903 -0.1999 -0.3836
13454TIP3   OH261776   3.684   2.013  11.290  0.5207  0.5954  0.2524
13454TIP3    H161777   3.702   2.049  11.377  0.8410  2.4978 -0.5538
13454TIP3    H261778   3.675   1.918  11.304 -2.9359  1.0992  2.9334
13455TIP3   OH261779   6.005   4.690   4.213 -0.3956 -0.4061  0.2646
13455TIP3    H161780   6.083   4.636   4.197  0.0414  0.0270  0.8670
13455TIP3    H261781   5.983   4.726   4.127  1.1727  0.9070  0.3469
13456TIP3   OH261782   1.548   3.655   3.188 -0.5761  0.2365  0.3666
13456TIP3    H161783   1.550   3.577   3.244 -2.2621 -0.3961 -0.4042
13456TIP3    H261784   1.459   3.658   3.153  0.4484  0.5056 -2.4478
13457TIP3   OH261785   4.922   2.771   3.129 -0.0578  0.2493  0.0649
13457TIP3    H161786   4.996   2.737   3.180 -0.3152 -1.4944 -0.6333
13457TIP3    H261787   4.849   2.712   3.152 -0.6115  0.4947 -1.0071
13458TIP3   OH261788   1.325   4.517  11.133 -0.9238 -0.1316 -0.2619
13458TIP3    H161789   1.277   4.450  11.083  2.8919  0.5420 -5.7280
13458TIP3    H261790   1.271   4.595  11.126 -2.8708 -1.2498  1.3719
13459TIP3   OH261791   5.641   3.582   1.991 -0.4169  0.3237 -0.8309
13459TIP3    H161792   5.625   3.666   1.948  0.2570  1.5174  1.1360
13459TIP3    H261793   5.562   3.531   1.974 -1.0760  1.5533 -1.6011
13460TIP3   OH261794   4.416   1.023   5.558 -0.1765  0.0301 -0.2675
13460TIP3    H161795   4.467   1.026   5.639  1.0392 -0.5293 -0.9899
13460TIP3    H261796   4.403   0.930   5.541 -0.5526  0.1479 -0.6409
13461TIP3   OH261797   1.129   3.871  14.381 -0.7650  0.1890 -0.1075
13461TIP3    H161798   1.071   3.833  14.447  1.2693 -1.4302  0.8639
13461TIP3    H261799   1.173   3.943  14.427  0.5222 -0.8248  0.2909
13462TIP3   OH261800   0.577   1.187  11.641 -0.2387 -0.3094  0.0377
13462TIP3    H161801   0.580   1.148  11.553  0.8896 -0.4488  0.1209
13462TIP3    H261802   0.516   1.132  11.690 -0.7328 -0.3448 -0.6048
13463TIP3   OH261803   3.140   1.518  16.972 -0.2145  0.2828  0.4465
13463TIP3    H161804   3.213   1.457  16.980 -0.5906 -0.4688 -1.2809
13463TIP3    H261805   3.179   1.598  16.937 -0.1837 -0.1176 -0.4780
13464TIP3   OH261806   6.542   1.594  15.837  0.3342 -0.5208  0.0416
13464TIP3    H161807   6.575   1.532  15.772 -0.0447 -0.0422 -0.6177
13464TIP3    H261808   6.467   1.550  15.876  0.3323 -0.6543 -0.1119
13465TIP3   OH261809   0.835   5.408   3.449  0.2993 -0.0691 -0.3145
13465TIP3    H161810   0.814   5.460   3.527 -0.7383 -1.7234  0.5815
13465TIP3    H261811   0.762   5.422   3.390 -0.1518 -0.7207  0.0689
13466TIP3   OH261812   5.708   0.332  13.540  0.1324  0.1574  0.1000
13466TIP3    H161813   5.652   0.325  13.617 -0.1367 -2.3520 -0.2181
13466TIP3    H261814   5.735   0.424  13.537 -1.5221  0.7687  1.9682
13467TIP3   OH261815   1.842   0.064  11.565 -0.0857  0.8427  0.8268
13467TIP3    H161816   1.822   0.056  11.471 -0.9290 -0.9143  1.1170
13467TIP3    H261817   1.759   0.086  11.605 -0.0797  0.0057  1.3251
13468TIP3   OH261818   5.328   5.458  15.261  1.0262 -0.6628  0.1907
13468TIP3    H161819   5.242   5.455  15.304  0.2797 -2.3410 -1.3223
13468TIP3    H261820   5.343   5.551  15.246 -0.5405 -0.3365  0.4485
13469TIP3   OH261821   3.970   4.542   2.270 -1.1561 -0.3637  0.3534
13469TIP3    H161822   3.966   4.472   2.205 -0.5641 -0.9105  0.9033
13469TIP3    H261823   3.992   4.498   2.352  1.6146  0.7198  0.2744
13470TIP3   OH261824   0.916   3.087   0.831 -0.5911  0.0026  0.4644
13470TIP3    H161825   0.839   3.136   0.858 -0.3757 -1.0606  3.3910
13470TIP3    H261826   0.990   3.135   0.870 -0.1056 -0.8068  0.5685
13471TIP3   OH261827   2.144   5.950   1.567 -0.3135  0.3029  0.0897
13471TIP3    H161828   2.224   5.937   1.617  1.0829  1.3041 -1.7486
13471TIP3    H261829   2.073   5.936   1.630  1.2508 -1.6302  1.5457
13472TIP3   OH261830   6.183   2.554  13.524  0.4215 -0.0511 -0.5016
13472TIP3    H161831   6.103   2.519  13.562 -1.0678  0.9756 -2.5119
13472TIP3    H261832   6.252   2.493  13.551 -1.0063 -0.9260  1.3139
13473TIP3   OH261833   4.404   1.103  13.560  0.3196  0.0497 -0.2936
13473TIP3    H161834   4.413   1.009  13.544  1.2803  0.1656 -0.5123
13473TIP3    H261835   4.365   1.109  13.647 -2.4508 -0.5618 -1.3764
13474TIP3   OH261836   6.642   4.391   4.628  0.6032  0.2552 -0.2595
13474TIP3    H161837   6.602   4.325   4.685  1.1539 -0.1922 -0.3787
13474TIP3    H261838   6.722   4.417   4.675  0.2281  1.0802 -0.0604
13475TIP3   OH261839   6.617   2.209   5.690 -0.6068 -0.2031  0.1011
13475TIP3    H161840   6.654   2.187   5.604  1.0327 -0.1811  0.7607
13475TIP3    H261841   6.613   2.125   5.736  0.1007  0.0077  0.5663
13476TIP3   OH261842   2.705   0.106  12.716 -0.7328 -0.2493  0.5420
13476TIP3    H161843   2.779   0.098  12.776  0.8620  3.6918 -0.5408
13476TIP3    H261844   2.639   0.156  12.765  0.5056  2.8266 -0.6273
13477TIP3   OH261845   3.117   2.085   5.582  0.2267 -0.1596  0.2449
13477TIP3    H161846   3.101   2.071   5.675 -1.7249 -1.6139 -0.2396
13477TIP3    H261847   3.181   2.156   5.579  1.4711 -1.0651  2.7092
13478TIP3   OH261848   1.471   6.731  11.988  0.8710 -0.2868  0.7415
13478TIP3    H161849   1.564   6.717  11.973  0.9239  0.9214 -0.1771
13478TIP3    H261850   1.441   6.651  12.031  2.1783 -0.9765  0.4003
13479TIP3   OH261851   0.662   2.548  16.584 -0.1181  0.0723 -0.1667
13479TIP3    H161852   0.586   2.493  16.603  1.5672 -1.9386  1.1597
13479TIP3    H261853   0.710   2.553  16.667  2.9130 -1.5791 -1.6296
13480TIP3   OH261854   1.254   0.758  13.111 -0.0076 -0.0866 -0.3303
13480TIP3    H161855   1.286   0.678  13.068 -2.4488 -0.3080 -1.9446
13480TIP3    H261856   1.183   0.727  13.168 -0.0060  0.7668  0.1460
13481TIP3   OH261857   0.704   4.827   0.879  0.6963 -0.1654  0.1361
13481TIP3    H161858   0.799   4.826   0.891  0.8199 -0.1189 -0.8067
13481TIP3    H261859   0.684   4.914   0.844  0.3807 -0.3971 -0.2680
13482TIP3   OH261860   6.737   5.595   0.135 -0.0795 -0.2295 -0.7363
13482TIP3    H161861   6.642   5.609   0.137 -0.3107 -1.5373  1.6564
13482TIP3    H261862   6.747   5.500   0.144  1.4410 -0.0885 -0.7931
13483TIP3   OH261863   6.771   2.958   4.557  0.1557  0.5341 -0.8729
13483TIP3    H161864   6.837   2.945   4.489  2.1392 -1.3861  1.2239
13483TIP3    H261865   6.777   3.050   4.579  1.9193  0.4846 -1.0050
13484TIP3   OH261866   3.264   1.891  11.279 -0.0364  0.4234 -0.0409
13484TIP3    H161867   3.300   1.824  11.336  0.6152  0.2695 -0.6144
13484TIP3    H261868   3.201   1.938  11.333 -0.7561 -0.8683  0.2659
13485TIP3   OH261869   3.887   6.628   5.806  0.3303  0.1741  0.1156
13485TIP3    H161870   3.946   6.681   5.860  2.2761  0.0169 -1.7367
13485TIP3    H261871   3.926   6.541   5.806 -1.0281 -0.4694  0.4471
13486TIP3   OH261872   0.020   0.603  12.742 -0.4392 -0.3717  0.3605
13486TIP3    H161873   0.002   0.592  12.649 -3.4179 -0.4765  0.8416
13486TIP3    H261874   0.003   0.696  12.759  1.0550 -0.1281  0.6669
13487TIP3   OH261875   2.278   5.621  14.520 -0.0711 -0.5037  0.2126
13487TIP3    H161876   2.281   5.574  14.437  1.1972 -1.1392  0.5977
13487TIP3    H261877   2.194   5.598  14.559 -0.8443  0.1012 -1.0511
13488TIP3   OH261878   0.124   5.419  12.555  0.0222  0.6598 -0.2816
13488TIP3    H161879   0.060   5.396  12.623  0.6635 -1.6864 -0.3892
13488TIP3    H261880   0.125   5.515  12.555 -2.1672  0.7594  0.9477
13489TIP3   OH261881   0.146   6.460  13.756  0.0450  0.4308 -0.0718
13489TIP3    H161882   0.208   6.470  13.683 -1.2176 -0.4003 -1.2902
13489TIP3    H261883   0.192   6.499  13.831  2.4306 -0.9517 -0.6969
13490TIP3   OH261884   1.240   1.807   4.151  0.3049  0.2879  0.5309
13490TIP3    H161885   1.164   1.836   4.101  0.5057 -0.2129 -0.0736
13490TIP3    H261886   1.234   1.711   4.151  1.2526  0.2143 -0.0441
13491TIP3   OH261887   3.240   2.581  11.343  0.1078  0.1222  0.2738
13491TIP3    H161888   3.280   2.579  11.256 -0.3220  0.4683  0.0640
13491TIP3    H261889   3.147   2.567  11.327 -0.0963  1.0625  0.5932
13492TIP3   OH261890   0.253   4.910  16.755  0.1148 -0.1430  0.5371
13492TIP3    H161891   0.187   4.869  16.812 -1.1681  0.5571 -0.3869
13492TIP3    H261892   0.244   4.865  16.671 -1.7898  2.3107 -0.7167
13493TIP3   OH261893   3.384   6.551   4.363 -0.6670 -0.2989  0.8503
13493TIP3    H161894   3.465   6.570   4.411  0.5002  2.7798 -1.8968
13493TIP3    H261895   3.414   6.520   4.277 -2.3559  1.0249 -0.2832
13494TIP3   OH261896   5.789   3.795  13.932 -0.0081 -0.5633 -0.0342
13494TIP3    H161897   5.834   3.740  13.868 -0.4313 -2.1414  0.9626
13494TIP3    H261898   5.815   3.759  14.016  1.0883  1.8972  0.7766
13495TIP3   OH261899   3.478   0.472  11.001 -0.3885 -0.4148 -0.8864
13495TIP3    H161900   3.507   0.562  11.015 -0.4612 -0.7143  1.6139
13495TIP3    H261901   3.394   0.480  10.956  0.0733  0.7152 -1.5865
13496TIP3   OH261902   0.586   0.347  13.971 -0.1766 -0.0625 -0.1125
13496TIP3    H161903   0.601   0.431  13.929 -1.5388  0.8790  1.1821
13496TIP3    H261904   0.509   0.311  13.927 -0.7332  0.2578  0.5852
13497TIP3   OH261905   1.366   1.653  13.847  0.3958 -0.1483 -0.0929
13497TIP3    H161906   1.312   1.599  13.904 -2.0321  1.0209 -1.1205
13497TIP3    H261907   1.417   1.708  13.907  1.1746 -1.8943  0.9163
13498TIP3   OH261908   1.653   6.512  13.411  0.7220 -0.1861 -0.3486
13498TIP3    H161909   1.701   6.591  13.386 -0.7793  0.6881 -0.5511
13498TIP3    H261910   1.696   6.442  13.361  1.3867  0.6684 -1.0070
13499TIP3   OH261911   3.759   1.414   1.264 -0.3903  0.3535  0.1007
13499TIP3    H161912   3.761   1.509   1.253  1.6369  0.3008 -0.3603
13499TIP3    H261913   3.815   1.381   1.194  3.2763 -0.8080  3.2280
13500TIP3   OH261914   0.935   6.221  14.828 -0.5569 -0.0647 -0.4705
13500TIP3    H161915   0.908   6.213  14.737 -1.0538 -3.0853 -0.1635
13500TIP3    H261916   1.026   6.191  14.829 -0.4785  0.1754 -0.0075
13501TIP3   OH261917   0.275   5.012   2.223 -0.6695 -0.1647  0.1349
13501TIP3    H161918   0.181   5.032   2.232 -0.6868 -0.4224  0.5367
13501TIP3    H261919   0.292   4.947   2.291  0.0568  0.7320  0.8321
13502TIP3   OH261920   5.376   2.857   3.103  0.5699 -0.0566 -0.0763
13502TIP3    H161921   5.388   2.882   3.011 -0.5467 -1.1729 -0.5461
13502TIP3    H261922   5.364   2.940   3.148  0.0314  0.4532 -1.1115
13503TIP3   OH261923   5.660   1.907   5.121 -0.3638  0.3360 -0.8335
13503TIP3    H161924   5.608   1.966   5.176 -1.1602 -0.8645 -0.2657
13503TIP3    H261925   5.751   1.926   5.144 -0.6905 -0.9888  1.8909
13504TIP3   OH261926   4.672   3.328  13.253  0.6055  0.2418 -0.1537
13504TIP3    H161927   4.624   3.391  13.201 -0.2031 -0.8331 -0.7590
13504TIP3    H261928   4.764   3.347  13.235  0.3853  1.5219  0.0421
13505TIP3   OH261929   6.492   2.616   1.559  0.1903  0.3402 -0.0506
13505TIP3    H161930   6.430   2.550   1.527 -0.8633 -0.1265  2.7158
13505TIP3    H261931   6.442   2.697   1.560  1.2021  1.0915 -2.5209
13506TIP3   OH261932   3.018   4.432  13.151 -0.3983 -0.6683  0.1158
13506TIP3    H161933   2.960   4.467  13.219 -1.6774 -0.4832 -1.0350
13506TIP3    H261934   3.100   4.480  13.164 -1.3314  1.0073  0.1294
13507TIP3   OH261935   1.442   5.459   1.018 -0.2064 -0.3594 -0.0893
13507TIP3    H161936   1.523   5.505   1.039 -0.7833  0.8968 -0.5485
13507TIP3    H261937   1.399   5.446   1.103 -0.7534  1.3448 -0.0673
13508TIP3   OH261938   4.585   1.579   5.573 -0.3750 -0.7978 -0.5988
13508TIP3    H161939   4.668   1.549   5.535  0.2043 -0.5598  0.4172
13508TIP3    H261940   4.578   1.671   5.545  1.4603  0.2717  1.9985
13509TIP3   OH261941   0.901   4.061   1.866  0.1847  0.0994 -0.7499
13509TIP3    H161942   0.813   4.032   1.844 -0.1090  0.6040 -0.2339
13509TIP3    H261943   0.938   3.988   1.916 -0.7892  0.8458  1.1325
13510TIP3   OH261944   3.354   2.748   0.448  0.0675 -0.8552 -0.8639
13510TIP3    H161945   3.381   2.840   0.455  1.1987 -1.2001 -0.5107
13510TIP3    H261946   3.283   2.739   0.511  0.3265 -0.3539 -0.4952
13511TIP3   OH261947   4.209   5.958   0.986  0.6422  0.1420  0.1033
13511TIP3    H161948   4.278   5.893   0.991  2.3879  1.8811 -0.2583
13511TIP3    H261949   4.176   5.952   0.896  0.2360 -0.7368  0.2987
13512TIP3   OH261950   0.046   2.363  15.313  0.0916  0.0780 -0.2898
13512TIP3    H161951   0.104   2.355  15.238 -0.6951 -0.4479 -0.8493
13512TIP3    H261952   0.078   2.440  15.359  2.6975 -1.4590  0.7078
13513TIP3   OH261953   2.759   3.819  13.869 -0.0080 -0.1198 -0.4503
13513TIP3    H161954   2.666   3.809  13.849  0.4870 -0.8306 -2.6863
13513TIP3    H261955   2.796   3.731  13.859  0.7353 -0.1120  1.6931
13514TIP3   OH261956   6.284   6.073   5.360 -0.5851  0.0494  0.1678
13514TIP3    H161957   6.203   6.087   5.409 -0.5148 -0.1755  0.3498
13514TIP3    H261958   6.324   5.996   5.401  0.8551  1.4748  1.5673
13515TIP3   OH261959   2.483   2.590  13.616  0.5037 -0.4624  0.4937
13515TIP3    H161960   2.460   2.511  13.665  1.7441 -1.8720 -1.0780
13515TIP3    H261961   2.560   2.625  13.661  1.0985 -1.2445  0.0961
13516TIP3   OH261962   6.705   2.424  14.378 -0.5652 -0.0081  0.9439
13516TIP3    H161963   6.619   2.416  14.420 -0.9785 -0.9780 -0.0490
13516TIP3    H261964   6.700   2.504  14.327 -0.9630 -0.1895  0.6966
13517TIP3   OH261965   4.390   4.781  14.519  0.5117 -0.2533  0.0567
13517TIP3    H161966   4.316   4.827  14.478  0.6391 -0.2890 -0.2207
13517TIP3    H261967   4.353   4.697  14.547  0.7513 -0.8728 -1.3555
13518TIP3   OH261968   3.130   6.340  16.452 -0.4225  0.4093 -1.0598
13518TIP3    H161969   3.087   6.357  16.535  0.3359  0.0129 -0.5691
13518TIP3    H261970   3.187   6.416  16.439 -0.0915  0.1897 -0.9105
13519TIP3   OH261971   1.515   2.193   4.517  0.1429  0.5929 -0.0136
13519TIP3    H161972   1.475   2.139   4.448 -1.6917  1.5845  0.2076
13519TIP3    H261973   1.548   2.270   4.471 -1.2273  1.3317  0.1894
13520TIP3   OH261974   4.195   5.466  16.940 -0.4586 -0.3772 -0.2394
13520TIP3    H161975   4.101   5.486  16.933 -0.5957 -0.5695  0.8241
13520TIP3    H261976   4.206   5.384  16.893 -0.6686  0.0654 -1.0748
13521TIP3   OH261977   3.482   5.245  15.752 -0.2437 -0.2479  0.6178
13521TIP3    H161978   3.555   5.307  15.743 -1.0812  0.8211  0.9914
13521TIP3    H261979   3.451   5.233  15.662  0.8563 -1.3116  0.3562
13522TIP3   OH261980   4.224   0.013  13.535  0.3640 -0.0023  0.0148
13522TIP3    H161981   4.215  -0.005  13.628 -0.3388 -0.9824 -0.2299
13522TIP3    H261982   4.171   0.091  13.520  1.4965  0.9221  0.6440
13523TIP3   OH261983   4.988   2.352  16.307  0.1551 -0.0496 -0.1344
13523TIP3    H161984   4.907   2.318  16.268 -0.8176 -1.2658  2.7112
13523TIP3    H261985   4.986   2.323  16.398  3.1261  1.1364  0.4464
13524TIP3   OH261986   1.080   2.874  14.226 -0.0238 -0.1485  0.6452
13524TIP3    H161987   1.160   2.912  14.189 -0.2069 -0.9028 -0.5986
13524TIP3    H261988   1.063   2.925  14.304  0.6919  1.1813 -0.0365
13525TIP3   OH261989   2.476   2.497   1.952 -0.2625  0.0729 -0.6267
13525TIP3    H161990   2.382   2.501   1.966 -0.0060  2.1023  0.9471
13525TIP3    H261991   2.504   2.418   1.999 -0.8160  1.1907  1.7097
13526TIP3   OH261992   4.325   5.981  11.460  0.1671  0.5775 -0.0846
13526TIP3    H161993   4.255   6.045  11.450 -1.6565 -1.1455  1.0111
13526TIP3    H261994   4.373   6.010  11.537  0.1274  1.2803 -0.3153
13527TIP3   OH261995   4.432   0.927   4.739 -0.1612 -0.0500  0.3138
13527TIP3    H161996   4.357   0.913   4.796  0.2943  0.4108  1.0500
13527TIP3    H261997   4.420   1.016   4.704 -0.4610 -0.3457 -0.3579
13528TIP3   OH261998   6.053   4.064  15.291  0.7897 -0.1016 -0.3675
13528TIP3    H161999   6.146   4.060  15.315  0.5992 -1.3961  0.2226
13528TIP3    H262000   6.028   3.973  15.276 -0.1346  0.3285 -1.5609
13529TIP3   OH262001   4.924   3.103   5.728  0.2651  0.0611  0.0986
13529TIP3    H162002   4.854   3.158   5.764  1.1829  0.9021  0.6525
13529TIP3    H262003   4.890   3.072   5.644 -0.3164  1.4234 -0.1911
13530TIP3   OH262004   3.725   0.418   4.646  0.0634 -0.5979  0.2626
13530TIP3    H162005   3.700   0.510   4.646  1.2607 -0.2547 -0.0672
13530TIP3    H262006   3.737   0.397   4.553  2.9724 -0.1384  0.4440
13531TIP3   OH262007   1.738   0.738  12.070 -0.1629 -0.2532  0.3544
13531TIP3    H162008   1.652   0.766  12.100 -0.0712 -1.3105  1.6737
13531TIP3    H262009   1.722   0.657  12.021  0.2358 -1.6229  2.3667
13532TIP3   OH262010   0.604   5.134  12.185  0.1341  0.2738  0.0531
13532TIP3    H162011   0.623   5.049  12.225 -2.5904  0.2074  1.4448
13532TIP3    H262012   0.622   5.121  12.092  0.6417 -1.5191  0.3539
13533TIP3   OH262013   2.833   5.244   4.480  0.1938  0.7373 -0.3418
13533TIP3    H162014   2.771   5.237   4.553  0.7209 -0.2018  0.0441
13533TIP3    H262015   2.883   5.323   4.499 -0.5748  1.2477 -0.4157
13534TIP3   OH262016   3.403   2.464   3.746  0.0499  0.6307 -0.1348
13534TIP3    H162017   3.391   2.408   3.669 -1.4007  3.7088 -2.3338
13534TIP3    H262018   3.347   2.423   3.813 -0.8009 -0.6659 -1.5533
13535TIP3   OH262019   6.122   5.594  15.020 -0.4264 -0.1788 -0.2212
13535TIP3    H162020   6.156   5.517  15.066 -1.2691 -0.0144  0.7073
13535TIP3    H262021   6.125   5.570  14.927 -0.7250 -1.3471  0.0632
13536TIP3   OH262022   5.410   2.438  11.868 -0.3117 -0.4282  1.1117
13536TIP3    H162023   5.356   2.380  11.813 -0.3623  0.4311  0.2295
13536TIP3    H262024   5.355   2.455  11.945 -0.8914 -0.3821  0.6965
13537TIP3   OH262025   1.683   5.102  16.772  0.0506  0.1458  0.8464
13537TIP3    H162026   1.630   5.022  16.769 -0.4228  0.4409  1.0308
13537TIP3    H262027   1.773   5.072  16.764 -0.2034 -0.2766 -0.7539
13538TIP3   OH262028   6.083   5.137   1.241  0.6664 -0.1730  0.1966
13538TIP3    H162029   6.055   5.051   1.276 -1.5944 -0.0104 -1.0312
13538TIP3    H262030   6.074   5.196   1.316 -1.1455 -0.4013  0.2112
13539TIP3   OH262031   0.861   1.345  13.599  0.1547 -0.0187  0.3694
13539TIP3    H162032   0.876   1.437  13.621 -0.4548 -0.1085  1.2236
13539TIP3    H262033   0.798   1.347  13.528 -1.0882  0.2042  1.4484
13540TIP3   OH262034   6.475   2.031   5.479 -0.1173  0.0946 -0.0279
13540TIP3    H162035   6.408   1.986   5.427  0.0475  0.3249 -0.4388
13540TIP3    H262036   6.554   2.028   5.425 -0.5353  2.4760 -0.8785
13541TIP3   OH262037   0.008   3.633   5.755 -0.8024 -0.1198  0.2179
13541TIP3    H162038  -0.044   3.578   5.696 -1.5016 -0.6093  1.2523
13541TIP3    H262039  -0.031   3.720   5.746 -1.9891 -0.5261  1.1451
13542TIP3   OH262040   2.740   3.066   3.239  0.0864 -0.4929  0.1999
13542TIP3    H162041   2.762   2.996   3.300 -0.8108 -1.8025 -0.9267
13542TIP3    H262042   2.705   3.136   3.294  0.4417 -1.1559  1.2896
13543TIP3   OH262043   2.960   1.733  10.616 -0.1062  0.5160 -0.3151
13543TIP3    H162044   3.003   1.784  10.548 -1.1771 -0.4190 -1.7699
13543TIP3    H262045   2.887   1.788  10.644  1.5434  1.8248  1.6944
13544TIP3   OH262046   6.562   3.653  14.408  0.1111 -0.8682  0.8289
13544TIP3    H162047   6.582   3.606  14.489 -1.6108 -0.7321  1.3633
13544TIP3    H262048   6.545   3.583  14.344 -1.2199 -1.0189  1.3094
13545TIP3   OH262049   0.691   1.668   2.130 -0.1918  0.0118 -0.2768
13545TIP3    H162050   0.785   1.680   2.116  0.3657 -0.9635  2.1269
13545TIP3    H262051   0.665   1.603   2.066  1.3646 -1.6170  0.6573
13546TIP3   OH262052   4.266   5.150   6.822 -0.1325  0.1657 -0.4503
13546TIP3    H162053   4.190   5.156   6.765  0.6393 -0.6427 -1.6113
13546TIP3    H262054   4.319   5.227   6.800 -1.4499  1.8266  1.7339
13547TIP3   OH262055   6.336   1.033  13.218  0.8135 -0.1865 -0.2790
13547TIP3    H162056   6.260   1.074  13.260  1.1399 -0.3643  0.4875
13547TIP3    H262057   6.298   0.977  13.150  0.3031  0.3776 -0.4708
13548TIP3   OH262058   0.379   4.779  13.120 -0.0077  0.2665 -0.3937
13548TIP3    H162059   0.295   4.820  13.139 -0.2219 -0.0880 -0.5763
13548TIP3    H262060   0.435   4.850  13.090 -0.4974  0.3545 -1.1044
13549TIP3   OH262061   0.366   3.247   4.497 -0.0280  0.6643  0.1158
13549TIP3    H162062   0.456   3.235   4.528 -0.4976 -0.5321  1.0689
13549TIP3    H262063   0.323   3.163   4.512 -0.4271  0.0525 -3.5162
13550TIP3   OH262064   1.877   4.006   1.963 -0.2746 -0.0642  0.0698
13550TIP3    H162065   1.913   3.957   2.037  0.2753  0.2761  0.0330
13550TIP3    H262066   1.896   4.097   1.984  0.2658  0.0012 -0.6937
13551TIP3   OH262067   5.349   3.500  13.325 -0.3906 -0.1050  0.4312
13551TIP3    H162068   5.356   3.526  13.233 -3.5170  2.6816  0.7587
13551TIP3    H262069   5.434   3.461  13.346  1.3247  1.3410 -2.9744
13552TIP3   OH262070   4.757   3.604   1.102  0.1519 -0.9023  0.3158
13552TIP3    H162071   4.780   3.597   1.009 -0.3611 -0.8102  0.1767
13552TIP3    H262072   4.715   3.520   1.122  0.1825 -0.8874  0.4425
13553TIP3   OH262073   6.558   3.566   0.826 -0.1517  0.0765  0.0483
13553TIP3    H162074   6.472   3.555   0.785  1.3285 -1.2627 -3.1144
13553TIP3    H262075   6.573   3.660   0.826 -1.0195  0.2341 -0.8583
13554TIP3   OH262076   2.609   4.713  14.016  0.0980  0.6592 -0.0489
13554TIP3    H162077   2.606   4.807  13.999 -1.8821  0.6449 -0.0303
13554TIP3    H262078   2.526   4.694  14.060 -0.2496 -1.3535 -1.4255
13555TIP3   OH262079   2.240   2.497  16.350 -0.0104  0.0003 -0.1781
13555TIP3    H162080   2.194   2.448  16.418  0.3259 -0.6180 -0.3921
13555TIP3    H262081   2.296   2.557  16.399 -0.0214 -0.2033  0.0917
13556TIP3   OH262082   5.361   6.346  15.113  0.2023 -0.4284 -0.2284
13556TIP3    H162083   5.322   6.338  15.200  0.3750 -2.0950 -0.2782
13556TIP3    H262084   5.381   6.439  15.104  0.2739 -0.2458  1.5468
13557TIP3   OH262085   3.439   1.321   1.632 -0.6497 -0.1571  0.4566
13557TIP3    H162086   3.343   1.326   1.640 -0.8795 -3.4374  1.0509
13557TIP3    H262087   3.458   1.361   1.547 -2.4299  1.0901  0.5752
13558TIP3   OH262088   1.433   5.124  11.266  0.3025 -0.0420  0.7803
13558TIP3    H162089   1.370   5.072  11.316 -0.0516  0.0705  0.4549
13558TIP3    H262090   1.379   5.187  11.218  0.8397  2.2552  2.9972
13559TIP3   OH262091   3.825   2.518   5.744 -0.1607  0.0892  0.0537
13559TIP3    H162092   3.782   2.598   5.713 -1.5302 -0.1278  1.2954
13559TIP3    H262093   3.847   2.470   5.664 -1.3821  0.6707 -0.6588
13560TIP3   OH262094   5.158   3.188  11.703 -0.5199  0.1133  0.4563
13560TIP3    H162095   5.209   3.158  11.628 -1.5465  0.2462 -0.3170
13560TIP3    H262096   5.223   3.225  11.763  0.3198  0.0005 -0.3630
13561TIP3   OH262097   1.341   2.208  15.915  0.0269 -0.7853 -0.3960
13561TIP3    H162098   1.294   2.148  15.973 -0.3448 -1.3516 -1.2603
13561TIP3    H262099   1.288   2.211  15.836  0.3324  0.2670 -0.5820
13562TIP3   OH262100   1.459   2.992  11.877  0.5853 -0.0533 -0.0877
13562TIP3    H162101   1.505   2.908  11.876 -0.0462 -0.4158  0.7417
13562TIP3    H262102   1.529   3.058  11.878  1.0789 -0.5714 -0.2609
13563TIP3   OH262103   2.911   5.301  16.927 -0.2824 -0.1354 -0.1999
13563TIP3    H162104   2.876   5.304  16.838 -0.9536 -0.4235  0.0381
13563TIP3    H262105   2.914   5.207  16.948 -1.4687 -0.0368  0.5628
13564TIP3   OH262106   0.756   2.589  15.247 -0.4770 -0.0724 -0.6681
13564TIP3    H162107   0.662   2.585  15.231 -0.8883 -2.9556  1.7059
13564TIP3    H262108   0.764   2.637  15.330 -0.0520 -1.3538  0.0556
13565TIP3   OH262109   3.531   5.788  11.508  0.4836 -0.1576  0.2070
13565TIP3    H162110   3.509   5.835  11.428  2.4856 -0.5223 -0.5983
13565TIP3    H262111   3.447   5.754  11.539 -0.4396  0.6145 -1.3063
13566TIP3   OH262112   5.863   5.142   3.903  0.1391 -0.5309  0.5163
13566TIP3    H162113   5.897   5.156   3.991  4.1853  0.9345 -1.0452
13566TIP3    H262114   5.858   5.230   3.865 -1.0207 -1.1667 -0.9215
13567TIP3   OH262115   0.374   6.575  13.845  0.0985  0.4509  0.5238
13567TIP3    H162116   0.465   6.545  13.844  0.3630  1.1905  1.3905
13567TIP3    H262117   0.350   6.576  13.937 -0.9062 -0.0587  0.2761
13568TIP3   OH262118   3.843   0.191  14.767 -0.0323  0.3739 -0.1466
13568TIP3    H162119   3.926   0.163  14.805 -0.3767  1.2854  1.3822
13568TIP3    H262120   3.841   0.286  14.781 -2.1133  0.1639  1.6051
13569TIP3   OH262121   6.301   5.057   1.111 -0.3391 -0.0466 -0.2059
13569TIP3    H162122   6.257   4.995   1.052 -0.6147 -1.0925  1.0518
13569TIP3    H262123   6.230   5.111   1.146 -0.5539 -1.1179  1.1007
13570TIP3   OH262124   1.047   1.566   4.821 -0.5956 -0.1287 -0.2413
13570TIP3    H162125   1.064   1.642   4.765 -1.4937 -0.5553 -1.1251
13570TIP3    H262126   0.982   1.597   4.884 -0.1456  0.1318  0.1085
13571TIP3   OH262127   6.322   6.185   2.200  0.5651 -0.0975  0.1837
13571TIP3    H162128   6.274   6.107   2.175  2.6366 -1.1672 -0.6992
13571TIP3    H262129   6.340   6.174   2.293  0.9100 -0.7173  0.0461
13572TIP3   OH262130   6.602   5.224  16.942  0.0911  0.4383 -0.0579
13572TIP3    H162131   6.511   5.253  16.947 -0.3541 -1.0011  0.7711
13572TIP3    H262132   6.615   5.176  17.023  1.8308  1.2307  0.1698
13573TIP3   OH262133   6.367   0.436  17.078 -0.0839 -0.4649  0.6174
13573TIP3    H162134   6.337   0.349  17.105 -0.0119 -0.2132  1.5428
13573TIP3    H262135   6.287   0.489  17.073 -0.2191 -0.7356 -0.6348
13574TIP3   OH262136   5.533   4.129  16.685 -0.3043  0.1928  0.3326
13574TIP3    H162137   5.615   4.143  16.637  0.8755 -0.4301  2.0705
13574TIP3    H262138   5.534   4.196  16.754 -1.1298 -0.0048  0.5455
13575TIP3   OH262139   2.802   0.773   5.325 -0.3691 -0.2886 -0.2146
13575TIP3    H162140   2.771   0.746   5.238 -0.2197 -0.7522 -0.1259
13575TIP3    H262141   2.824   0.866   5.314  1.6440 -0.8156 -1.2639
13576TIP3   OH262142   6.355   1.073   0.103  0.7458 -0.1626  0.2366
13576TIP3    H162143   6.261   1.084   0.093  0.4213 -1.0239  1.9907
13576TIP3    H262144   6.392   1.160   0.089 -0.2515  0.0987 -0.8815
13577TIP3   OH262145   1.638   2.873   4.660  0.3241 -0.3824 -0.2514
13577TIP3    H162146   1.584   2.800   4.689 -2.4081  1.2198 -0.8777
13577TIP3    H262147   1.683   2.903   4.739 -1.8482 -0.1541  0.9964
13578TIP3   OH262148   3.161   3.709   3.691  0.5057  0.0908  0.1076
13578TIP3    H162149   3.091   3.659   3.733  1.0704 -0.2968  0.6227
13578TIP3    H262150   3.171   3.787   3.745 -1.9643  2.0421 -1.9988
13579TIP3   OH262151   4.589   5.284  16.524  0.1598  0.2282  0.5193
13579TIP3    H162152   4.662   5.232  16.559  0.5504  0.4681  0.0605
13579TIP3    H262153   4.590   5.364  16.576  0.1495  0.1842  0.5888
13580TIP3   OH262154   3.381   4.625  17.026 -0.0023 -0.1245  0.4097
13580TIP3    H162155   3.302   4.574  17.046  0.7046 -0.8133  1.6073
13580TIP3    H262156   3.428   4.573  16.961 -0.6569  0.4208 -0.5081
13581TIP3   OH262157   5.846   6.688  17.217 -0.5380  0.5618  0.4551
13581TIP3    H162158   5.891   6.772  17.217  1.0506 -0.2158 -1.4274
13581TIP3    H262159   5.885   6.639  17.144 -2.6006 -1.1794  0.3985
13582TIP3   OH262160   3.452   3.277  12.217 -0.3993  0.0865 -0.1356
13582TIP3    H162161   3.427   3.244  12.131 -0.2599 -0.4182  0.0144
13582TIP3    H262162   3.493   3.362  12.200 -0.8466  0.2271 -0.5185
13583TIP3   OH262163   2.951   0.485  11.989 -0.8051 -0.9256  0.6984
13583TIP3    H162164   2.977   0.462  11.899 -0.1334 -0.1466  0.6846
13583TIP3    H262165   2.865   0.526  11.979 -0.9026 -1.1870  0.4538
13584TIP3   OH262166   3.141   0.177   6.198  0.3984 -0.0887  0.0249
13584TIP3    H162167   3.089   0.112   6.245  0.4075 -0.2804 -0.2337
13584TIP3    H262168   3.227   0.174   6.240  0.6545 -0.8439 -0.5439
13585TIP3   OH262169   5.702   2.381   4.469  0.3181  0.2965  0.3478
13585TIP3    H162170   5.794   2.407   4.474  0.4697 -0.4587  3.0801
13585TIP3    H262171   5.703   2.297   4.422  0.4380  2.1939 -3.4131
13586TIP3   OH262172   4.595   2.466  14.346  0.4228  0.0779 -0.5589
13586TIP3    H162173   4.534   2.520  14.398  1.9012  0.1909  1.1678
13586TIP3    H262174   4.549   2.383  14.334 -0.6059  0.6203 -0.4577
13587TIP3   OH262175   3.015   3.574   1.132 -0.1369  0.1601  0.2883
13587TIP3    H162176   2.963   3.515   1.187  0.0456  0.2280  0.5297
13587TIP3    H262177   2.999   3.542   1.043  0.9158 -1.0356  0.4934
13588TIP3   OH262178   4.488   0.501  12.418  0.4881  0.3651 -0.0434
13588TIP3    H162179   4.487   0.586  12.461  0.7397  0.3733 -0.0490
13588TIP3    H262180   4.537   0.516  12.337 -2.0318  0.9299 -1.5792
13589TIP3   OH262181   3.703   6.251   1.410  0.3194 -0.4399 -0.1873
13589TIP3    H162182   3.733   6.264   1.500  2.7424  0.2052 -1.0067
13589TIP3    H262183   3.705   6.157   1.398  0.3969 -0.5055  0.2993
13590TIP3   OH262184   0.598   4.891   2.932 -0.3014  0.1756 -0.3414
13590TIP3    H162185   0.538   4.828   2.893  0.8221 -0.6773 -0.7468
13590TIP3    H262186   0.592   4.968   2.875 -2.0957  0.6860  0.4737
13591TIP3   OH262187   4.225   3.458  15.372 -0.1554  0.6110  0.1765
13591TIP3    H162188   4.187   3.460  15.284  0.3795 -1.2487 -0.1223
13591TIP3    H262189   4.319   3.465  15.357 -0.1239  1.4233  0.6898
13592TIP3   OH262190   3.698   3.141  14.083  0.5077  0.3759 -0.1825
13592TIP3    H162191   3.679   3.142  13.989  3.3460  0.3874 -0.8451
13592TIP3    H262192   3.676   3.229  14.113  5.2882  2.6499 -2.3104
13593TIP3   OH262193   1.516   3.354   3.113 -0.4211 -0.4162  0.1154
13593TIP3    H162194   1.547   3.306   3.190 -0.9047  1.0164  1.2591
13593TIP3    H262195   1.423   3.371   3.131 -0.7098 -0.5979 -1.0875
13594TIP3   OH262196   6.421   0.883  14.108  0.3026 -0.8221  0.1453
13594TIP3    H162197   6.330   0.893  14.083  0.5784 -1.6911 -1.3175
13594TIP3    H262198   6.442   0.962  14.157 -1.2897 -0.7287  0.7310
13595TIP3   OH262199   0.487   5.433  14.495  0.9129  0.4306  0.1703
13595TIP3    H162200   0.463   5.525  14.500 -1.6710 -0.0087 -1.9126
13595TIP3    H262201   0.528   5.423  14.409  1.0718 -0.3848  0.3347
13596TIP3   OH262202   3.453   5.464   3.825  0.1329  0.1415 -0.2786
13596TIP3    H162203   3.392   5.520   3.776  0.4466  0.6385 -0.1134
13596TIP3    H262204   3.399   5.422   3.891 -0.5632 -1.5542 -1.8238
13597TIP3   OH262205   1.106   5.735   5.768  0.0213  0.3019  0.1774
13597TIP3    H162206   1.196   5.746   5.799 -0.6864  2.7801  1.6777
13597TIP3    H262207   1.097   5.799   5.698 -0.7943  0.7380  0.6593
13598TIP3   OH262208   2.776   4.256  12.130  0.4773  0.0452  0.2996
13598TIP3    H162209   2.790   4.200  12.206 -0.7687 -1.6560 -0.6492
13598TIP3    H262210   2.689   4.232  12.097  0.0979  2.1862 -0.4929
13599TIP3   OH262211   4.536   0.920  11.787 -0.1565 -0.3205 -0.2781
13599TIP3    H162212   4.467   0.964  11.837 -1.6824 -0.9665 -1.7077
13599TIP3    H262213   4.504   0.830  11.777 -0.2343 -0.0592 -2.9101
13600TIP3   OH262214   3.253   1.187  14.759  0.3951 -0.7825  0.3469
13600TIP3    H162215   3.318   1.193  14.689  1.7721 -2.3108  1.4393
13600TIP3    H262216   3.236   1.093  14.768 -0.2587 -0.5558  1.6144
13601TIP3   OH262217   4.828   6.428   2.573  0.2108 -0.3814 -0.4132
13601TIP3    H162218   4.912   6.473   2.564  2.3630 -4.1209 -1.1657
13601TIP3    H262219   4.806   6.437   2.666  1.4647  0.6215 -0.1894
13602TIP3   OH262220   3.081   2.069  12.280 -0.8560 -0.1583  0.5096
13602TIP3    H162221   3.147   2.025  12.226 -0.7268  0.3448  0.2576
13602TIP3    H262222   3.088   2.027  12.365 -0.7926 -0.6925  0.2459
13603TIP3   OH262223   4.918   2.368  15.751  0.3109 -0.0801 -0.1673
13603TIP3    H162224   4.895   2.282  15.714 -1.0401  0.2929 -0.2579
13603TIP3    H262225   4.836   2.418  15.746  0.3979  0.3983  2.1782
13604TIP3   OH262226   4.419   3.951   0.004 -0.2624  0.7222  0.4748
13604TIP3    H162227   4.407   4.014   0.076 -0.1076  0.8771  0.3641
13604TIP3    H262228   4.339   3.960  -0.048  0.2494  1.6533 -0.1856
13605TIP3   OH262229   3.608   0.076   3.093  0.3130 -0.4248 -0.6050
13605TIP3    H162230   3.558   0.018   3.151  0.0668  1.0394  0.6984
13605TIP3    H262231   3.547   0.147   3.072  1.2333  0.3718 -0.6007
13606TIP3   OH262232   2.250   5.373  13.384 -0.0078  0.3813 -0.1558
13606TIP3    H162233   2.215   5.285  13.394 -0.8690  0.7895  0.4822
13606TIP3    H262234   2.180   5.423  13.343 -0.3990  1.3262  1.5777
13607TIP3   OH262235   5.293   6.305   2.827  0.0080  0.3359  0.0029
13607TIP3    H162236   5.276   6.300   2.921  1.1031  1.0677  0.2531
13607TIP3    H262237   5.370   6.251   2.813 -0.3828 -0.0944 -0.5489
13608TIP3   OH262238   3.716   0.296   1.970 -0.1345  0.5769  0.6695
13608TIP3    H162239   3.792   0.352   1.985  0.6757 -0.2254 -0.3389
13608TIP3    H262240   3.670   0.339   1.898  1.9655 -1.4083 -2.0295
13609TIP3   OH262241   1.668   4.107  13.226 -0.0880 -0.2252  0.0768
13609TIP3    H162242   1.693   4.104  13.133 -2.1198 -0.4688 -0.5293
13609TIP3    H262243   1.682   4.198  13.252  1.0951 -0.2904 -0.2653
13610TIP3   OH262244   0.724   0.558   5.023 -0.4511  0.3749  0.1225
13610TIP3    H162245   0.759   0.595   4.941 -0.3707  0.0258 -0.0065
13610TIP3    H262246   0.766   0.609   5.092  1.0182 -0.5915 -0.0052
13611TIP3   OH262247   4.392   2.116  12.717 -0.5199 -0.8625 -0.1872
13611TIP3    H162248   4.367   2.136  12.807 -1.4149  0.7587 -0.7666
13611TIP3    H262249   4.486   2.131  12.714 -0.8594  1.6467 -0.1170
13612TIP3   OH262250   5.927   5.530  14.383  0.3562  0.1434 -0.5832
13612TIP3    H162251   5.992   5.496  14.444  0.8625 -0.5235 -1.4568
13612TIP3    H262252   5.843   5.513  14.425  0.7308  0.9413  0.5256
13613TIP3   OH262253   4.534   0.652   1.147 -0.3948 -0.2950 -0.0370
13613TIP3    H162254   4.442   0.662   1.171 -0.8384 -1.1959 -1.2439
13613TIP3    H262255   4.573   0.602   1.219 -1.5530 -2.4395 -0.7900
13614TIP3   OH262256   1.359   6.763  17.034  0.2601 -0.3319 -0.0558
13614TIP3    H162257   1.329   6.721  17.115 -0.5457  1.2520  0.5037
13614TIP3    H262258   1.280   6.768  16.980  1.0287 -2.5035 -1.5153
13615TIP3   OH262259   4.221   1.926  13.897  0.4573  0.3990 -0.6088
13615TIP3    H162260   4.128   1.950  13.901  0.1461 -0.6439 -1.2358
13615TIP3    H262261   4.262   1.979  13.965 -0.6820  0.4894  0.0413
13616TIP3   OH262262   0.109   1.698  15.985 -0.0192  0.3547 -0.2677
13616TIP3    H162263   0.100   1.609  15.952 -0.4862  0.4335 -0.3637
13616TIP3    H262264   0.201   1.706  16.010 -0.2062 -0.5094  0.7585
13617TIP3   OH262265   3.135   4.144  11.397  0.7707  0.6178 -0.4983
13617TIP3    H162266   3.061   4.111  11.346  1.2054  0.3596 -0.9709
13617TIP3    H262267   3.188   4.066  11.416 -0.9081  0.0959  3.0159
13618TIP3   OH262268   0.604   3.476  16.562  0.3103  0.4262 -0.3234
13618TIP3    H162269   0.549   3.527  16.621  1.4057  1.5355 -0.2184
13618TIP3    H262270   0.574   3.386  16.572 -0.2723  0.7553  1.0805
13619TIP3   OH262271   0.705   2.052   4.038  0.0462  0.5939 -0.4768
13619TIP3    H162272   0.743   2.113   3.975  1.6979  1.4719  1.2634
13619TIP3    H262273   0.611   2.054   4.019  0.4780  0.7219 -2.9368
13620TIP3   OH262274   4.825   3.028   3.126 -0.0362  0.5194 -0.0791
13620TIP3    H162275   4.883   2.954   3.147  0.9217  1.9115  2.7574
13620TIP3    H262276   4.739   2.988   3.113  1.0979 -1.4055 -2.3627
13621TIP3   OH262277   5.909   5.413   0.389 -0.8291  0.2212  0.5130
13621TIP3    H162278   5.981   5.390   0.448  1.7476  0.5110 -2.2792
13621TIP3    H262279   5.865   5.486   0.433  0.6186  0.0942  2.3219
13622TIP3   OH262280   3.320   2.171  13.756  0.0492 -0.1854  0.5334
13622TIP3    H162281   3.406   2.138  13.732 -1.3691 -2.5880 -1.6981
13622TIP3    H262282   3.278   2.194  13.673 -1.1925  1.7853  1.6200
13623TIP3   OH262283   0.775   3.536  13.396  0.1527 -0.3281  0.2181
13623TIP3    H162284   0.837   3.608  13.406 -0.0512 -0.1869  0.4854
13623TIP3    H262285   0.691   3.579  13.379 -0.0991 -0.4720  1.0471
13624TIP3   OH262286   0.901   3.117  12.776 -0.2548  0.2899  0.2187
13624TIP3    H162287   0.818   3.072  12.789 -0.4159 -0.0601 -1.6725
13624TIP3    H262288   0.903   3.136  12.682  0.3658  3.1398  0.7013
13625TIP3   OH262289   6.016   3.788  11.195 -0.9578  0.5286 -0.2248
13625TIP3    H162290   6.038   3.873  11.232 -0.4213  0.3017 -0.0156
13625TIP3    H262291   5.950   3.753  11.255 -1.0609  0.7273 -0.2218
13626TIP3   OH262292   6.717   2.973  11.910 -0.0185  0.3742  0.0185
13626TIP3    H162293   6.661   2.939  11.840 -0.8416  1.1480  0.2837
13626TIP3    H262294   6.762   3.047  11.870  0.5689 -0.0371 -0.0924
13627TIP3   OH262295   2.041   1.741   0.882 -0.2302 -0.0155 -0.7437
13627TIP3    H162296   2.001   1.685   0.949  0.0700  0.5277 -0.0987
13627TIP3    H262297   2.111   1.688   0.845 -0.7545 -0.5259 -1.0286
13628TIP3   OH262298   5.065   3.701   4.507  0.0390  0.5942  0.6575
13628TIP3    H162299   5.032   3.738   4.589 -0.2038 -0.1311  0.8927
13628TIP3    H262300   5.160   3.706   4.515  0.0425  2.5407  0.0472
13629TIP3   OH262301   6.585   3.271   5.504 -0.3671 -0.1046 -0.6100
13629TIP3    H162302   6.492   3.248   5.501  0.1852 -2.6985 -0.7440
13629TIP3    H262303   6.600   3.320   5.423 -1.6163  0.4545 -0.5297
13630TIP3   OH262304   5.200   4.184  11.700 -0.2760 -0.2106 -0.0086
13630TIP3    H162305   5.271   4.130  11.665 -0.8152 -1.0404  0.1299
13630TIP3    H262306   5.152   4.125  11.758 -1.8306 -0.0643 -1.0689
13631TIP3   OH262307   6.720   5.015  16.545 -0.1790 -0.0177  0.5260
13631TIP3    H162308   6.638   5.040  16.587  0.7723  2.7139  0.9781
13631TIP3    H262309   6.737   4.926  16.575 -1.3011  0.5583  3.1023
13632TIP3   OH262310   5.288   0.264  12.831  0.2470 -0.4272 -0.5967
13632TIP3    H162311   5.222   0.319  12.874  0.6218  0.4558 -1.1028
13632TIP3    H262312   5.239   0.217  12.764  0.0952  0.1380 -0.8954
13633TIP3   OH262313   2.982   5.203   4.805  0.1473  0.3066  0.0309
13633TIP3    H162314   3.055   5.264   4.797 -0.2569  0.6626 -1.2594
13633TIP3    H262315   2.929   5.238   4.876  1.0270  0.2464  0.7331
13634TIP3   OH262316   4.882   0.391  15.993 -0.0655 -0.4218  0.6206
13634TIP3    H162317   4.943   0.319  15.977  0.3883 -0.2610  1.5843
13634TIP3    H262318   4.937   0.467  16.008 -0.5429  0.5116 -1.8680
13635TIP3   OH262319   5.218   5.520   3.189  0.5386 -0.1229 -0.2212
13635TIP3    H162320   5.215   5.512   3.094  1.3286  1.3356 -0.4094
13635TIP3    H262321   5.306   5.552   3.207 -0.1261  1.2192  0.8370
13636TIP3   OH262322   1.477   2.308   1.358 -0.6635  0.0410  0.0364
13636TIP3    H162323   1.495   2.387   1.307  2.0045  0.2577  1.1590
13636TIP3    H262324   1.501   2.236   1.300 -4.5258 -0.1859 -1.5616
13637TIP3   OH262325   0.795   3.705  12.692  0.1993  0.5065  0.2185
13637TIP3    H162326   0.848   3.713  12.771 -1.1289  0.6529  1.1414
13637TIP3    H262327   0.804   3.790  12.649  0.5704  0.5936  0.4623
13638TIP3   OH262328   4.701   4.725  11.069 -0.2887  0.5406 -0.5171
13638TIP3    H162329   4.772   4.694  11.013 -0.2957  2.9962 -2.0039
13638TIP3    H262330   4.622   4.715  11.016 -0.5764  1.0686 -0.1938
13639TIP3   OH262331   1.662   1.502   1.125 -0.1456  0.8510  0.7243
13639TIP3    H162332   1.713   1.528   1.048 -2.0208  2.6964  0.0367
13639TIP3    H262333   1.726   1.458   1.182  1.2283 -1.0272 -2.0193
13640TIP3   OH262334   4.866   5.027  11.487  0.5540 -0.2629 -0.3681
13640TIP3    H162335   4.913   5.102  11.452  2.4182 -1.4418 -0.5715
13640TIP3    H262336   4.873   4.960  11.419  0.1745 -1.0618  0.3516
13641TIP3   OH262337   6.769   1.740   3.481  0.3076  0.8211 -0.0761
13641TIP3    H162338   6.816   1.820   3.506  1.5840  0.4214 -1.1509
13641TIP3    H262339   6.818   1.669   3.521  0.0091  0.4616 -0.3407
13642TIP3   OH262340   4.548   3.787  12.109 -0.0902 -0.7350 -0.0111
13642TIP3    H162341   4.592   3.785  12.194 -2.2499 -0.9558  1.1551
13642TIP3    H262342   4.533   3.695  12.087 -0.6176 -0.6424 -0.0405
13643TIP3   OH262343   0.626   4.145  13.138  0.4123 -0.4895 -0.5744
13643TIP3    H162344   0.557   4.115  13.078  0.4891 -1.4652 -0.1993
13643TIP3    H262345   0.682   4.068  13.149  0.2301 -0.4248  0.9762
13644TIP3   OH262346   1.217   2.732   6.065 -1.2678  0.4653  0.1581
13644TIP3    H162347   1.258   2.780   6.137  0.3074 -0.1185 -0.3085
13644TIP3    H262348   1.280   2.663   6.043 -2.5214 -0.4899 -0.5959
13645TIP3   OH262349   4.059   0.246  12.798  0.0141  0.2295 -0.2018
13645TIP3    H162350   4.097   0.301  12.866  0.4335 -0.1850 -0.0935
13645TIP3    H262351   3.992   0.301  12.757 -1.6708 -0.1691  1.8579
13646TIP3   OH262352   0.133   6.401   0.945 -0.3828  0.4675 -0.2757
13646TIP3    H162353   0.107   6.386   1.036  0.5305 -0.2283 -0.1216
13646TIP3    H262354   0.135   6.314   0.906 -1.0367  0.7875 -1.0470
13647TIP3   OH262355   3.571   1.756  14.753  0.5423 -0.4061  0.2271
13647TIP3    H162356   3.602   1.746  14.663  1.2563  1.3102  0.2422
13647TIP3    H262357   3.627   1.824  14.790  1.9256 -2.7779  2.8023
13648TIP3   OH262358   0.993   1.608   2.231 -0.6508  0.0072  0.0898
13648TIP3    H162359   0.984   1.621   2.325 -2.0068  2.2969 -0.2927
13648TIP3    H262360   1.055   1.674   2.203 -0.7793 -0.2010 -0.7172
13649TIP3   OH262361   3.625   4.795   2.708 -0.0078 -0.2335 -0.4409
13649TIP3    H162362   3.641   4.847   2.630  2.0998 -0.4469 -0.2109
13649TIP3    H262363   3.531   4.777   2.706 -0.4112  1.7275 -1.6586
13650TIP3   OH262364   0.038   3.876  14.227 -0.0440  0.2283 -0.1986
13650TIP3    H162365   0.030   3.876  14.323  0.9562 -0.6362 -0.0989
13650TIP3    H262366  -0.011   3.798  14.200  0.1267  0.1752 -0.3512
13651TIP3   OH262367   6.050   6.006   0.170  0.4007 -0.3835 -0.0634
13651TIP3    H162368   6.086   6.092   0.148  0.7777 -0.1898  1.1937
13651TIP3    H262369   6.099   5.979   0.248 -2.5019  0.1689  2.1330
13652TIP3   OH262370   5.163   0.652   2.213 -0.5007  0.3981 -0.1401
13652TIP3    H162371   5.228   0.722   2.202 -0.1969 -0.0139 -1.0548
13652TIP3    H262372   5.180   0.617   2.300 -0.8812  1.6834  0.4824
13653TIP3   OH262373   1.498   1.081  13.698 -0.5034 -0.3335  0.6971
13653TIP3    H162374   1.426   1.064  13.637 -0.1928 -1.1324  0.5388
13653TIP3    H262375   1.496   1.176  13.711 -1.1954 -0.2684  0.2176
13654TIP3   OH262376   4.549   1.809   3.091  0.0751  0.5268  0.0964
13654TIP3    H162377   4.489   1.882   3.076  0.6575  1.2420  1.1469
13654TIP3    H262378   4.511   1.737   3.041 -1.6857  0.9462  0.7386
13655TIP3   OH262379   3.935   6.151  10.450 -0.3501 -0.4188 -0.1776
13655TIP3    H162380   3.858   6.094  10.455 -1.6912  1.2265 -0.8697
13655TIP3    H262381   4.006   6.094  10.420 -1.1363 -2.1056  1.0384
13656TIP3   OH262382   4.818   6.751  11.757 -0.0234 -0.0348 -0.1794
13656TIP3    H162383   4.817   6.691  11.831 -0.6553  1.5284  1.1458
13656TIP3    H262384   4.887   6.717  11.700  1.6624 -0.3783  1.9243
13657TIP3   OH262385   5.137   0.119  13.064 -0.1055  0.4061  0.0503
13657TIP3    H162386   5.187   0.198  13.085  1.2515 -0.5990  0.7572
13657TIP3    H262387   5.128   0.073  13.148  0.2845 -0.8268 -0.5506
13658TIP3   OH262388   2.631   3.933  11.121 -0.3279 -0.2792  0.4794
13658TIP3    H162389   2.615   4.013  11.070 -0.4024 -0.1453  0.7107
13658TIP3    H262390   2.628   3.962  11.212 -0.8207 -0.6290  0.5769
13659TIP3   OH262391   4.264   2.399   5.347  0.4051 -0.1778  0.5366
13659TIP3    H162392   4.311   2.413   5.265 -0.9169  0.8826 -0.0743
13659TIP3    H262393   4.216   2.317   5.333 -1.5466  1.0923 -0.6436
13660TIP3   OH262394   0.026   5.836  11.633  0.0208  0.4785 -0.0681
13660TIP3    H162395   0.067   5.786  11.703 -1.2157  1.5575  1.5171
13660TIP3    H262396  -0.026   5.772  11.585 -0.5268 -0.0035  1.1268
13661TIP3   OH262397   4.647   6.362  15.498 -0.4858 -0.0242  0.2436
13661TIP3    H162398   4.574   6.378  15.557 -0.0813  2.7763  0.1311
13661TIP3    H262399   4.611   6.379  15.411 -0.1078 -0.2663  0.0373
13662TIP3   OH262400   3.408   0.758  16.760  0.0136  0.6972  0.0354
13662TIP3    H162401   3.490   0.724  16.794 -0.0880  1.2270  0.8293
13662TIP3    H262402   3.343   0.733  16.826 -0.0835  2.2991  0.5759
13663TIP3   OH262403   5.502   0.164  11.355 -0.0827  0.2370 -0.2131
13663TIP3    H162404   5.495   0.256  11.380 -0.1137 -0.0348  0.8062
13663TIP3    H262405   5.571   0.129  11.412  0.4107 -0.2172 -1.0604
13664TIP3   OH262406   5.516   4.080  11.562 -0.1264 -0.5652  0.1854
13664TIP3    H162407   5.565   4.045  11.487  0.0990  2.4280 -1.2466
13664TIP3    H262408   5.583   4.118  11.618 -0.4592  4.0695 -2.0629
13665TIP3   OH262409   4.873   2.340  15.355 -0.1301 -0.2855  0.1305
13665TIP3    H162410   4.824   2.339  15.438 -2.6615 -0.5496 -1.2517
13665TIP3    H262411   4.888   2.247  15.336 -0.1755 -0.2592 -0.0293
13666TIP3   OH262412   0.972   5.679  14.178  0.2869 -0.7529  0.2113
13666TIP3    H162413   0.895   5.628  14.155  0.5430 -1.1033  0.1176
13666TIP3    H262414   0.992   5.653  14.268 -1.3626  1.4221  1.3056
13667TIP3   OH262415   3.211   6.208  11.207  0.0793  0.2776 -0.0631
13667TIP3    H162416   3.204   6.143  11.137 -0.2777  0.8196 -0.5434
13667TIP3    H262417   3.300   6.241  11.202 -0.1012  0.6969 -0.6200
13668TIP3   OH262418   1.797   1.747  16.843  0.3938 -0.7003  0.4348
13668TIP3    H162419   1.783   1.682  16.912 -1.1023  0.9873  1.8209
13668TIP3    H262420   1.810   1.695  16.764  0.4757 -2.6905  1.6831
13669TIP3   OH262421   0.352   5.530  13.043  0.3482  0.7386 -0.0124
13669TIP3    H162422   0.420   5.522  13.109  2.1801 -2.8623 -2.0038
13669TIP3    H262423   0.396   5.572  12.969  0.4197 -1.2449 -1.1732
13670TIP3   OH262424   2.067   6.346  16.683 -0.3039  0.3601 -0.4830
13670TIP3    H162425   2.108   6.363  16.598 -0.7924  0.3014 -0.7346
13670TIP3    H262426   2.062   6.432  16.725  2.5515  0.0390  0.7134
13671TIP3   OH262427   6.756   1.761   1.975  0.1510  0.4913 -0.2968
13671TIP3    H162428   6.740   1.671   1.945  0.1572  1.0377 -2.0892
13671TIP3    H262429   6.717   1.765   2.062  0.8394 -1.4518  0.1452
13672TIP3   OH262430   2.960   2.408  16.534 -0.6848  0.2589 -0.1388
13672TIP3    H162431   2.869   2.394  16.507 -0.8727 -0.5369  0.8586
13672TIP3    H262432   2.987   2.324  16.571  0.7684  0.1952 -1.2453
13673TIP3   OH262433   2.399   0.004   4.314 -0.1204  0.1690  0.2213
13673TIP3    H162434   2.355   0.089   4.307  1.0096  0.7202 -0.3640
13673TIP3    H262435   2.489   0.025   4.338  0.6908 -0.7430 -1.8616
13674TIP3   OH262436   5.525   0.978   4.455 -0.3796 -0.5351  0.7111
13674TIP3    H162437   5.520   1.025   4.538 -1.6626  0.1134  0.3044
13674TIP3    H262438   5.473   0.899   4.469  0.0038 -0.7832  0.7424
13675TIP3   OH262439   4.965   0.705   5.799 -0.2787 -0.8185 -0.2100
13675TIP3    H162440   4.917   0.696   5.881  0.3455  0.9955  0.4022
13675TIP3    H262441   4.939   0.791   5.765  0.9261 -0.7118 -0.9248
13676TIP3   OH262442   0.707   4.394  12.458  0.4442 -0.1946  0.0986
13676TIP3    H162443   0.744   4.311  12.488 -0.7425 -0.9011 -0.2903
13676TIP3    H262444   0.742   4.460  12.518 -0.5965 -1.3227  2.0496
13677TIP3   OH262445   1.648   4.637   3.332 -0.3152 -0.0946  0.6677
13677TIP3    H162446   1.561   4.627   3.292 -0.2767 -0.5363  0.6895
13677TIP3    H262447   1.702   4.672   3.261  0.0353 -1.9703 -0.0492
13678TIP3   OH262448   1.152   2.569   4.854 -0.3517  0.3770  0.1517
13678TIP3    H162449   1.142   2.610   4.768  0.4803  0.9050  0.2933
13678TIP3    H262450   1.141   2.641   4.916  1.2706  0.4511  0.3978
13679TIP3   OH262451   5.985   4.316  12.124  0.0359 -0.3511  0.9831
13679TIP3    H162452   5.963   4.381  12.191  0.3727  0.1318  0.6316
13679TIP3    H262453   5.903   4.271  12.106 -0.9116  1.9073 -0.8430
13680TIP3   OH262454   4.806   4.931   5.609 -0.0307  0.2069  0.4507
13680TIP3    H162455   4.832   5.020   5.631  1.0952  0.2875 -1.0451
13680TIP3    H262456   4.767   4.896   5.689 -1.1371  2.2589  0.8726
13681TIP3   OH262457   6.642   6.467   3.192  0.1968 -0.2890  0.5644
13681TIP3    H162458   6.637   6.507   3.105  2.5053  0.3052  0.6360
13681TIP3    H262459   6.673   6.538   3.249 -1.5823 -0.5794  1.9897
13682TIP3   OH262460   4.734   3.221   2.075 -0.3345 -0.5143  0.6433
13682TIP3    H162461   4.799   3.176   2.021 -1.6152  1.0840 -2.4967
13682TIP3    H262462   4.774   3.226   2.162  3.3828 -0.2829 -0.8979
13683TIP3   OH262463   1.730   0.194   2.046 -0.1696  0.1550  0.0206
13683TIP3    H162464   1.770   0.184   1.960 -2.2722 -0.0725 -0.9718
13683TIP3    H262465   1.713   0.104   2.075  2.0729  0.1174  1.5139
13684TIP3   OH262466   6.322   2.333   1.830  0.2138  0.4683 -0.0462
13684TIP3    H162467   6.408   2.368   1.805  1.6219 -1.8741  1.2053
13684TIP3    H262468   6.322   2.243   1.798 -2.0706  0.5926 -0.5582
13685TIP3   OH262469   3.153   2.729  13.517  0.3727  0.3285  0.1501
13685TIP3    H162470   3.230   2.783  13.535 -0.4442  1.4704  0.3236
13685TIP3    H262471   3.137   2.741  13.423  0.3323  0.1743  0.1359
13686TIP3   OH262472   1.456   4.381   2.280 -0.6280  0.8116 -0.0583
13686TIP3    H162473   1.494   4.305   2.237 -1.8306  0.6747 -0.9281
13686TIP3    H262474   1.498   4.383   2.366 -2.0895 -2.1228  0.8711
13687TIP3   OH262475   6.348   1.678  10.771  0.2458  0.0776  0.5165
13687TIP3    H162476   6.413   1.708  10.706  0.6381  0.7802  1.2154
13687TIP3    H262477   6.297   1.612  10.725  0.2505  0.8581 -0.6477
13688TIP3   OH262478   3.794   5.423  14.705  0.3058 -0.1954 -0.2905
13688TIP3    H162479   3.797   5.501  14.649 -0.5263  1.3145  1.6635
13688TIP3    H262480   3.885   5.395  14.712  0.6139  0.5424 -1.1095
13689TIP3   OH262481   4.887   3.099  15.150 -0.2273 -0.3031 -0.2882
13689TIP3    H162482   4.846   3.062  15.228 -1.4765 -1.0390 -1.2553
13689TIP3    H262483   4.862   3.040  15.079  0.9120  0.3242 -1.2603
13690TIP3   OH262484   1.841   0.795   1.679  0.5046 -0.3858  0.1146
13690TIP3    H162485   1.787   0.863   1.638  0.4366 -0.3456  0.2716
13690TIP3    H262486   1.835   0.813   1.773 -0.9279 -1.6423  0.2968
13691TIP3   OH262487   0.601   6.432  11.431  0.5200 -0.2316  0.3136
13691TIP3    H162488   0.558   6.500  11.378 -0.9828 -1.9898 -0.8581
13691TIP3    H262489   0.679   6.475  11.465  0.3302  1.6974 -1.4407
13692TIP3   OH262490   0.955   2.838  12.463 -0.0807 -0.3448 -0.4913
13692TIP3    H162491   1.020   2.825  12.532 -0.0294 -1.2726 -0.7020
13692TIP3    H262492   1.005   2.840  12.382 -0.2526 -0.4295 -0.6015
13693TIP3   OH262493   0.995   4.012   3.989 -0.5683  0.0944  0.7486
13693TIP3    H162494   0.914   4.052   3.956 -0.2766  0.1850  0.1111
13693TIP3    H262495   0.982   4.006   4.083 -0.4076  2.2063  0.9477
13694TIP3   OH262496   4.565   5.949   5.853  0.7619  0.8488 -0.2713
13694TIP3    H162497   4.520   6.032   5.838  0.1652  1.0466  2.1066
13694TIP3    H262498   4.651   5.960   5.811  0.4860  2.4643 -0.4786
13695TIP3   OH262499   2.784   5.383  10.709  0.5641 -0.1787 -0.2272
13695TIP3    H162500   2.852   5.380  10.642  1.5404  0.7086  0.6875
13695TIP3    H262501   2.726   5.309  10.689  1.9010 -1.0610 -0.9163
13696TIP3   OH262502   5.647   6.702   2.901 -0.0389 -0.2806  0.4264
13696TIP3    H162503   5.654   6.766   2.971  0.3865  0.2565 -0.0918
13696TIP3    H262504   5.628   6.619   2.945 -0.2933  0.1473  1.1257
13697TIP3   OH262505   5.081   5.125  13.982 -0.2334 -0.2605  0.1045
13697TIP3    H162506   5.014   5.142  13.916 -0.9726  0.4546  1.0041
13697TIP3    H262507   5.090   5.208  14.029  1.3228 -0.3361 -0.0185
13698TIP3   OH262508   4.510   5.663  13.069  0.0121 -0.5154 -0.1338
13698TIP3    H162509   4.494   5.619  12.985  1.5911 -0.0141 -0.7395
13698TIP3    H262510   4.605   5.678  13.071 -0.2299  1.2214  0.8749
13699TIP3   OH262511   6.728   0.120   0.371  0.8895  0.2316 -0.1109
13699TIP3    H162512   6.659   0.090   0.312  0.7999  0.1444  0.0378
13699TIP3    H262513   6.710   0.213   0.385  0.8626  0.2329 -0.1544
13700TIP3   OH262514   0.087   4.457   3.964  0.3046 -0.2831  0.4326
13700TIP3    H162515   0.180   4.480   3.973  0.3569  0.2682 -1.0783
13700TIP3    H262516   0.063   4.419   4.048  1.8083 -0.1048  0.9784
13701TIP3   OH262517   3.256   0.085   3.657  0.1342  0.2085  0.6364
13701TIP3    H162518   3.298   0.000   3.640  0.2468  0.2887  0.5169
13701TIP3    H262519   3.285   0.141   3.585 -2.6623 -0.5882 -1.2689
13702TIP3   OH262520   0.727   4.627   0.674 -0.2364  0.2263 -0.5235
13702TIP3    H162521   0.737   4.533   0.690 -1.9555 -0.1026 -1.1681
13702TIP3    H262522   0.761   4.668   0.753 -1.7158 -1.0659  0.8741
13703TIP3   OH262523   2.023   5.615  14.651 -0.5781  0.1125  0.0934
13703TIP3    H162524   1.958   5.545  14.647 -1.0648  0.6083 -2.0370
13703TIP3    H262525   2.004   5.660  14.734 -2.0432 -0.6084  0.1861
13704TIP3   OH262526   3.875   0.122   5.502 -0.0049 -0.0842 -0.3617
13704TIP3    H162527   3.812   0.186   5.471 -0.5120 -1.0204 -1.3457
13704TIP3    H262528   3.925   0.097   5.424 -0.0576 -1.1323 -0.0840
13705TIP3   OH262529   1.757   4.050   2.407 -0.3362 -0.4208  0.0943
13705TIP3    H162530   1.850   4.030   2.415 -0.3477 -0.7963 -0.6257
13705TIP3    H262531   1.712   3.974   2.443 -0.3677 -0.1837  0.5630
13706TIP3   OH262532   4.817   4.356   3.723 -0.0260  0.3110  0.4053
13706TIP3    H162533   4.754   4.427   3.715 -0.7825 -0.3891  0.0681
13706TIP3    H262534   4.899   4.400   3.748 -0.3939  1.3322 -0.1150
13707TIP3   OH262535   0.312   4.295  10.982 -0.0590 -0.5274  0.0085
13707TIP3    H162536   0.391   4.258  11.021 -0.2221 -0.1013  0.7706
13707TIP3    H262537   0.337   4.313  10.891  1.1981  0.8925  0.5693
13708TIP3   OH262538   2.103   2.050  12.935 -0.5701  0.2326 -0.4791
13708TIP3    H162539   2.054   2.127  12.965 -1.2869 -0.0702 -0.8376
13708TIP3    H262540   2.121   2.001  13.015  0.6483  1.1897 -0.1455
13709TIP3   OH262541   2.638   6.183  16.484  0.3990  0.2486  0.0450
13709TIP3    H162542   2.605   6.153  16.568 -1.8783  2.3687  0.0197
13709TIP3    H262543   2.637   6.105  16.428  0.5757 -0.8719  1.5542
13710TIP3   OH262544   5.905   1.183   0.464 -0.3937  0.1907  0.5367
13710TIP3    H162545   5.884   1.126   0.537 -0.5596 -1.2455 -0.5879
13710TIP3    H262546   5.962   1.131   0.407 -1.8823  0.4929 -1.3576
13711TIP3   OH262547   1.320   2.868  13.862 -0.3925  0.1963  0.0196
13711TIP3    H162548   1.302   2.947  13.914  0.6492  1.1842 -1.0691
13711TIP3    H262549   1.242   2.857  13.808 -0.9871 -0.1545  0.9195
13712TIP3   OH262550   3.513   5.981   5.927 -0.7643 -0.2683  0.0852
13712TIP3    H162551   3.596   6.014   5.891 -0.2234 -1.6589 -0.0082
13712TIP3    H262552   3.453   5.982   5.853 -1.2741  2.0517  0.4666
13713TIP3   OH262553   6.573   5.679   4.507 -0.2297 -0.2827 -0.0880
13713TIP3    H162554   6.605   5.750   4.453  1.4394 -0.4096  0.6508
13713TIP3    H262555   6.550   5.609   4.445  1.6617 -0.4381 -0.6662
13714TIP3   OH262556   6.626   2.011   4.204 -0.1351 -0.4359 -0.3831
13714TIP3    H162557   6.574   2.087   4.178  0.5252  0.6156  1.2120
13714TIP3    H262558   6.571   1.936   4.184 -0.5540  0.4013 -2.6042
13715TIP3   OH262559   1.139   4.118  15.958  0.4385  0.7629  0.2355
13715TIP3    H162560   1.090   4.194  15.991 -1.3721 -0.3305  0.2055
13715TIP3    H262561   1.130   4.052  16.026  1.1135  0.2125 -0.1894
13716TIP3   OH262562   1.954   3.381  12.692 -0.4028 -1.0158  0.7952
13716TIP3    H162563   2.012   3.317  12.732 -1.5199 -2.0868  0.7590
13716TIP3    H262564   1.984   3.387  12.601  0.0876 -1.0268  0.9544
13717TIP3   OH262565   6.705   0.973   2.164 -0.1116 -0.2486 -0.2031
13717TIP3    H162566   6.748   1.042   2.214 -0.9787  0.4774 -0.4292
13717TIP3    H262567   6.613   1.000   2.161 -0.6171 -1.7962  0.3412
13718TIP3   OH262568   3.386   3.591  14.969 -0.1030  0.5352 -0.2967
13718TIP3    H162569   3.325   3.561  14.902 -2.7283  1.8836  1.3014
13718TIP3    H262570   3.429   3.667  14.929 -0.6382  0.5247 -0.9179
13719TIP3   OH262571   3.013   1.870   1.085  0.1978 -0.1132  0.0196
13719TIP3    H162572   2.926   1.876   1.045 -0.0569 -1.3229  0.3867
13719TIP3    H262573   3.071   1.911   1.020 -0.5524  0.1675 -0.4883
13720TIP3   OH262574   2.428   6.612   1.574  0.3768 -0.5452 -0.4051
13720TIP3    H162575   2.446   6.624   1.667 -1.2986 -1.0135  0.0227
13720TIP3    H262576   2.378   6.530   1.570 -0.6632  0.1073 -1.5357
13721TIP3   OH262577   4.082   0.545   2.653  0.1516 -0.7188 -0.3760
13721TIP3    H162578   4.170   0.506   2.651  0.9189  0.7860  1.0413
13721TIP3    H262579   4.089   0.621   2.597 -0.6016 -1.2117 -1.1528
13722TIP3   OH262580   4.934   6.467  15.532 -0.0776  0.1255  1.1443
13722TIP3    H162581   4.871   6.407  15.493 -0.5576  0.8956  0.6927
13722TIP3    H262582   5.007   6.412  15.560  0.5639 -0.4097 -1.3785
13723TIP3   OH262583   1.299   0.327  15.985 -0.6308  0.2144  0.2428
13723TIP3    H162584   1.306   0.326  16.081  0.7642 -0.1485  0.1578
13723TIP3    H262585   1.389   0.324  15.955 -1.0481  0.7875 -1.0960
13724TIP3   OH262586   3.692   5.547   4.257  0.2717 -0.4702  0.6129
13724TIP3    H162587   3.784   5.532   4.234  0.0806 -0.7491  0.0435
13724TIP3    H262588   3.693   5.632   4.303  0.8273 -0.5321  0.7209
13725TIP3   OH262589   1.480   1.657   2.341 -0.0198 -0.1549 -0.2195
13725TIP3    H162590   1.484   1.566   2.312 -0.3813  0.0810 -1.0395
13725TIP3    H262591   1.397   1.690   2.307 -0.5931  0.0854  1.3119
13726TIP3   OH262592   5.133   1.316  12.017  0.6184  0.5869  0.0581
13726TIP3    H162593   5.165   1.379  12.081  0.6550  0.1665  0.4579
13726TIP3    H262594   5.212   1.286  11.971  0.4805  1.7057 -0.9531
13727TIP3   OH262595   1.236   4.161  11.304 -0.0806 -0.4483 -0.2621
13727TIP3    H162596   1.176   4.136  11.233  0.2539 -0.6090 -0.4890
13727TIP3    H262597   1.254   4.078  11.349 -2.0132 -0.0697  1.3814
13728TIP3   OH262598   2.031   1.412   3.682 -0.3189 -0.1372 -0.4079
13728TIP3    H162599   2.071   1.340   3.730 -0.9142 -0.3056 -0.1525
13728TIP3    H262600   1.943   1.420   3.720 -0.3932  0.4737 -0.6907
13729TIP3   OH262601   3.539   5.870   6.177 -0.8454 -0.3011 -0.4670
13729TIP3    H162602   3.609   5.923   6.215 -1.8463 -0.3190  1.5483
13729TIP3    H262603   3.526   5.906   6.090  0.3118  1.0115 -0.1359
13730TIP3   OH262604   3.206   1.123   0.307 -0.2366  0.1599 -0.2311
13730TIP3    H162605   3.271   1.193   0.308  0.2185 -0.2597 -0.3792
13730TIP3    H262606   3.153   1.139   0.385  0.1961  0.3553  0.0235
13731TIP3   OH262607   6.625   1.959   5.808 -0.5347 -0.4816 -0.1957
13731TIP3    H162608   6.717   1.934   5.807 -0.4738 -0.2575 -0.2200
13731TIP3    H262609   6.581   1.890   5.758  0.0378  1.0547 -3.0522
13732TIP3   OH262610   1.595   5.671   0.690 -0.1933  0.2374 -0.0105
13732TIP3    H162611   1.522   5.612   0.672 -1.7268  2.1687 -0.4362
13732TIP3    H262612   1.627   5.697   0.604 -0.3051  0.8986  0.1406
13733TIP3   OH262613   5.765   6.564  14.379  0.5745 -0.0897  0.1476
13733TIP3    H162614   5.775   6.593  14.289  0.4242 -0.8364 -0.1183
13733TIP3    H262615   5.829   6.494  14.389  0.5928 -0.0107  0.6244
13734TIP3   OH262616   1.456   3.234  16.118  0.0501  0.4212  0.1068
13734TIP3    H162617   1.494   3.151  16.091  1.5340  1.1868 -0.2671
13734TIP3    H262618   1.516   3.268  16.184 -0.3995  1.3062  0.0820
13735TIP3   OH262619   3.063   6.714  14.025 -0.6285 -0.1080 -0.1012
13735TIP3    H162620   3.097   6.625  14.022  1.5923  0.6397  0.7789
13735TIP3    H262621   3.131   6.765  14.070 -0.7790  2.4646 -2.4694
13736TIP3   OH262622   1.474   2.963  16.182 -0.0196 -0.3226  0.2671
13736TIP3    H162623   1.394   2.978  16.232  1.4314 -3.1783  3.8746
13736TIP3    H262624   1.460   2.879  16.139  0.7271 -0.4716  0.3037
13737TIP3   OH262625   0.614   1.699  12.144 -0.0835  0.2149  0.8133
13737TIP3    H162626   0.522   1.687  12.164 -0.5341  2.6285  0.4037
13737TIP3    H262627   0.622   1.675  12.051 -0.8243  2.1832  0.1946
13738TIP3   OH262628   5.857   4.507   2.930  0.8099  0.2119 -0.4758
13738TIP3    H162629   5.882   4.558   3.008 -2.4092  1.4019 -0.0953
13738TIP3    H262630   5.863   4.416   2.959 -0.4913  0.6373  1.2768
13739TIP3   OH262631   3.361   0.489   4.527  0.0101  0.0813  0.4362
13739TIP3    H162632   3.395   0.415   4.476 -1.7636 -2.0070  2.0256
13739TIP3    H262633   3.270   0.465   4.544 -0.2154  1.9798  2.2737
13740TIP3   OH262634   5.735   0.334   3.300 -0.0568 -0.5111  0.3880
13740TIP3    H162635   5.809   0.279   3.274  0.7219  0.8278 -0.3116
13740TIP3    H262636   5.678   0.336   3.224 -2.5335 -4.0734  1.8640
13741TIP3   OH262637   5.433   5.056  13.475  0.2366 -0.7291  0.1420
13741TIP3    H162638   5.444   4.961  13.479  2.5956 -0.4822  3.3236
13741TIP3    H262639   5.517   5.088  13.442 -0.0323  0.3050  0.4205
13742TIP3   OH262640   1.156   1.344  14.542 -0.0950  0.0424 -0.1539
13742TIP3    H162641   1.074   1.394  14.543  0.2822  0.6677 -0.4167
13742TIP3    H262642   1.202   1.375  14.464  0.2706 -0.5096 -0.1591
13743TIP3   OH262643   1.470   5.592   2.461 -1.0313  0.2664 -0.2991
13743TIP3    H162644   1.525   5.548   2.397  0.7824  2.5655 -0.4640
13743TIP3    H262645   1.405   5.639   2.408 -1.2410  0.0022 -0.2787
13744TIP3   OH262646   6.754   5.159   4.989  0.5298  0.1890  0.4662
13744TIP3    H162647   6.670   5.162   4.943  1.7307  0.1796 -1.9111
13744TIP3    H262648   6.798   5.241   4.965  1.1986  0.2344  1.7288
13745TIP3   OH262649   0.256   5.475  15.505 -0.6450 -0.1327  0.2058
13745TIP3    H162650   0.317   5.406  15.532  1.3040  1.2638 -0.3932
13745TIP3    H262651   0.213   5.502  15.586  0.3859 -0.3912  0.8626
13746TIP3   OH262652   1.108   0.209  17.089  0.7116  0.1218 -0.4648
13746TIP3    H162653   1.151   0.186  17.007  2.2304 -1.3183  0.6503
13746TIP3    H262654   1.151   0.290  17.116  0.8023  0.1487 -0.6865
13747TIP3   OH262655   3.859   1.725   6.340 -0.2591 -0.2307 -0.0446
13747TIP3    H162656   3.951   1.721   6.364  0.3715 -2.6090 -2.4312
13747TIP3    H262657   3.816   1.665   6.401 -0.1319  0.2174  0.5035
13748TIP3   OH262658   4.723   6.597   1.020 -0.5207  0.4806  0.0968
13748TIP3    H162659   4.739   6.534   0.950  3.1283  2.0265 -0.7208
13748TIP3    H262660   4.779   6.568   1.092  0.9337  2.4305 -0.1601
13749TIP3   OH262661   2.662   0.025  11.981  0.0183  0.3100 -0.0915
13749TIP3    H162662   2.620   0.090  11.926 -1.0501 -1.0785 -0.9687
13749TIP3    H262663   2.713  -0.028  11.921  1.1824  0.5264  0.6646
13750TIP3   OH262664   2.867   6.701   5.278  0.1428 -0.2827 -0.6073
13750TIP3    H162665   2.896   6.618   5.241  1.7726  0.4043 -0.9828
13750TIP3    H262666   2.772   6.697   5.276  0.1541 -2.5203  0.2500
13751TIP3   OH262667   5.844   2.109  15.669 -0.3835  0.0682  0.5295
13751TIP3    H162668   5.872   2.085  15.580 -0.9107  0.8938  0.1292
13751TIP3    H262669   5.781   2.041  15.693 -0.5621  0.0789  0.1013
13752TIP3   OH262670   6.027   3.647  13.518 -0.0190 -0.0217  0.1768
13752TIP3    H162671   6.009   3.555  13.536 -2.2654 -0.0409 -1.6434
13752TIP3    H262672   6.101   3.645  13.457  1.3913 -0.4352  1.8302
13753TIP3   OH262673   1.823   4.049  16.433  0.4027 -0.0830 -0.0750
13753TIP3    H162674   1.783   4.047  16.520 -0.1228 -2.0039 -0.3102
13753TIP3    H262675   1.847   4.141  16.420 -2.1392  0.8078  0.8907
13754TIP3   OH262676   6.714   2.622   2.508  0.0562 -0.7976 -0.3534
13754TIP3    H162677   6.771   2.698   2.517 -1.5244  0.4213 -0.2392
13754TIP3    H262678   6.665   2.637   2.427 -2.8183  0.1680  1.4184
13755TIP3   OH262679   4.422   2.347   4.873  0.2888 -0.0485 -0.9189
13755TIP3    H162680   4.370   2.296   4.811  1.2390  1.8276 -3.4406
13755TIP3    H262681   4.502   2.297   4.884  0.5900  0.1269 -2.1700
13756TIP3   OH262682   2.161   3.612  10.818  0.7508 -0.7418  0.2147
13756TIP3    H162683   2.086   3.591  10.763 -0.3592  0.2405  1.2999
13756TIP3    H262684   2.158   3.547  10.888 -0.7446  0.8885  1.7554
13757TIP3   OH262685   2.644   0.512   1.734  0.0678 -0.1418  0.2652
13757TIP3    H162686   2.579   0.566   1.779 -0.0707 -0.0958  0.0091
13757TIP3    H262687   2.728   0.556   1.749 -0.5105  3.1133 -4.1990
13758TIP3   OH262688   5.707   6.655   5.718 -0.6896 -0.1320 -0.1941
13758TIP3    H162689   5.665   6.737   5.746 -0.9760 -0.2894 -0.1621
13758TIP3    H262690   5.780   6.683   5.663 -0.3148  0.1746  0.4471
13759TIP3   OH262691   0.232   4.181   0.668  0.1207 -0.7149  0.1276
13759TIP3    H162692   0.319   4.187   0.709  0.4180  2.6618 -0.6949
13759TIP3    H262693   0.177   4.238   0.721 -1.2994 -1.7530 -0.1790
13760TIP3   OH262694   1.218   0.664  15.688 -0.5130  0.0547  0.5929
13760TIP3    H162695   1.284   0.657  15.618  2.3700  3.1530  2.6549
13760TIP3    H262696   1.154   0.726  15.653 -1.3438 -1.4700 -0.7067
13761TIP3   OH262697   3.279   3.444   1.110 -0.4698  0.7088 -1.0348
13761TIP3    H162698   3.291   3.457   1.016 -1.8549  0.2839 -1.2907
13761TIP3    H262699   3.196   3.486   1.130 -1.7088 -1.7705 -0.6042
13762TIP3   OH262700   5.320   1.933   0.889 -0.2328  0.3387  0.1039
13762TIP3    H162701   5.406   1.906   0.856 -0.1910  0.7438 -0.1228
13762TIP3    H262702   5.299   1.868   0.957 -0.4088 -0.6031 -0.8371
13763TIP3   OH262703   1.942   2.661   1.074  0.2620 -0.3826 -0.0880
13763TIP3    H162704   1.896   2.694   0.997 -0.4137 -1.4636 -0.1699
13763TIP3    H262705   2.034   2.682   1.058  0.1341 -0.5886 -1.1799
13764TIP3   OH262706   6.605   0.689  15.963  0.0054  0.5250  0.3392
13764TIP3    H162707   6.572   0.600  15.951 -0.5030  0.5149  1.5964
13764TIP3    H262708   6.562   0.719  16.043  2.5799  0.7381  1.7508
13765TIP3   OH262709   4.915   5.079  15.747  0.0702  0.2309 -0.1736
13765TIP3    H162710   4.989   5.054  15.692  1.0522 -0.6483  1.4710
13765TIP3    H262711   4.869   4.996  15.763 -0.4437  0.5441 -0.0066
13766TIP3   OH262712   2.856   1.977   5.398 -0.0837  0.1486  0.0421
13766TIP3    H162713   2.939   1.930   5.409 -0.1874 -0.0816 -0.1385
13766TIP3    H262714   2.862   2.051   5.458 -0.7982 -1.2775  1.9786
13767TIP3   OH262715   1.789   1.990  16.687  0.1821 -0.4687  0.3335
13767TIP3    H162716   1.820   1.970  16.598  0.7277 -0.5947  0.5496
13767TIP3    H262717   1.810   1.911  16.737 -0.8337 -0.7107  0.4069
13768TIP3   OH262718   1.252   4.275   1.264 -0.0394 -0.5065  0.4053
13768TIP3    H162719   1.218   4.337   1.199 -0.3726 -2.1581 -1.0914
13768TIP3    H262720   1.232   4.189   1.227 -0.3925 -1.5388  2.8235
13769TIP3   OH262721   4.635   6.558  17.157 -0.3962 -0.7718 -0.5463
13769TIP3    H162722   4.685   6.563  17.239 -0.0185 -0.0366 -0.8154
13769TIP3    H262723   4.543   6.560  17.185 -0.2906 -1.6685 -0.0802
13770TIP3   OH262724   4.916   5.108   2.433  0.2331 -0.7258  0.5953
13770TIP3    H162725   4.919   5.049   2.359 -1.4001 -1.5664  1.1632
13770TIP3    H262726   4.831   5.151   2.427  0.9775  0.8631  0.7557
13771TIP3   OH262727   0.938   0.482   4.239  0.0171 -0.6036  0.4459
13771TIP3    H162728   0.886   0.501   4.316  0.3557 -0.5303  0.6581
13771TIP3    H262729   0.874   0.457   4.172 -0.2994 -0.3320  0.6474
13772TIP3   OH262730   3.986   3.401   1.825 -0.3532  0.5436 -0.0048
13772TIP3    H162731   3.994   3.314   1.863  0.8316  0.8325  0.4450
13772TIP3    H262732   4.053   3.403   1.756 -0.1603  1.1945  0.1925
13773TIP3   OH262733   0.583   1.632  15.691  0.0774 -0.1740  0.3617
13773TIP3    H162734   0.547   1.720  15.700 -0.0287 -0.2763  1.0042
13773TIP3    H262735   0.677   1.645  15.678 -0.2154  0.1191 -1.7898
13774TIP3   OH262736   1.177   0.990  13.529  0.2073  0.6041  0.0572
13774TIP3    H162737   1.192   1.077  13.492 -1.1812  0.7608 -0.2013
13774TIP3    H262738   1.234   0.933  13.479  0.1321  1.1730 -0.7034
13775TIP3   OH262739   1.662   2.362  15.306  0.4178  0.1630  0.4033
13775TIP3    H162740   1.617   2.432  15.259  3.2730  3.2418  1.8466
13775TIP3    H262741   1.746   2.354  15.261  0.6990 -1.3768  1.1510
13776TIP3   OH262742   4.283   1.533   0.207  0.5424 -0.4363  0.2992
13776TIP3    H162743   4.317   1.619   0.232 -1.3273  0.1948  0.8487
13776TIP3    H262744   4.359   1.487   0.172  1.5160  1.5965 -0.4738
13777TIP3   OH262745   0.463   3.076  15.106 -0.0248 -0.5683 -0.5240
13777TIP3    H162746   0.442   2.990  15.143 -1.9097 -0.0918 -0.4022
13777TIP3    H262747   0.486   3.129  15.183 -2.9999  0.1497  0.0137
13778TIP3   OH262748   5.972   0.191   5.125 -0.3581 -0.2015  0.5087
13778TIP3    H162749   5.921   0.240   5.189 -0.8069 -0.5958  0.4518
13778TIP3    H262750   6.063   0.215   5.144 -0.6240  1.6493 -0.3130
13779TIP3   OH262751   1.670   3.555  15.719  0.6476 -0.4492 -0.5344
13779TIP3    H162752   1.644   3.531  15.808  0.0585 -3.1366 -1.3392
13779TIP3    H262753   1.636   3.644  15.708  0.2135 -0.2734  1.7066
13780TIP3   OH262754   6.216   2.905   5.377  0.2672 -0.4458  0.5768
13780TIP3    H162755   6.191   2.845   5.306 -1.1078  0.5274  0.2036
13780TIP3    H262756   6.240   2.847   5.449 -2.0970 -1.5145  0.6047
13781TIP3   OH262757   1.451   2.755   3.087  0.5282 -0.4956  0.2853
13781TIP3    H162758   1.427   2.768   2.995  0.0038 -1.6757  0.2294
13781TIP3    H262759   1.528   2.811   3.100  0.4649 -0.1280 -0.8022
13782TIP3   OH262760   1.163   4.572  14.795 -0.0386 -0.2365 -0.6583
13782TIP3    H162761   1.107   4.500  14.766  0.7445 -1.1307 -0.0307
13782TIP3    H262762   1.238   4.528  14.836  0.4682  0.9459 -0.2891
13783TIP3   OH262763   1.586   5.170  16.263  0.2873  0.7157  0.3838
13783TIP3    H162764   1.492   5.157  16.270  0.2212  0.0633 -1.2452
13783TIP3    H262765   1.609   5.224  16.339 -0.8514 -1.6953  2.5919
13784TIP3   OH262766   1.673   1.448  15.328 -0.0910  0.0929  0.0324
13784TIP3    H162767   1.768   1.434  15.336 -0.2164 -0.0689  1.5699
13784TIP3    H262768   1.664   1.540  15.305  0.4223  0.3999  1.0076
13785TIP3   OH262769   5.994   6.322   3.317 -0.4859  0.5579 -0.4086
13785TIP3    H162770   6.004   6.232   3.348  0.2913 -0.6853 -3.8104
13785TIP3    H262771   6.083   6.353   3.303 -0.7246  0.2615 -3.1012
13786TIP3   OH262772   0.674   2.570  12.408 -0.4093  0.2640 -0.2094
13786TIP3    H162773   0.595   2.575  12.463  1.4175  0.3562  2.5783
13786TIP3    H262774   0.676   2.654  12.363 -1.4461  0.6381  0.3961
13787TIP3   OH262775   4.943   1.078   6.018  0.3762 -0.6664 -0.1491
13787TIP3    H162776   4.878   1.081   5.947  0.4883 -0.2195 -0.2381
13787TIP3    H262777   4.894   1.049   6.094 -0.0276  0.0594 -0.1197
13788TIP3   OH262778   1.790   6.250  17.186 -0.2614 -0.3340 -0.2002
13788TIP3    H162779   1.831   6.199  17.256 -0.7990 -1.1872 -0.4981
13788TIP3    H262780   1.697   6.246  17.204 -0.6870 -2.7198 -2.3058
13789TIP3   OH262781   0.451   0.028   3.617 -1.1008  0.1744  0.0726
13789TIP3    H162782   0.490  -0.013   3.539  1.1613 -3.4018  2.7533
13789TIP3    H262783   0.364  -0.010   3.623 -1.3771  0.6520 -0.8166
13790TIP3   OH262784   0.352   6.078  11.737 -0.3778 -0.3806  0.3316
13790TIP3    H162785   0.415   6.141  11.702 -1.2361 -0.2434 -1.0357
13790TIP3    H262786   0.283   6.075  11.671 -1.7935 -0.5516  1.7764
13791TIP3   OH262787   2.405   3.610   6.377 -0.0994  0.2497  0.2154
13791TIP3    H162788   2.369   3.576   6.459  2.4924 -0.3572  1.1981
13791TIP3    H262789   2.426   3.532   6.327  0.2156  0.5774 -0.1619
13792TIP3   OH262790   2.580   2.735   3.687 -1.0945  0.0200 -0.5097
13792TIP3    H162791   2.495   2.691   3.680 -0.0035 -2.2108 -0.5793
13792TIP3    H262792   2.614   2.737   3.597 -0.9591  0.6620 -0.4472
13793TIP3   OH262793   1.675   6.341  15.289 -0.4713 -0.3087 -0.5057
13793TIP3    H162794   1.603   6.303  15.238 -1.9473  2.6767 -0.8716
13793TIP3    H262795   1.726   6.391  15.225  0.8935 -0.9505  0.0621
13794TIP3   OH262796   0.916   6.253   5.207  0.2063 -0.3756 -0.1941
13794TIP3    H162797   0.885   6.272   5.295 -2.1305  0.2295 -1.0738
13794TIP3    H262798   0.925   6.338   5.165  1.3609 -0.6507 -0.5606
13795TIP3   OH262799   3.930   3.777   6.005 -0.1373  0.3298 -0.0267
13795TIP3    H162800   3.950   3.869   6.023 -1.1994  0.8575 -1.4134
13795TIP3    H262801   3.853   3.758   6.058 -0.7700  0.6719 -0.8048
13796TIP3   OH262802   4.649   3.650   2.479 -0.2373  0.2845 -0.4432
13796TIP3    H162803   4.570   3.597   2.489  0.1175 -0.6057 -1.9488
13796TIP3    H262804   4.620   3.740   2.490 -1.4926 -0.0164 -1.1044
13797TIP3   OH262805   1.728   4.062  12.704 -0.3147 -0.1951  0.1223
13797TIP3    H162806   1.758   4.131  12.645  0.8812 -0.6042  0.2267
13797TIP3    H262807   1.791   3.991  12.692  0.6792  0.1199  2.6920
13798TIP3   OH262808   2.366   4.992  16.749  0.2021  0.1058  0.1156
13798TIP3    H162809   2.346   5.073  16.703 -1.0375 -0.2635 -0.0342
13798TIP3    H262810   2.438   5.015  16.808  1.6471  0.6394 -1.7870
13799TIP3   OH262811   2.277   4.318  17.161  0.1864  0.8553 -0.1427
13799TIP3    H162812   2.199   4.280  17.201 -1.1949 -0.1021 -3.4385
13799TIP3    H262813   2.274   4.410  17.185 -1.1806  0.5549  0.9362
13800TIP3   OH262814   6.376   4.383   2.998  0.7666  0.3332  0.1160
13800TIP3    H162815   6.386   4.475   2.973 -1.2278  0.1759 -1.5002
13800TIP3    H262816   6.397   4.334   2.918 -0.4881 -0.4854  0.2611
13801TIP3   OH262817   0.315   6.419   2.533 -0.0821  0.1015  0.1693
13801TIP3    H162818   0.325   6.492   2.594 -0.3990  0.2575  0.0378
13801TIP3    H262819   0.362   6.346   2.574 -0.0675  0.2809  0.4704
13802TIP3   OH262820   5.458   4.132  13.822 -0.2158  0.0362 -0.8932
13802TIP3    H162821   5.495   4.049  13.853 -0.8195 -0.8423 -2.4009
13802TIP3    H262822   5.364   4.121  13.830 -0.2993  0.6464 -0.9757
13803TIP3   OH262823   5.393   2.098  14.418 -0.4581  0.4161  0.2891
13803TIP3    H162824   5.394   2.135  14.506  0.2962  0.6337  0.1935
13803TIP3    H262825   5.448   2.157  14.367 -1.7092  0.8764 -0.5736
13804TIP3   OH262826   3.120   1.934  12.540 -0.1842 -0.2173  0.1834
13804TIP3    H162827   3.041   1.880  12.540  0.2966 -0.9521  0.5119
13804TIP3    H262828   3.181   1.885  12.596  0.3794  0.5115  0.2123
13805TIP3   OH262829   6.465   3.815   2.310  0.3712 -0.0123 -0.9298
13805TIP3    H162830   6.384   3.860   2.287  0.2633  0.1931 -0.1660
13805TIP3    H262831   6.521   3.825   2.232 -0.4214 -0.3891 -1.5628
13806TIP3   OH262832   2.672   3.533  11.494  0.5202  0.2341 -0.4509
13806TIP3    H162833   2.592   3.494  11.457  0.5841 -0.6640  0.3110
13806TIP3    H262834   2.739   3.467  11.478  0.7994  0.3577  0.1929
13807TIP3   OH262835   2.360   1.966  11.928 -0.1685  0.2916 -0.0131
13807TIP3    H162836   2.357   2.052  11.971 -2.2864  1.0531 -1.4908
13807TIP3    H262837   2.335   1.904  11.996  0.6966  0.9114  0.9001
13808TIP3   OH262838   4.741   2.608  15.292 -0.2751  0.0667  0.0090
13808TIP3    H162839   4.770   2.517  15.297  0.0640  0.1928  0.3884
13808TIP3    H262840   4.781   2.651  15.368  1.2106  0.9888 -1.2238
13809TIP3   OH262841   4.716   3.648   6.542 -0.0457  0.6956 -0.2282
13809TIP3    H162842   4.734   3.608   6.457 -1.4572 -0.7769  0.1096
13809TIP3    H262843   4.800   3.641   6.589  0.1965 -0.4080 -0.7741
13810TIP3   OH262844   3.548   4.856   1.338 -0.2570  0.0912  0.4029
13810TIP3    H162845   3.463   4.869   1.379 -0.2243  0.4516  0.3609
13810TIP3    H262846   3.568   4.941   1.298 -0.9759 -0.6298 -1.6453
13811TIP3   OH262847   2.803   3.296  17.138  0.1341  0.2313 -0.5627
13811TIP3    H162848   2.818   3.207  17.105  2.2484  0.9377 -1.6438
13811TIP3    H262849   2.863   3.305  17.211 -1.4795  0.1634  0.8408
13812TIP3   OH262850   6.099   1.162  13.277  0.2376 -0.1454 -0.1574
13812TIP3    H162851   6.066   1.209  13.354  0.5381 -2.4101  1.4514
13812TIP3    H262852   6.024   1.109  13.248  0.7958 -1.1193  0.1114
13813TIP3   OH262853   0.088   4.795  15.413 -0.4707  0.4216  0.1295
13813TIP3    H162854   0.077   4.783  15.507 -0.5194  2.2761  0.3978
13813TIP3    H262855   0.134   4.878  15.404 -0.1954  0.1326 -1.4856
13814TIP3   OH262856   6.451   6.770  15.298 -0.3709 -0.0588 -0.0542
13814TIP3    H162857   6.372   6.731  15.260 -0.8447  1.8929 -1.1862
13814TIP3    H262858   6.495   6.813  15.225  0.1906  1.3921  1.0824
13815TIP3   OH262859   6.332   0.800  17.197 -0.1215  0.6302  0.4916
13815TIP3    H162860   6.258   0.783  17.255  1.8196 -0.2313  2.8828
13815TIP3    H262861   6.356   0.891  17.214 -0.4391  0.8254 -0.0791
13816TIP3   OH262862   4.690   3.422   4.478  0.2875  0.1788  0.2330
13816TIP3    H162863   4.719   3.493   4.421  0.4239 -0.9671 -1.1611
13816TIP3    H262864   4.770   3.390   4.519  0.2590  0.6406  0.6591
13817TIP3   OH262865   2.050   1.374   4.334 -0.3356 -0.2723 -0.0584
13817TIP3    H162866   2.104   1.452   4.327 -2.6948  1.5120  0.1302
13817TIP3    H262867   2.088   1.311   4.272  1.0661  1.3828 -0.9363
13818TIP3   OH262868   6.204   2.551  16.849  0.9513 -0.0380  0.2040
13818TIP3    H162869   6.248   2.481  16.802 -0.2600 -1.1595  0.7024
13818TIP3    H262870   6.171   2.609  16.781 -1.0611 -1.8119 -0.3963
13819TIP3   OH262871   5.130   6.086  11.294 -0.0557  0.1124  0.5792
13819TIP3    H162872   5.147   6.049  11.381 -2.1248  0.1459  1.0402
13819TIP3    H262873   5.118   6.010  11.237 -2.6660 -0.0172  1.1903
13820TIP3   OH262874   2.790   5.697   5.118  0.1740 -0.1266 -0.6355
13820TIP3    H162875   2.837   5.772   5.081 -0.6266  0.5995 -0.2124
13820TIP3    H262876   2.783   5.635   5.045  0.3747  0.4357 -1.1431
13821TIP3   OH262877   2.284   3.680  11.770  0.0982 -0.7584 -0.3420
13821TIP3    H162878   2.278   3.651  11.861 -1.5793 -0.7286 -0.4190
13821TIP3    H262879   2.331   3.609  11.726 -0.8188 -1.7183  0.1736
13822TIP3   OH262880   0.123   2.299  16.535  0.1288  0.0906  0.3879
13822TIP3    H162881   0.202   2.314  16.484  1.5098 -0.7354  2.1438
13822TIP3    H262882   0.129   2.206  16.561 -1.1022  0.1692  1.0374
13823TIP3   OH262883   2.465   0.882   2.537 -0.3716  0.2320  0.3498
13823TIP3    H162884   2.465   0.789   2.558 -0.9787 -0.0173 -0.6527
13823TIP3    H262885   2.529   0.921   2.596 -0.5250 -0.7304  1.1687
13824TIP3   OH262886   5.837   6.704  13.045  0.0603 -0.2278 -0.0693
13824TIP3    H162887   5.908   6.725  13.106 -0.2854 -0.7405  0.5224
13824TIP3    H262888   5.798   6.789  13.024 -0.4331 -0.1184  1.1977
13825TIP3   OH262889   6.600   4.045  11.515  0.5990  0.0143 -0.3410
13825TIP3    H162890   6.581   3.968  11.462  1.2429  0.2970 -0.9960
13825TIP3    H262891   6.625   4.113  11.452  1.9890  0.1792  0.3266
13826TIP3   OH262892   0.268   5.959  12.863 -0.3695 -0.6580 -0.3219
13826TIP3    H162893   0.275   5.943  12.957 -3.8907  3.1790  0.9080
13826TIP3    H262894   0.200   5.898  12.833  1.2743 -2.3995 -0.6507
13827TIP3   OH262895   6.459   2.848   5.983 -0.1735  0.1481  0.0667
13827TIP3    H162896   6.458   2.804   6.068  1.0903  0.3096  0.1857
13827TIP3    H262897   6.499   2.784   5.923 -1.6137 -0.2048 -0.5667
13828TIP3   OH262898   2.479   1.660  11.804  0.2917 -0.2218 -0.2482
13828TIP3    H162899   2.538   1.706  11.864  0.6180  0.4035 -1.0293
13828TIP3    H262900   2.436   1.594  11.859  0.8549  0.0833  0.5872
13829TIP3   OH262901   3.415   4.769  15.890  0.3999 -0.8280 -0.3655
13829TIP3    H162902   3.418   4.749  15.983 -1.6100 -1.3792 -0.3778
13829TIP3    H262903   3.454   4.856  15.882 -0.6580 -0.1834  1.1761
13830TIP3   OH262904   0.222   1.163   3.259  0.0370  0.1808 -0.3476
13830TIP3    H162905   0.291   1.179   3.194 -0.1811 -1.7783 -1.1083
13830TIP3    H262906   0.258   1.098   3.318  0.2797  2.0292  1.6749
13831TIP3   OH262907   6.564   0.772   1.177 -0.1961  0.2057 -0.0479
13831TIP3    H162908   6.650   0.774   1.218 -0.2886  2.8254  0.1592
13831TIP3    H262909   6.555   0.857   1.135 -1.1977 -1.3584 -3.3171
13832TIP3   OH262910   1.058   1.178  14.167  0.1172  0.2954  0.3926
13832TIP3    H162911   0.983   1.235  14.153  0.4977  0.5623 -0.6004
13832TIP3    H262912   1.025   1.090  14.152  0.2688  0.4925 -1.3090
13833TIP3   OH262913   5.696   1.424  11.418  0.1157  0.2268  1.0250
13833TIP3    H162914   5.601   1.425  11.425  0.0992 -1.2777  1.5269
13833TIP3    H262915   5.714   1.451  11.328 -0.7879  0.3636  0.8713
13834TIP3   OH262916   1.322   3.183   5.622  0.1886  0.0680  0.3637
13834TIP3    H162917   1.384   3.190   5.550  1.1039  0.8658  1.2091
13834TIP3    H262918   1.331   3.264   5.671  0.8199 -1.1221  2.3403
13835TIP3   OH262919   3.934   1.442   1.841 -0.5395 -0.3371  0.5738
13835TIP3    H162920   3.991   1.517   1.825  1.7933 -2.1427 -0.0635
13835TIP3    H262921   3.878   1.437   1.764  1.0605 -0.7249 -0.6061
13836TIP3   OH262922   5.472   5.053   5.052 -0.5385 -0.1636 -0.1739
13836TIP3    H162923   5.474   4.959   5.069  1.4562  0.0994  1.5566
13836TIP3    H262924   5.380   5.077   5.057 -0.8961 -1.7057  1.3801
13837TIP3   OH262925   6.605   2.124   0.453 -0.5904  0.4400  0.3303
13837TIP3    H162926   6.581   2.179   0.379 -0.4156  0.6947  0.4625
13837TIP3    H262927   6.668   2.176   0.502  1.1146 -0.6452 -0.6159
13838TIP3   OH262928   4.238   0.530   4.691  0.3048  0.0087  0.0603
13838TIP3    H162929   4.190   0.571   4.763  1.9790  0.1585  1.1514
13838TIP3    H262930   4.265   0.603   4.635  0.5822  0.0900  0.2955
13839TIP3   OH262931   2.200   1.173  10.106 -0.0915  0.2379  0.4278
13839TIP3    H162932   2.178   1.088  10.068 -2.4366 -0.4448  2.9869
13839TIP3    H262933   2.172   1.237  10.040  0.0943 -0.9098 -0.7979
13840TIP3   OH262934   6.407   2.227  12.154 -0.1682 -0.2860 -0.0759
13840TIP3    H162935   6.315   2.214  12.174 -0.2173 -0.8956 -0.6586
13840TIP3    H262936   6.410   2.310  12.108 -0.7741 -1.3440 -2.1568
13841TIP3   OH262937   5.604   6.063   1.150 -0.4072 -0.0050 -0.2337
13841TIP3    H162938   5.522   6.020   1.125 -1.3589  1.3615  0.4037
13841TIP3    H262939   5.631   6.110   1.071 -0.0320 -0.7115 -0.5439
13842TIP3   OH262940   0.224   6.241   4.837  0.8832  0.6247 -0.2369
13842TIP3    H162941   0.235   6.325   4.792 -1.1660  0.1417 -1.7740
13842TIP3    H262942   0.240   6.261   4.929  2.7203  2.1864 -0.8183
13843TIP3   OH262943   0.716   0.602  14.143 -0.1842 -0.4648  0.0586
13843TIP3    H162944   0.671   0.518  14.133  1.2735 -1.3215  0.4376
13843TIP3    H262945   0.804   0.587  14.109 -0.9528  2.0296 -3.6448
13844TIP3   OH262946   2.308   5.101  12.660 -0.0557 -0.0773 -0.5991
13844TIP3    H162947   2.290   5.192  12.683  1.0424 -0.2663  1.2113
13844TIP3    H262948   2.402   5.099  12.643  0.5682 -1.3862  2.4179
13845TIP3   OH262949   1.004   0.085   5.395  0.0462  0.2733 -0.6473
13845TIP3    H162950   0.995   0.008   5.339  4.7754 -1.1132  0.1049
13845TIP3    H262951   1.002   0.050   5.484 -0.5625  1.4918 -0.1578
13846TIP3   OH262952   3.805   4.634   1.295 -0.6953 -0.4613 -1.0972
13846TIP3    H162953   3.829   4.609   1.384  1.0056 -0.3169 -1.4745
13846TIP3    H262954   3.719   4.675   1.303 -2.1035 -3.3105  0.0314
13847TIP3   OH262955   2.742   2.702   2.378 -0.1484 -0.1481 -0.0428
13847TIP3    H162956   2.722   2.652   2.299 -1.2240 -2.1633  1.3923
13847TIP3    H262957   2.662   2.750   2.398  0.2656  0.7097 -0.3910
13848TIP3   OH262958   0.403   0.571  12.185  0.1093  0.3495  0.1594
13848TIP3    H162959   0.497   0.588  12.193  0.5738 -2.0036  0.3120
13848TIP3    H262960   0.362   0.636  12.243  1.6993  0.7470  0.8903
13849TIP3   OH262961   2.083   1.154   5.717 -0.1100 -0.5224  0.0934
13849TIP3    H162962   2.098   1.060   5.730  0.5218 -0.1882  2.3069
13849TIP3    H262963   2.030   1.180   5.793 -1.6501  0.6465 -1.3174
13850TIP3   OH262964   3.689   6.557  17.132  0.5305 -0.1279 -0.5763
13850TIP3    H162965   3.766   6.506  17.109  0.2191 -0.6050 -0.5760
13850TIP3    H262966   3.615   6.501  17.108  0.1860 -0.2987  0.7801
13851TIP3   OH262967   5.725   5.868   4.607 -0.1378 -0.6621  0.0631
13851TIP3    H162968   5.681   5.941   4.562 -0.4387 -0.6024  0.4363
13851TIP3    H262969   5.800   5.847   4.552 -1.7504 -2.1491 -1.7134
13852TIP3   OH262970   5.651   6.668   5.125  0.3801  0.2441 -0.5403
13852TIP3    H162971   5.746   6.673   5.115  0.8366 -0.1300  2.6360
13852TIP3    H262972   5.629   6.576   5.107  0.6396  0.2877 -1.0809
13853TIP3   OH262973   3.960   2.765  11.848 -0.2048 -0.1701  0.3028
13853TIP3    H162974   3.901   2.724  11.785  0.5596 -1.4992  0.4219
13853TIP3    H262975   3.915   2.845  11.874 -1.1539 -0.2745 -0.9076
13854TIP3   OH262976   0.254   2.884  13.909  0.2519 -0.0128 -0.0473
13854TIP3    H162977   0.159   2.895  13.921  0.0539 -0.8522 -0.7680
13854TIP3    H262978   0.276   2.946  13.839 -0.2565 -1.6262 -1.7160
13855TIP3   OH262979   6.378   2.407   2.603 -0.4570 -0.2929 -0.2185
13855TIP3    H162980   6.473   2.414   2.617 -0.6076 -1.2762  1.5866
13855TIP3    H262981   6.361   2.463   2.528  1.3672  1.0030  0.2618
13856TIP3   OH262982   0.440   0.516   3.010 -0.1238  0.1789  0.6500
13856TIP3    H162983   0.418   0.596   3.056  0.6141  0.2889  0.8221
13856TIP3    H262984   0.484   0.461   3.075 -1.2475 -0.6681  0.7331
13857TIP3   OH262985   6.448   0.900  16.914 -0.3706 -0.2655  0.2761
13857TIP3    H162986   6.417   0.970  16.857  2.5492 -0.4297 -1.7174
13857TIP3    H262987   6.413   0.820  16.874  0.3787 -0.2705 -0.3806
13858TIP3   OH262988   4.439   0.383   5.878 -0.5097 -0.3564  0.4283
13858TIP3    H162989   4.422   0.355   5.968 -0.4009 -1.2567  0.1797
13858TIP3    H262990   4.368   0.343   5.827 -0.1209 -0.5116  0.0055
13859TIP3   OH262991   2.855   5.395  14.368 -0.0259  0.6813 -0.6067
13859TIP3    H162992   2.809   5.461  14.315  0.0941 -1.1142 -3.1329
13859TIP3    H262993   2.938   5.383  14.323 -0.8110 -2.5218 -1.4492
13860TIP3   OH262994   2.719   0.051   0.801 -0.0034  0.2080  0.0735
13860TIP3    H162995   2.674   0.113   0.859  0.6142  0.8204 -0.0951
13860TIP3    H262996   2.809   0.082   0.797 -0.0397  0.2113 -1.2432
13861TIP3   OH262997   1.123   2.533  11.789  0.3855  0.0354  0.2847
13861TIP3    H162998   1.082   2.448  11.770 -0.9394  0.3024  1.7377
13861TIP3    H262999   1.070   2.596  11.741 -0.4861  0.3059  1.5541
13862TIP3   OH263000   1.892   2.582  11.628 -0.8999  0.5935 -0.2607
13862TIP3    H163001   1.975   2.620  11.657 -0.5353  0.0654 -0.5921
13862TIP3    H263002   1.884   2.610  11.536 -0.4431 -0.4246 -0.6213
13863TIP3   OH263003   1.320   3.699   2.758  1.0354 -0.6430  0.0564
13863TIP3    H163004   1.413   3.679   2.770  1.2185  0.7730  1.2935
13863TIP3    H263005   1.284   3.705   2.847 -0.0165 -0.2096 -0.3759
13864TIP3   OH263006   1.852   1.749  16.215 -0.0724  0.0932 -0.6066
13864TIP3    H163007   1.779   1.730  16.156 -0.0135 -1.2977 -0.2838
13864TIP3    H263008   1.869   1.665  16.260  1.1842  0.5959 -0.0811
13865TIP3   OH263009   5.058   3.601  15.963 -0.0905  0.6249  0.6755
13865TIP3    H163010   5.007   3.679  15.986 -0.6280  0.8808 -1.1560
13865TIP3    H263011   5.072   3.609  15.868  0.3957 -1.1980  0.5503
13866TIP3   OH263012   5.121   5.980  17.152  0.0198 -0.0383  0.2096
13866TIP3    H163013   5.140   6.027  17.071 -1.1771  0.9147  0.4531
13866TIP3    H263014   5.197   5.998  17.208 -0.9044  2.7146  0.7536
13867TIP3   OH263015   6.369   3.517  10.894  0.2972  0.1767  0.4248
13867TIP3    H163016   6.298   3.490  10.835  1.0726 -1.8366  0.3287
13867TIP3    H263017   6.421   3.578  10.841 -0.2960  0.1710 -0.1853
13868TIP3   OH263018   5.959   3.555   6.431  0.2798 -0.5496 -0.0230
13868TIP3    H163019   5.983   3.496   6.502 -0.5463  1.5113  2.0773
13868TIP3    H263020   6.036   3.611   6.419  1.0919 -1.9525 -2.0619
13869TIP3   OH263021   4.396   1.116  16.904  0.4714  0.0536  0.1439
13869TIP3    H163022   4.425   1.194  16.858 -0.1133  1.4383  2.0079
13869TIP3    H263023   4.477   1.068  16.923  0.9820  0.9587  0.2918
13870TIP3   OH263024   4.070   0.013   5.309 -0.2588 -0.2005  0.0812
13870TIP3    H163025   4.052   0.005   5.215 -0.0581 -0.0379  0.0301
13870TIP3    H263026   4.158   0.048   5.314 -0.1372 -0.5344  0.3351
13871TIP3   OH263027   6.010   6.595   6.568  0.6417  0.5042  0.0167
13871TIP3    H163028   6.075   6.627   6.505  1.1233 -0.9445 -0.2536
13871TIP3    H263029   6.043   6.510   6.596 -1.1570 -0.2864 -0.1479
13872TIP3   OH263030   2.714   1.052  13.294  0.2296  0.4128 -0.5208
13872TIP3    H163031   2.759   1.105  13.228  1.0999  1.9964  1.2498
13872TIP3    H263032   2.633   1.100  13.312  0.1831  0.1960 -0.1543
13873TIP3   OH263033   0.436   1.144  14.646 -0.0493 -0.5659  0.0937
13873TIP3    H163034   0.433   1.156  14.551  0.6583  0.3445  0.1706
13873TIP3    H263035   0.427   1.233  14.682 -1.5014 -1.0242  0.9156
13874TIP3   OH263036   3.362   6.640  15.390 -0.1127 -0.1477  0.1548
13874TIP3    H163037   3.336   6.644  15.298  0.2337 -0.9895  0.0052
13874TIP3    H263038   3.388   6.729  15.412  0.2144 -0.0244 -0.6913
13875TIP3   OH263039   6.652   5.839  13.912 -0.1072  0.1235 -0.0280
13875TIP3    H163040   6.736   5.884  13.911 -0.1299  0.1686  0.0082
13875TIP3    H263041   6.668   5.756  13.869 -0.4118  0.7797 -1.4560
13876TIP3   OH263042   1.077   1.219   1.074  0.1478 -0.2168  0.3017
13876TIP3    H163043   1.001   1.255   1.121 -0.2760 -1.1493  0.3631
13876TIP3    H263044   1.113   1.155   1.134  0.0856 -0.8471 -0.3253
13877TIP3   OH263045   0.484   0.907   1.662  0.1965 -0.2396 -0.4404
13877TIP3    H163046   0.460   0.934   1.573 -0.1471 -0.9403 -0.5732
13877TIP3    H263047   0.400   0.903   1.708  0.4752  1.1653  0.2301
13878TIP3   OH263048   2.619   4.946   4.535 -0.1312  0.1395  0.8529
13878TIP3    H163049   2.539   4.916   4.578  1.0385  0.1512  3.1896
13878TIP3    H263050   2.652   5.017   4.591  0.5260  1.5015 -1.1128
13879TIP3   OH263051   5.815   4.484  12.460 -0.0859  0.1333 -0.3455
13879TIP3    H163052   5.905   4.511  12.478 -0.6466  0.9407  1.5250
13879TIP3    H263053   5.793   4.527  12.378  1.5984 -1.0604 -1.4989
13880TIP3   OH263054   4.711   1.648  15.195  0.2998 -0.2296 -0.1699
13880TIP3    H163055   4.798   1.651  15.156  1.0335 -0.0292  1.3923
13880TIP3    H263056   4.726   1.666  15.288 -1.5450  1.0816 -0.0694
13881TIP3   OH263057   6.448   3.706   1.873 -0.0470 -0.2400 -0.3714
13881TIP3    H163058   6.505   3.771   1.914  0.2467 -0.1664 -0.8814
13881TIP3    H263059   6.453   3.726   1.779  0.4489 -1.3192 -0.5847
13882TIP3   OH263060   0.377   2.513  11.590  0.5265 -0.3056  0.2562
13882TIP3    H163061   0.284   2.530  11.604  0.5608  1.0614 -0.9552
13882TIP3    H263062   0.398   2.559  11.509  2.4596  0.1422  0.9587
13883TIP3   OH263063   1.307   1.007   3.309  0.5025 -0.2446 -0.4523
13883TIP3    H163064   1.366   0.944   3.268  1.9496  0.4468  0.4986
13883TIP3    H263065   1.362   1.057   3.369 -0.6700  1.6860 -0.8849
13884TIP3   OH263066   6.186   4.634  12.941  0.0862 -0.0695  0.0685
13884TIP3    H163067   6.106   4.614  12.892  0.4271 -1.5816  0.0977
13884TIP3    H263068   6.165   4.609  13.031  0.1484  0.8128  0.3375
13885TIP3   OH263069   1.122   1.159  10.913 -0.3051  0.0920 -0.4865
13885TIP3    H163070   1.052   1.224  10.912  1.5406  2.2266  0.4829
13885TIP3    H263071   1.195   1.201  10.866  0.2260 -2.2462 -1.9102
13886TIP3   OH263072   2.220   6.179  10.666  0.0846  0.1997 -0.0630
13886TIP3    H163073   2.219   6.084  10.676  0.1872  0.3235  1.4101
13886TIP3    H263074   2.311   6.199  10.642 -0.2125 -0.1443 -1.5979
13887TIP3   OH263075   2.147   2.485   1.327 -0.3362  0.6581 -0.2836
13887TIP3    H163076   2.236   2.495   1.361 -0.4943  0.7020  0.1255
13887TIP3    H263077   2.142   2.547   1.255 -0.0656  0.7285 -0.2444
13888TIP3   OH263078   1.835   0.906   1.929  0.9516 -0.2949  0.5480
13888TIP3    H163079   1.830   0.831   1.988  2.1053  0.5917  1.8645
13888TIP3    H263080   1.829   0.982   1.988  0.1556  0.6430 -0.7015
13889TIP3   OH263081   1.011   5.237   4.142  0.0384  0.6959 -0.5738
13889TIP3    H163082   1.038   5.174   4.208 -1.8873  0.8502  0.4396
13889TIP3    H263083   1.093   5.274   4.109  1.0848 -0.0255  1.0944
13890TIP3   OH263084   4.775   4.052   1.103  0.2147 -0.1785 -0.4580
13890TIP3    H163085   4.846   4.050   1.039  0.7883  0.0331  0.1536
13890TIP3    H263086   4.730   4.135   1.086  0.4858 -0.0312 -0.4603
13891TIP3   OH263087   2.990   6.317  15.482  0.0340 -0.4120  0.0377
13891TIP3    H163088   3.038   6.316  15.399 -1.3039 -1.5777 -0.7536
13891TIP3    H263089   2.997   6.228  15.515 -0.4979 -0.2615  0.5673
13892TIP3   OH263090   2.320   4.076   6.133 -1.3817  0.6709 -0.1019
13892TIP3    H163091   2.259   4.060   6.206 -0.7436 -1.9274 -0.0403
13892TIP3    H263092   2.397   4.114   6.174 -0.7758 -1.3535  0.7578
13893TIP3   OH263093   0.628   2.866  12.791  0.0990 -0.0633  0.3889
13893TIP3    H163094   0.534   2.858  12.774 -0.1553 -1.1791  2.0228
13893TIP3    H263095   0.669   2.803  12.731 -0.0880  1.0180 -0.9126
13894TIP3   OH263096   0.259   5.562   4.876  0.2445  0.0696  0.2294
13894TIP3    H163097   0.195   5.492   4.872  1.3058 -0.9762  0.9644
13894TIP3    H263098   0.282   5.569   4.969  1.4201  0.2073 -0.0573
13895TIP3   OH263099   3.769   3.687  12.988 -0.2502  0.4124  0.0855
13895TIP3    H163100   3.675   3.678  12.971 -0.3954  1.7250  0.0865
13895TIP3    H263101   3.774   3.717  13.079  0.2406 -0.7784  0.4698
13896TIP3   OH263102   1.568   5.685   4.010 -0.3470  0.0077  0.3173
13896TIP3    H163103   1.633   5.730   4.063 -1.4604 -0.0202  1.7856
13896TIP3    H263104   1.485   5.702   4.054 -1.3292 -0.0810 -1.4049
13897TIP3   OH263105   5.270   1.008   0.941  0.2349 -0.1233 -0.3024
13897TIP3    H163106   5.224   1.057   0.873  0.7103  1.6744  0.6145
13897TIP3    H263107   5.238   1.045   1.023  1.2537 -0.7667  0.4075
13898TIP3   OH263108   1.877   4.243  13.092 -0.0056 -0.1714 -0.1406
13898TIP3    H163109   1.820   4.199  13.029 -0.3680  1.1340 -0.7608
13898TIP3    H263110   1.908   4.321  13.046  3.3691 -1.4458 -0.3441
13899TIP3   OH263111   4.014   4.351   2.075  0.1521  0.5493 -0.4560
13899TIP3    H163112   4.102   4.315   2.086 -0.1111 -0.2093 -0.8069
13899TIP3    H263113   3.955   4.277   2.091 -0.4796  1.3290  1.0234
13900TIP3   OH263114   2.501   0.385   3.239  0.1620  0.1358  0.1970
13900TIP3    H163115   2.465   0.452   3.298 -1.3782 -1.4995  1.2394
13900TIP3    H263116   2.429   0.366   3.179  0.6464 -0.4176 -0.2110
13901TIP3   OH263117   2.138   4.662  16.772 -0.0123  0.1514  0.0147
13901TIP3    H163118   2.195   4.661  16.696 -0.2950 -1.6129 -0.2345
13901TIP3    H263119   2.057   4.620  16.742  0.4818 -2.2336  1.6624
13902TIP3   OH263120   3.250   5.255  12.451 -0.6176  0.2352 -0.5019
13902TIP3    H163121   3.281   5.177  12.498  0.9566  1.0760 -0.0854
13902TIP3    H263122   3.255   5.231  12.359 -0.0392 -0.1287 -0.3826
13903TIP3   OH263123   2.962   1.727   3.019  0.3322  0.2291 -0.7834
13903TIP3    H163124   2.880   1.711   2.973 -0.3781 -0.9872  0.8019
13903TIP3    H263125   2.946   1.806   3.070 -0.3852 -0.7338  0.5591
13904TIP3   OH263126   3.972   3.007   0.349 -0.4345  0.3858  0.7735
13904TIP3    H163127   4.021   2.939   0.395 -1.8925 -0.7818  0.6948
13904TIP3    H263128   4.034   3.043   0.286  0.8754  0.3173  1.9766
13905TIP3   OH263129   1.280   6.409   5.204  0.1968 -0.1533 -0.4651
13905TIP3    H163130   1.364   6.387   5.164 -0.2893 -2.8774 -0.1533
13905TIP3    H263131   1.277   6.357   5.284 -1.6449  0.1179 -0.3226
13906TIP3   OH263132   0.323   4.795  14.856 -0.0643  0.0846 -0.1665
13906TIP3    H163133   0.387   4.829  14.793  0.0335 -1.6560 -1.0728
13906TIP3    H263134   0.362   4.812  14.941  1.6640 -0.9273 -0.6992
13907TIP3   OH263135   5.529   1.553   0.477 -0.4196  0.3213  0.1638
13907TIP3    H163136   5.596   1.488   0.498 -0.0169  0.7344  0.1470
13907TIP3    H263137   5.577   1.634   0.461 -0.8397  0.3698 -0.9092
13908TIP3   OH263138   0.111   0.726  11.683  0.3698 -0.6940  0.1172
13908TIP3    H163139   0.139   0.649  11.732  1.6965 -0.6032 -0.4525
13908TIP3    H263140   0.184   0.787  11.690  0.7884 -0.8096 -2.2578
13909TIP3   OH263141   3.421   0.306   3.129 -0.0574 -0.2003  0.7688
13909TIP3    H163142   3.437   0.400   3.142  0.6358  0.0449 -1.3515
13909TIP3    H263143   3.351   0.285   3.190 -0.4551  1.7811  1.0812
13910TIP3   OH263144   4.184   0.263   3.721  0.3996  0.1522 -0.0488
13910TIP3    H163145   4.205   0.346   3.679 -2.3396  1.4315  0.8797
13910TIP3    H263146   4.182   0.199   3.649  1.4624  1.1003 -0.9459
13911TIP3   OH263147   5.510   3.797   6.025 -0.2519 -0.3028 -0.1759
13911TIP3    H163148   5.551   3.718   6.059 -0.7452 -0.5718 -0.2122
13911TIP3    H263149   5.490   3.849   6.102  2.5947  1.0797 -0.2146
13912TIP3   OH263150   3.369   3.180  16.703 -0.0533  0.3249  0.2712
13912TIP3    H163151   3.288   3.171  16.654  0.9024 -1.5725 -1.1048
13912TIP3    H263152   3.417   3.099  16.686  1.9075  1.1420  1.4629
13913TIP3   OH263153   5.554   5.972   5.778 -0.6960 -0.2597  0.3399
13913TIP3    H163154   5.536   5.895   5.723 -0.7839 -0.3526  0.4979
13913TIP3    H263155   5.468   6.013   5.790 -0.9929 -1.2596  1.9286
13914TIP3   OH263156   2.252   5.441   5.524  0.1787 -0.2903  0.8779
13914TIP3    H163157   2.320   5.436   5.457  1.3212 -1.7969  2.0652
13914TIP3    H263158   2.206   5.357   5.518 -0.8569  0.2579  0.8465
13915TIP3   OH263159   0.693   1.451   1.869  0.5203 -0.0703 -0.6632
13915TIP3    H163160   0.626   1.439   1.937  1.1646  1.0087  0.1881
13915TIP3    H263161   0.644   1.487   1.795  0.3868  2.6313  0.6184
13916TIP3   OH263162   3.366   3.375   4.023  0.4065  0.1152 -0.5015
13916TIP3    H163163   3.272   3.396   4.029  0.4149 -0.1241  1.2245
13916TIP3    H263164   3.370   3.281   4.044  1.0788  0.2942  0.2187
13917TIP3   OH263165   1.500   2.660  14.143  0.0603  0.2517 -0.0006
13917TIP3    H163166   1.537   2.694  14.062 -1.2727 -1.6006 -1.4819
13917TIP3    H263167   1.557   2.588  14.168  0.4893  0.8409  0.7579
13918TIP3   OH263168   4.530   5.222   4.460 -0.6346 -0.1956  0.1417
13918TIP3    H163169   4.436   5.238   4.469 -0.4626  0.0428  2.1101
13918TIP3    H263170   4.568   5.308   4.441 -0.7786 -0.2316 -0.3113
13919TIP3   OH263171   0.671   6.445   1.592 -0.2115 -0.3803 -0.0853
13919TIP3    H163172   0.702   6.355   1.580 -0.4143 -0.5820  0.8151
13919TIP3    H263173   0.703   6.469   1.680 -0.0966  0.4527 -0.3483
13920TIP3   OH263174   0.772   0.547  15.230  0.3214  0.0730  0.0554
13920TIP3    H163175   0.810   0.507  15.308  0.8807 -0.3807 -0.4516
13920TIP3    H263176   0.718   0.478  15.191  0.9732 -0.0675 -0.6026
13921TIP3   OH263177   4.168   0.254  15.084  0.1127 -0.8820  0.3777
13921TIP3    H163178   4.175   0.275  14.991  0.1416 -0.4192  0.4834
13921TIP3    H263179   4.100   0.186  15.087  1.7830 -2.7074 -0.2380
13922TIP3   OH263180   2.700   4.043  11.887 -0.3493 -0.7404  0.1512
13922TIP3    H163181   2.671   4.124  11.845  0.8757  0.1662  0.9960
13922TIP3    H263182   2.631   4.022  11.950 -1.2250 -1.0141 -0.8574
13923TIP3   OH263183   5.398   3.853   1.034  0.6061  0.1931  0.3316
13923TIP3    H163184   5.463   3.789   1.005  0.3475  0.6317 -1.3184
13923TIP3    H263185   5.447   3.934   1.042  0.5465  0.2143  0.4735
13924TIP3   OH263186   1.801   0.780  17.216 -0.2027  0.1547 -0.4059
13924TIP3    H163187   1.881   0.765  17.267 -1.3674  0.0537  1.4883
13924TIP3    H263188   1.750   0.700  17.229 -0.6522  0.2551 -1.5243
13925TIP3   OH263189   0.880   1.228   2.893  0.1792  0.2418  0.0358
13925TIP3    H163190   0.875   1.162   2.963  0.8412  0.6202  0.4530
13925TIP3    H263191   0.792   1.264   2.888 -0.6792 -1.9067 -1.4383
13926TIP3   OH263192   1.055   5.168  15.613 -0.4806  0.7350 -0.1419
13926TIP3    H163193   1.137   5.216  15.623 -0.0370 -0.2894  1.5147
13926TIP3    H263194   1.049   5.115  15.692 -1.3287 -1.3608 -1.5442
13927TIP3   OH263195   0.974   3.231  16.864 -0.4591  0.0651 -0.2252
13927TIP3    H163196   0.975   3.278  16.947 -0.4870  0.8963 -0.6850
13927TIP3    H263197   0.964   3.139  16.889  2.0807  0.0042  0.8101
13928TIP3   OH263198   6.716   4.176  12.032 -0.3815  0.3797 -0.5124
13928TIP3    H163199   6.810   4.169  12.052 -0.4380 -0.1963 -0.4177
13928TIP3    H263200   6.706   4.263  11.994  0.6259 -0.4484 -2.8549
13929TIP3   OH263201   1.196   2.516   4.577 -0.2422 -0.2257  0.5308
13929TIP3    H163202   1.229   2.446   4.634 -0.2776  0.3794  1.3049
13929TIP3    H263203   1.215   2.485   4.489 -0.8408 -1.5139  0.8305
13930TIP3   OH263204   4.041   0.407  17.064  0.0681  0.0646  0.1266
13930TIP3    H163205   4.063   0.497  17.038 -0.2317 -0.4245 -1.9532
13930TIP3    H263206   4.009   0.366  16.984  0.0588 -1.8712  1.0728
13931TIP3   OH263207   4.584   1.214  15.077  0.1322  0.2976  0.3692
13931TIP3    H163208   4.558   1.287  15.133 -2.5110 -0.6616  0.5605
13931TIP3    H263209   4.576   1.248  14.988  1.8523  1.0633  0.4621
13932TIP3   OH263210   2.908   4.319   1.075 -0.2760 -0.3259 -0.3813
13932TIP3    H163211   2.836   4.265   1.043 -2.1228  1.6330  0.2805
13932TIP3    H263212   2.928   4.379   1.003  0.8529 -0.9603 -0.6244
13933TIP3   OH263213   0.563   2.956   1.899  0.3692 -1.7738 -0.9095
13933TIP3    H163214   0.514   3.009   1.962 -1.0783 -2.0594 -1.7751
13933TIP3    H263215   0.654   2.982   1.913  0.0860 -1.7387  1.2140
13934TIP3   OH263216   2.189   0.581  15.866 -0.1307  0.3246 -0.2180
13934TIP3    H163217   2.269   0.633  15.872  0.4421 -0.2932 -1.9523
13934TIP3    H263218   2.220   0.491  15.854 -1.1088 -0.2265  1.1658
13935TIP3   OH263219   1.201   3.408   2.907  0.1537 -0.1824  0.4348
13935TIP3    H163220   1.111   3.403   2.873 -0.1697 -1.3625  1.3869
13935TIP3    H263221   1.204   3.491   2.954 -0.7237 -0.5104  1.1106
13936TIP3   OH263222   1.009   0.184   3.199 -0.8254 -0.2365 -0.0312
13936TIP3    H163223   1.081   0.122   3.211 -1.8798 -1.3095  1.0113
13936TIP3    H263224   0.996   0.222   3.286  0.0995  1.8655 -0.7270
13937TIP3   OH263225   5.693   6.374  11.624 -0.1606  0.3845  0.2117
13937TIP3    H163226   5.752   6.368  11.699 -1.7849 -0.0869  1.5383
13937TIP3    H263227   5.750   6.378  11.548  1.6601  3.0631  1.5489
13938TIP3   OH263228   1.721   1.661  14.810  0.0281  0.2239  0.0953
13938TIP3    H163229   1.679   1.588  14.856  2.5878  0.5403  3.2615
13938TIP3    H263230   1.657   1.732  14.816 -1.5346 -1.0264 -0.9393
13939TIP3   OH263231   1.248   5.539   3.279 -0.5949 -0.3462 -0.7824
13939TIP3    H163232   1.277   5.455   3.244  1.0118 -0.3117  0.3614
13939TIP3    H263233   1.298   5.549   3.361 -0.3838  1.9241 -1.1369
13940TIP3   OH263234   4.429   2.956   2.393 -0.5747  0.1909  0.6338
13940TIP3    H163235   4.443   2.870   2.353 -1.9477 -0.0059  0.5333
13940TIP3    H263236   4.517   2.992   2.404  0.2162 -2.0779  2.6054
13941TIP3   OH263237   2.671   1.959  11.789  0.9133 -0.5165 -0.0057
13941TIP3    H163238   2.718   2.042  11.793  1.2080 -0.6014 -1.1561
13941TIP3    H263239   2.586   1.977  11.829  1.3044  0.0980  0.5532
13942TIP3   OH263240   0.417   1.771  12.752  0.2094  0.2134 -0.1112
13942TIP3    H163241   0.336   1.725  12.730  0.2412 -0.3323  0.8323
13942TIP3    H263242   0.482   1.701  12.763  0.4044  0.5122  0.7350
13943TIP3   OH263243   5.160   0.477   1.097  0.1828  0.0041  0.1739
13943TIP3    H163244   5.163   0.383   1.115 -0.3342 -0.5531 -2.3417
13943TIP3    H263245   5.247   0.499   1.066  0.7215  0.7075  2.0400
13944TIP3   OH263246   5.618   0.400   4.084 -0.5038 -0.1666 -0.0266
13944TIP3    H163247   5.657   0.339   4.146 -0.5419 -2.0092 -1.7325
13944TIP3    H263248   5.614   0.352   4.001  3.1373  3.3822 -2.6519
13945TIP3   OH263249   4.565   2.644  13.041  0.2344  0.2964  0.0265
13945TIP3    H163250   4.531   2.559  13.070  0.0938 -0.3192 -1.8026
13945TIP3    H263251   4.505   2.671  12.971 -0.7515  2.7779  1.6948
13946TIP3   OH263252   0.198   1.805  13.440  0.2412 -0.4763 -0.2476
13946TIP3    H163253   0.173   1.843  13.356 -1.6178 -2.4606 -0.6860
13946TIP3    H263254   0.239   1.877  13.488 -0.4467  1.2351 -2.0935
13947TIP3   OH263255   0.069   4.639   2.689 -0.6735  0.0668 -0.0933
13947TIP3    H163256   0.042   4.694   2.615  1.9543 -0.9715 -1.9835
13947TIP3    H263257   0.015   4.560   2.681  0.1756 -0.4007 -1.4751
13948TIP3   OH263258   4.605   6.746   4.794 -0.6739  0.3570 -0.1468
13948TIP3    H163259   4.657   6.813   4.750 -1.0280 -0.0229 -1.1746
13948TIP3    H263260   4.627   6.665   4.749 -0.7900 -0.1058  0.6117
13949TIP3   OH263261   5.270   0.759  11.784  0.7573  0.1685 -0.3163
13949TIP3    H163262   5.175   0.760  11.776  0.6002 -0.8013  1.0489
13949TIP3    H263263   5.288   0.689  11.847  2.4534 -0.4335 -1.4093
13950TIP3   OH263264   6.684   3.395   3.418 -0.0137  0.2845 -0.6231
13950TIP3    H163265   6.624   3.429   3.485  1.5353  0.3143  0.8366
13950TIP3    H263266   6.759   3.363   3.469  1.3857  0.6362 -2.4067
13951TIP3   OH263267   2.695   6.549   3.366 -0.0938 -0.3231 -0.3048
13951TIP3    H163268   2.692   6.645   3.358  0.0229  0.0098  2.5253
13951TIP3    H263269   2.609   6.520   3.335 -0.5253  0.7978 -0.2256
13952TIP3   OH263270   4.011   5.760   3.828  0.1105  0.1440 -0.5193
13952TIP3    H163271   3.963   5.820   3.886 -0.0368 -1.0560  0.6404
13952TIP3    H263272   4.100   5.760   3.862  0.5071  0.9380 -1.5277
13953TIP3   OH263273   4.993   0.909  14.838  0.3208  0.1675  0.7578
13953TIP3    H163274   4.946   0.856  14.902 -0.5761  1.7517  1.4693
13953TIP3    H263275   5.038   0.976  14.890 -0.7504  1.7433 -0.2483
13954TIP3   OH263276   4.967   0.525   5.428 -0.1462 -0.4226  0.2030
13954TIP3    H163277   4.985   0.441   5.469 -1.9373 -1.0296 -0.1799
13954TIP3    H263278   4.882   0.552   5.464  0.4940  1.3645  0.5128
13955TIP3   OH263279   1.248   3.821  13.422  0.1538 -0.4985  0.0856
13955TIP3    H163280   1.313   3.857  13.361 -1.2987  0.1046 -1.1692
13955TIP3    H263281   1.258   3.726  13.414  2.2450 -0.4679  1.4739
13956TIP3   OH263282   5.025   2.588   4.728 -0.5722 -1.1540  0.2023
13956TIP3    H163283   5.032   2.611   4.821 -2.2251 -1.0483  0.3278
13956TIP3    H263284   4.976   2.505   4.728 -1.7943 -0.4710 -0.6038
13957TIP3   OH263285   6.062   3.081   0.982  0.2341 -0.8798  0.1511
13957TIP3    H163286   6.063   3.037   1.067  0.5868 -0.9426  0.1136
13957TIP3    H263287   6.095   3.169   1.001  0.0326 -0.7988  0.1307
13958TIP3   OH263288   4.736   2.926  13.362 -0.7049  0.0724 -0.5215
13958TIP3    H163289   4.675   2.946  13.291 -0.3123  0.8503 -0.6439
13958TIP3    H263290   4.823   2.935  13.323 -0.4945 -0.9240 -0.3193
13959TIP3   OH263291   3.773   1.452   6.209  0.2846  0.5386 -0.1367
13959TIP3    H163292   3.785   1.398   6.131 -3.2235  0.5656 -0.8476
13959TIP3    H263293   3.789   1.393   6.282 -2.0449 -1.1836 -0.9123
13960TIP3   OH263294   0.697   6.000  16.663  0.9128 -0.1282 -0.0206
13960TIP3    H163295   0.643   5.992  16.741  0.8597 -2.8438 -0.2251
13960TIP3    H263296   0.780   6.036  16.694 -0.1500  1.8489  0.6837
13961TIP3   OH263297   6.351   3.601  13.763  0.5164 -0.0225 -1.0488
13961TIP3    H163298   6.297   3.525  13.742  0.7539 -0.8285  1.0056
13961TIP3    H263299   6.345   3.656  13.686 -1.0298 -1.3451 -1.9544
13962TIP3   OH263300   6.749   5.906  13.549 -0.2904 -0.2556  0.4009
13962TIP3    H163301   6.762   5.811  13.539 -0.5084 -0.3013  0.5323
13962TIP3    H263302   6.837   5.942  13.550 -0.2233 -0.2187 -1.7563
13963TIP3   OH263303   6.262   1.736  14.911  0.9013  0.5055 -0.4296
13963TIP3    H163304   6.196   1.792  14.952  2.1116  1.5236  0.1743
13963TIP3    H263305   6.340   1.746  14.965  1.3575 -1.2688 -0.6953
13964TIP3   OH263306   0.202   2.909  13.483  0.1022  0.2375 -0.2902
13964TIP3    H163307   0.206   2.963  13.563 -0.1208 -1.0591  0.6354
13964TIP3    H263308   0.232   2.822  13.512 -0.1064 -0.2874 -1.5996
13965TIP3   OH263309   5.329   6.307   0.564 -0.7286 -0.0225  0.1697
13965TIP3    H163310   5.236   6.287   0.550 -0.3779 -0.5948 -1.4607
13965TIP3    H263311   5.376   6.232   0.527  0.3859 -0.2599  1.9390
13966TIP3   OH263312   6.050   4.671  11.698 -0.1143  0.2466 -0.1489
13966TIP3    H163313   6.030   4.579  11.716  0.3125 -0.4259 -2.7554
13966TIP3    H263314   5.967   4.706  11.665 -1.0310  1.5862  3.1855
13967TIP3   OH263315   0.341   5.025  15.090 -0.3151 -0.1446  0.1500
13967TIP3    H163316   0.369   4.969  15.163 -0.2313 -0.8023 -0.3714
13967TIP3    H263317   0.247   5.011  15.083 -0.0999 -1.2592 -0.8130
13968TIP3   OH263318   1.089   1.050  15.738 -0.1249  0.1847 -0.1538
13968TIP3    H163319   1.091   1.140  15.707  1.8529  0.2916  0.1208
13968TIP3    H263320   1.028   1.050  15.811 -0.1883  1.2947 -0.1993
13969TIP3   OH263321   4.713   4.491   0.020 -0.2333  0.3028 -0.3437
13969TIP3    H163322   4.751   4.436  -0.048  2.0331  0.7071  0.5144
13969TIP3    H263323   4.771   4.479   0.095 -1.8670  0.9452  1.0883
13970TIP3   OH263324   4.157   1.736   4.205  0.3467  0.3060  0.4013
13970TIP3    H163325   4.085   1.733   4.144  0.5121 -0.4730  0.2362
13970TIP3    H263326   4.219   1.798   4.167 -0.1545  0.8581  0.4693
13971TIP3   OH263327   0.242   3.577  14.358  0.3278 -0.1681 -0.0007
13971TIP3    H163328   0.336   3.582  14.339 -0.1859 -0.0385 -2.9754
13971TIP3    H263329   0.200   3.615  14.281 -2.1874  0.1488  1.4329
13972TIP3   OH263330   1.240   5.394   4.658  0.4338 -0.7841  0.2000
13972TIP3    H163331   1.180   5.337   4.609  0.9405 -1.0486 -0.1228
13972TIP3    H263332   1.249   5.351   4.743  0.2470 -0.8051  0.2088
13973TIP3   OH263333   5.647   3.639  12.997 -0.3748  0.4391 -0.4326
13973TIP3    H163334   5.707   3.712  12.988  0.7400 -0.3753  0.1359
13973TIP3    H263335   5.675   3.595  13.078 -2.7288  0.9426  0.7488
13974TIP3   OH263336   2.257   3.601  15.026 -0.1077  0.1773  0.0142
13974TIP3    H163337   2.197   3.636  15.092  0.6289  1.0104  0.2700
13974TIP3    H263338   2.201   3.575  14.953 -0.8265  0.4118  0.4733
13975TIP3   OH263339   0.201   3.517  10.828  0.1128 -0.1523 -0.1689
13975TIP3    H163340   0.252   3.437  10.837  0.8128 -0.1042 -2.8078
13975TIP3    H263341   0.118   3.498  10.871  1.3064 -1.1977  1.8229
13976TIP3   OH263342   5.660   2.893   3.752  0.1287 -0.7743 -0.0496
13976TIP3    H163343   5.575   2.934   3.764  0.5762  1.9406 -3.9539
13976TIP3    H263344   5.723   2.965   3.763  1.5781 -1.8997 -0.5910
13977TIP3   OH263345   3.329   0.009  14.096  0.1696  0.4504  0.1318
13977TIP3    H163346   3.393   0.028  14.027 -1.1847  1.8868 -0.7847
13977TIP3    H263347   3.337  -0.086  14.110  2.8705  0.6394  0.4868
13978TIP3   OH263348   4.341   5.753   5.873  0.0061 -0.2952  0.1713
13978TIP3    H163349   4.359   5.677   5.817  0.5783  0.7370 -1.1102
13978TIP3    H263350   4.421   5.804   5.870 -0.7822  0.9752 -0.0125
13979TIP3   OH263351   4.243   4.386  16.870  0.1939 -0.2570 -0.6965
13979TIP3    H163352   4.268   4.390  16.777  0.9598  3.3238 -0.4760
13979TIP3    H263353   4.179   4.315  16.874  1.4232 -1.7169 -3.5935
13980TIP3   OH263354   2.538   5.370   5.399  0.5234 -0.2144 -0.4569
13980TIP3    H163355   2.553   5.444   5.457 -0.7949 -0.6024  0.4451
13980TIP3    H263356   2.546   5.293   5.456 -0.9884 -0.5922 -0.7105
13981TIP3   OH263357   3.323   1.868  15.230  0.7643  0.2687  0.0609
13981TIP3    H163358   3.338   1.774  15.238  2.4118  0.4903 -0.1120
13981TIP3    H263359   3.408   1.908  15.247 -0.1033  1.7972  1.1008
13982TIP3   OH263360   3.763   4.082   3.159  0.7284  0.0078 -0.1963
13982TIP3    H163361   3.739   4.141   3.088 -0.2971 -1.6719 -1.3285
13982TIP3    H263362   3.684   4.031   3.176  1.8366 -1.7257  0.0197
13983TIP3   OH263363   5.100   5.096  12.671  0.4511  0.5625 -0.1150
13983TIP3    H163364   5.095   5.004  12.697  1.0513  0.5257 -0.1131
13983TIP3    H263365   5.035   5.105  12.601 -0.9847  0.5945  1.1736
13984TIP3   OH263366   4.616   3.195   4.108  0.3165 -0.7828 -0.0795
13984TIP3    H163367   4.557   3.154   4.044  1.2470 -1.5793 -0.4425
13984TIP3    H263368   4.560   3.257   4.155 -0.3859 -0.1633 -1.6697
13985TIP3   OH263369   1.033   2.422  15.993 -0.3694  0.4023  0.4410
13985TIP3    H163370   1.056   2.440  16.084  0.2824  2.9557 -0.1576
13985TIP3    H263371   1.115   2.434  15.945 -0.8052 -0.4412 -0.5646
13986TIP3   OH263372   3.082   1.426   2.422 -0.5218 -0.4500  0.3184
13986TIP3    H163373   3.128   1.405   2.504  1.2110 -0.6993 -0.6716
13986TIP3    H263374   3.097   1.519   2.409 -0.3643 -0.5136  0.0329
13987TIP3   OH263375   3.726   5.304   2.708  0.2204 -0.0350  0.0586
13987TIP3    H163376   3.744   5.347   2.624  0.6242  0.3678  0.3488
13987TIP3    H263377   3.639   5.336   2.733  0.4685  0.5289  0.2149
13988TIP3   OH263378   2.248   3.783   2.221 -0.2045  0.2168  0.3883
13988TIP3    H163379   2.304   3.775   2.298  4.4417 -1.4746 -2.7161
13988TIP3    H263380   2.211   3.695   2.209  0.2338  0.0861 -0.0347
13989TIP3   OH263381   5.430   2.147  14.855  0.3247 -0.6138 -0.0882
13989TIP3    H163382   5.522   2.138  14.828  0.4034  0.4016 -0.1832
13989TIP3    H263383   5.387   2.070  14.818  1.6109 -2.5249  2.0860
13990TIP3   OH263384   3.155   4.634   4.611 -0.2051  0.1290 -0.3696
13990TIP3    H163385   3.149   4.539   4.604  0.4941  0.0655 -0.2009
13990TIP3    H263386   3.082   4.667   4.558 -1.6496 -0.5141  1.1256
13991TIP3   OH263387   1.998   1.852  13.739 -0.0130  0.2534  0.3191
13991TIP3    H163388   2.066   1.919  13.741 -0.1432  0.4436 -0.7601
13991TIP3    H263389   1.934   1.879  13.804  0.9197  0.0832  1.3384
13992TIP3   OH263390   3.607   3.970   0.432  0.1133  0.1472  0.1661
13992TIP3    H163391   3.564   3.970   0.518  0.2535 -1.4187  0.2704
13992TIP3    H263392   3.591   4.058   0.397  0.5311  1.0149  2.0166
13993TIP3   OH263393   0.620   5.230   1.185 -0.0920 -0.0795  0.3079
13993TIP3    H163394   0.708   5.266   1.174 -0.8939  1.8426 -0.2365
13993TIP3    H263395   0.583   5.280   1.257 -0.8579 -0.6370  0.3074
13994TIP3   OH263396   1.171   3.341  15.827 -0.5025  0.1985 -0.2051
13994TIP3    H163397   1.151   3.271  15.889 -1.2330 -0.2271 -0.9085
13994TIP3    H263398   1.143   3.421  15.871 -1.4809 -0.1543 -0.1804
13995TIP3   OH263399   0.983   2.925   1.419 -0.0951 -0.0342 -0.0044
13995TIP3    H163400   1.020   2.836   1.426  1.7184  0.7733  1.7125
13995TIP3    H263401   1.038   2.969   1.354 -0.5548  0.0486 -0.3426
13996TIP3   OH263402   4.909   5.628  14.367 -0.0954 -0.2010 -0.0745
13996TIP3    H163403   4.895   5.665  14.454 -1.5010 -0.9125  0.0348
13996TIP3    H263404   4.971   5.688  14.325  0.3277  0.3457  1.2776
13997TIP3   OH263405   6.739   0.200  15.306  0.0038  0.5349 -0.0023
13997TIP3    H163406   6.782   0.123  15.344 -1.2061  0.5908  1.5977
13997TIP3    H263407   6.698   0.168  15.226 -0.7031 -0.5728  0.7789
13998TIP3   OH263408   6.190   0.753   0.526  0.2871 -0.8206 -0.5125
13998TIP3    H163409   6.226   0.674   0.486  1.6875  0.1141 -1.1677
13998TIP3    H263410   6.233   0.825   0.481 -0.2285  0.3153  0.7281
13999TIP3   OH263411   4.783   1.447  12.202  0.8088 -0.0053 -0.6335
13999TIP3    H163412   4.689   1.460  12.205  0.8642  0.1589  1.4860
13999TIP3    H263413   4.805   1.452  12.109 -1.3063 -0.4328 -1.1945
14000TIP3   OH263414   3.187   3.730   0.589 -0.0458 -0.2478 -0.4468
14000TIP3    H163415   3.215   3.766   0.505  1.1499 -0.8614 -0.3386
14000TIP3    H263416   3.243   3.774   0.653 -0.2977 -0.4701 -0.0749
14001TIP3   OH263417   4.910   1.905  11.545  0.5952 -0.5281 -0.3871
14001TIP3    H163418   4.911   1.850  11.467  0.5191  0.4985 -1.1376
14001TIP3    H263419   4.940   1.848  11.616  2.0188 -1.1059 -1.4207
14002TIP3   OH263420   6.762   4.090  16.474 -0.3026  0.2387 -0.0596
14002TIP3    H163421   6.674   4.086  16.437 -0.2871 -0.4389 -0.0436
14002TIP3    H263422   6.750   4.131  16.559 -0.2600  2.3333 -1.0036
14003TIP3   OH263423   2.952   1.136  11.529 -0.3115  0.3925  0.4047
14003TIP3    H163424   2.862   1.166  11.539 -0.9118 -1.4310  0.7076
14003TIP3    H263425   3.004   1.199  11.580 -1.7812 -0.4159  3.0424
14004TIP3   OH263426   6.336   4.272  16.159  0.8227  0.1445  0.2996
14004TIP3    H163427   6.273   4.310  16.098  0.8230  0.6995  0.6385
14004TIP3    H263428   6.293   4.193  16.193  0.2331  0.6207  0.6730
14005TIP3   OH263429   1.125   4.470  12.092 -0.2081 -0.1027  0.2985
14005TIP3    H163430   1.085   4.432  12.170 -0.3523 -0.7683 -0.0907
14005TIP3    H263431   1.122   4.400  12.027  0.8017  0.1221 -0.0078
14006TIP3   OH263432   1.105   4.408   1.046 -0.0534 -0.5776  0.1081
14006TIP3    H163433   1.176   4.467   1.020 -0.8531 -0.0834 -1.0492
14006TIP3    H263434   1.069   4.377   0.963 -0.7179 -1.4038  0.6940
14007TIP3   OH263435   4.578   1.763   2.702 -0.1993 -0.2117 -0.1440
14007TIP3    H163436   4.534   1.697   2.649 -0.3708  0.0357 -0.3110
14007TIP3    H263437   4.671   1.744   2.691 -0.2312 -0.1328 -0.5816
14008TIP3   OH263438   5.339   1.244   5.652 -0.3181 -0.2468 -0.8832
14008TIP3    H163439   5.307   1.154   5.642 -1.6946  0.2281 -1.0282
14008TIP3    H263440   5.261   1.298   5.641  0.2115  0.9031  0.5925
14009TIP3   OH263441   2.167   1.893  14.669 -0.3027  0.3200  0.0518
14009TIP3    H163442   2.258   1.922  14.659  0.1038 -0.0720  2.1803
14009TIP3    H263443   2.149   1.844  14.589  1.4606  0.1685 -0.2910
14010TIP3   OH263444   0.236   6.326   5.116  0.3475 -0.1912  0.0054
14010TIP3    H163445   0.169   6.322   5.185  0.1504 -2.4660 -0.2264
14010TIP3    H263446   0.302   6.386   5.151 -0.5182 -0.0238  1.4572
14011TIP3   OH263447   1.038   3.361  16.644 -0.7960 -0.0840  0.2799
14011TIP3    H163448   1.021   3.456  16.640  1.1622  0.3460  1.1559
14011TIP3    H263449   1.012   3.336  16.732  2.4992  0.5332  1.5508
14012TIP3   OH263450   5.605   6.414   3.931 -0.0786 -0.0920  0.3193
14012TIP3    H163451   5.517   6.375   3.930 -0.2785  0.3500  0.6700
14012TIP3    H263452   5.639   6.397   3.843 -0.0654 -1.2863  0.5309
14013TIP3   OH263453   0.687   6.462  15.313 -0.2135 -0.5395 -0.1387
14013TIP3    H163454   0.689   6.478  15.219 -0.1523 -0.4953 -0.1293
14013TIP3    H263455   0.716   6.371  15.322  1.6769  0.0407 -0.0228
14014TIP3   OH263456   6.027   5.423  12.265 -0.3776 -0.4978  0.3292
14014TIP3    H163457   6.042   5.517  12.277 -0.9434 -0.3018 -0.4356
14014TIP3    H263458   6.006   5.391  12.353 -0.8692  0.2216  0.4789
14015TIP3   OH263459   2.816   4.068  12.347 -0.5195  0.1709  0.4073
14015TIP3    H163460   2.743   4.043  12.404  0.2356  0.2266  1.4374
14015TIP3    H263461   2.874   3.992  12.348  0.4725  0.8916  1.3762
14016TIP3   OH263462   0.207   5.519   0.881  0.5453  0.0715  0.5533
14016TIP3    H163463   0.243   5.451   0.938  1.2521 -0.0690 -0.0414
14016TIP3    H263464   0.221   5.601   0.927  3.2190  0.2189 -0.3815
14017TIP3   OH263465   4.228   6.339   3.854 -0.0517 -0.2225 -0.2599
14017TIP3    H163466   4.306   6.384   3.824  0.2825  1.0424  2.2597
14017TIP3    H263467   4.159   6.405   3.848  0.1023  0.1849  1.9462
14018TIP3   OH263468   6.265   0.381   1.152 -0.5937 -0.3092  1.0265
14018TIP3    H163469   6.281   0.287   1.143 -1.8077 -0.6390  1.9886
14018TIP3    H263470   6.352   0.421   1.147 -0.2676 -1.1495 -2.4955
14019TIP3   OH263471   1.934   3.733   4.259  0.1315  0.5653  0.7522
14019TIP3    H163472   1.953   3.714   4.351  1.3754  0.9302  0.5806
14019TIP3    H263473   1.997   3.680   4.210  0.0552  1.0344  0.1363
14020TIP3   OH263474   5.938   5.394   3.840 -0.6822 -0.3420 -0.5411
14020TIP3    H163475   5.985   5.388   3.757 -0.5779 -0.4293 -0.4758
14020TIP3    H263476   5.891   5.477   3.835 -0.1763 -0.0505 -0.4237
14021TIP3   OH263477   0.052   2.528  11.941  0.1111 -0.7291 -0.0557
14021TIP3    H163478   0.032   2.447  11.987  0.8940 -1.2763 -0.6577
14021TIP3    H263479  -0.030   2.576  11.939 -0.4130 -1.6063  0.1028
14022TIP3   OH263480   4.018   5.541   4.908 -0.2909 -0.0991  0.3172
14022TIP3    H163481   4.079   5.563   4.979 -0.0269  0.5172 -0.0955
14022TIP3    H263482   3.933   5.534   4.951 -0.1670  0.4759  0.6630
14023TIP3   OH263483   2.213   0.938   5.335 -0.4882 -0.0353  0.8309
14023TIP3    H163484   2.297   0.982   5.344 -1.2764  1.5441  0.7265
14023TIP3    H263485   2.159   1.000   5.286 -1.2811 -1.6170 -0.3884
14024TIP3   OH263486   1.814   3.713   1.920 -0.4867  0.1782 -0.4755
14024TIP3    H163487   1.860   3.795   1.939  0.3878 -0.0980 -1.3498
14024TIP3    H263488   1.763   3.696   1.999 -0.9047  1.7083 -0.3807
14025TIP3   OH263489   4.526   0.223  16.368  0.2208 -0.6905  0.2826
14025TIP3    H163490   4.609   0.189  16.335  0.3328 -1.1720  1.0268
14025TIP3    H263491   4.459   0.170  16.324  0.2356  0.3990 -1.1287
14026TIP3   OH263492   2.241   1.343   3.322  0.0874  0.1002  0.0580
14026TIP3    H163493   2.335   1.355   3.306  0.2912 -1.5280 -0.1266
14026TIP3    H263494   2.235   1.318   3.414 -0.0451 -0.7194 -0.1586
14027TIP3   OH263495   5.748   2.488   1.980  0.0372  0.2263  0.2246
14027TIP3    H163496   5.739   2.530   2.065  0.7200  0.2756  0.2788
14027TIP3    H263497   5.818   2.424   1.992 -1.2622 -1.2468  0.2619
14028TIP3   OH263498   4.202   1.859   5.460 -0.2645 -0.0057  0.8887
14028TIP3    H163499   4.149   1.847   5.381  2.2653  0.6082 -1.0708
14028TIP3    H263500   4.242   1.774   5.475  0.6031  0.2890  0.3786
14029TIP3   OH263501   5.458   3.671   4.842  0.2880 -0.6060 -0.5950
14029TIP3    H163502   5.468   3.636   4.753 -1.3226 -0.8486 -0.7124
14029TIP3    H263503   5.391   3.615   4.882  0.8857 -0.4034  0.7295
14030TIP3   OH263504   5.095   0.782   4.541 -0.0179  0.0799 -0.5328
14030TIP3    H163505   5.161   0.808   4.606 -1.1561 -0.3267  0.8440
14030TIP3    H263506   5.033   0.854   4.540 -0.2041 -0.0818 -0.9186
14031TIP3   OH263507   2.857   4.144  13.192 -0.1259  0.6100  0.2056
14031TIP3    H163508   2.806   4.207  13.243 -0.4531 -1.7158  2.9704
14031TIP3    H263509   2.851   4.062  13.241  4.6518 -0.3535 -0.3059
14032TIP3   OH263510   2.390   4.638   0.779 -0.1055  0.1493 -0.0542
14032TIP3    H163511   2.462   4.575   0.782  0.4505  0.7943  0.7738
14032TIP3    H263512   2.426   4.712   0.731  0.7850  1.6062  2.6335
14033TIP3   OH263513   3.915   5.278  11.739  0.3085 -0.4363  0.0843
14033TIP3    H163514   3.831   5.234  11.734  0.5247 -0.7459 -1.3149
14033TIP3    H263515   3.893   5.371  11.745 -0.1325 -0.6018  1.1637
14034TIP3   OH263516   1.956   5.341  16.673 -0.0037  0.2524 -0.2534
14034TIP3    H163517   2.014   5.356  16.748 -2.4426  0.6692  1.6777
14034TIP3    H263518   1.945   5.246  16.670 -0.0142  0.2455 -0.0066
14035TIP3   OH263519   1.597   3.365  12.051 -0.6187  0.1162  0.4135
14035TIP3    H163520   1.672   3.315  12.083  0.8650  1.2617 -1.0808
14035TIP3    H263521   1.569   3.418  12.126 -1.0176 -1.5192  1.4545
14036TIP3   OH263522   6.493   3.776  11.366  0.3853  0.2940  0.3711
14036TIP3    H163523   6.537   3.707  11.317 -1.2354 -0.2633 -0.3664
14036TIP3    H263524   6.482   3.738  11.454 -0.1345 -0.2386  0.0837
14037TIP3   OH263525   5.522   0.927   2.960  0.2229  0.5626  0.6750
14037TIP3    H163526   5.446   0.912   2.904 -0.7744  2.3910  1.4405
14037TIP3    H263527   5.597   0.923   2.901 -0.5521 -0.2071 -0.2897
14038TIP3   OH263528   0.515   3.069   5.095  0.0873  0.4313 -0.4815
14038TIP3    H163529   0.528   3.099   5.185  1.4121  0.0905 -0.5369
14038TIP3    H263530   0.453   3.131   5.058  2.0355  2.5964 -0.3296
14039TIP3   OH263531   3.082   3.890  12.087  0.3167 -0.4162 -0.8033
14039TIP3    H163532   3.063   3.978  12.054 -0.1768 -0.1785  0.0885
14039TIP3    H263533   3.174   3.893  12.112  0.0187  0.1967  0.2707
14040TIP3   OH263534   2.035   0.844  11.794 -0.1584  0.3257 -0.6021
14040TIP3    H163535   2.072   0.911  11.737 -1.7363  0.4494 -1.5547
14040TIP3    H263536   1.994   0.893  11.865 -1.3120  0.4214 -1.2989
14041TIP3   OH263537   0.265   3.205   6.182  0.0439 -0.4630 -0.8785
14041TIP3    H163538   0.205   3.145   6.225 -0.4440  1.6021  1.5824
14041TIP3    H263539   0.311   3.248   6.254  1.6482  0.8303 -2.5802
14042TIP3   OH263540   0.151   2.928  16.466  0.5479 -0.5707  0.0539
14042TIP3    H163541   0.227   2.941  16.523  2.1812 -3.3628 -1.2456
14042TIP3    H263542   0.177   2.966  16.383 -0.5747  0.7497  0.2905
14043TIP3   OH263543   3.512   3.629  14.683 -0.0065 -0.0710 -0.0206
14043TIP3    H163544   3.419   3.609  14.675 -0.3564  0.8815  1.2647
14043TIP3    H263545   3.515   3.708  14.739  1.6412 -1.1622  1.5607
14044TIP3   OH263546   0.634   1.540   3.653 -1.0226 -0.4424 -0.5462
14044TIP3    H163547   0.564   1.500   3.704 -1.1635  1.8916  1.2687
14044TIP3    H263548   0.696   1.571   3.719  0.2143  0.1972 -1.9618
14045TIP3   OH263549   4.348   5.477  14.014  0.4317 -0.2593  0.0187
14045TIP3    H163550   4.378   5.403  14.066 -0.9905 -0.0120  1.2726
14045TIP3    H263551   4.424   5.534  14.006  1.7092 -2.0375 -1.4254
14046TIP3   OH263552   6.275   3.245  12.633  0.1569  0.7295 -0.0942
14046TIP3    H163553   6.304   3.237  12.724  1.8351 -0.1543 -0.6696
14046TIP3    H263554   6.232   3.162  12.614  0.0561  0.8035 -0.1869
14047TIP3   OH263555   6.714   1.581   4.822 -0.3044 -0.5122  0.0638
14047TIP3    H163556   6.646   1.517   4.801  0.3884 -0.9276 -0.9488
14047TIP3    H263557   6.782   1.530   4.866 -0.0077 -0.3661 -0.2220
14048TIP3   OH263558   1.253   6.130  12.542  0.2465  0.0873  0.1003
14048TIP3    H163559   1.201   6.100  12.617  0.5766 -1.2158 -0.1685
14048TIP3    H263560   1.192   6.181  12.489 -0.3358 -0.0856  0.5903
14049TIP3   OH263561   1.491   6.748   1.527 -0.4250 -0.4923 -0.0851
14049TIP3    H163562   1.585   6.733   1.533 -0.1590  0.2175 -1.9541
14049TIP3    H263563   1.481   6.842   1.543 -0.5711 -0.1941 -1.7550
14050TIP3   OH263564   2.269   0.053  12.315 -0.2329  0.5635 -0.0754
14050TIP3    H163565   2.354   0.088  12.287  0.2298 -0.6246 -0.2091
14050TIP3    H263566   2.206   0.120  12.289  0.2270 -0.0937 -3.3255
14051TIP3   OH263567   4.638   5.272   6.273 -0.1459 -0.1199  0.1003
14051TIP3    H163568   4.599   5.269   6.360 -1.0839 -2.3463 -0.3185
14051TIP3    H263569   4.636   5.181   6.243  1.4070  0.3782 -1.7136
14052TIP3   OH263570   1.455   6.095   4.309  0.4251  0.1653 -0.1525
14052TIP3    H163571   1.551   6.100   4.313  0.4148  1.1475 -0.8232
14052TIP3    H263572   1.437   6.065   4.220  0.0775  2.3648 -0.8957
14053TIP3   OH263573   4.827   1.745  14.538  0.2493 -0.0807  0.0806
14053TIP3    H163574   4.830   1.808  14.610  0.0626  0.6975 -0.5805
14053TIP3    H263575   4.893   1.679  14.561  0.3228  0.2617  0.8640
14054TIP3   OH263576   5.923   4.701  13.896  0.2307 -0.2400 -0.2373
14054TIP3    H163577   5.946   4.766  13.830  0.1005 -0.6285 -0.6809
14054TIP3    H263578   5.881   4.751  13.966  1.3329  0.3128  0.0402
14055TIP3   OH263579   0.093   5.649   1.802  0.1427 -0.2551 -0.4671
14055TIP3    H163580   0.080   5.636   1.896 -1.1279 -1.6061 -0.7989
14055TIP3    H263581   0.073   5.564   1.763 -2.0007  0.9387 -2.1958
14056TIP3   OH263582   5.395   1.637  16.383 -0.3062 -0.8521 -0.6174
14056TIP3    H163583   5.345   1.693  16.324 -1.2784 -0.3869  0.6006
14056TIP3    H263584   5.350   1.645  16.468  1.2883 -1.1416  0.3034
14057TIP3   OH263585   3.978   5.981   1.593  0.0580 -0.2548  0.0610
14057TIP3    H163586   4.037   5.907   1.600  0.5348  0.1385  0.2410
14057TIP3    H263587   4.020   6.051   1.644 -1.5972 -0.6206  2.1122
14058TIP3   OH263588   3.185   0.688   1.744 -0.0822  0.0697 -0.1672
14058TIP3    H163589   3.098   0.690   1.784 -0.0666  0.1397 -0.1357
14058TIP3    H263590   3.230   0.615   1.787 -0.8280 -1.3367 -1.6863
14059TIP3   OH263591   4.578   2.374  12.515  0.0983 -0.3458 -0.2389
14059TIP3    H163592   4.568   2.281  12.496  0.4971 -0.4205 -0.0841
14059TIP3    H263593   4.672   2.388  12.517  0.0446 -0.0837  0.4542
14060TIP3   OH263594   5.405   0.425   0.357 -0.7163  0.3471  0.1187
14060TIP3    H163595   5.322   0.427   0.309  0.1849 -0.9717 -1.5757
14060TIP3    H263596   5.397   0.349   0.415 -0.3110 -0.4292 -0.8195
14061TIP3   OH263597   1.448   2.532   0.935  0.1801  0.1738  0.0333
14061TIP3    H163598   1.357   2.506   0.921  0.3468  0.0211 -0.8497
14061TIP3    H263599   1.462   2.521   1.029 -0.7988  0.4933  0.2306
14062TIP3   OH263600   6.287   0.233  16.625 -0.1151  0.2107 -0.2798
14062TIP3    H163601   6.253   0.311  16.582  1.7409  2.7297  2.4241
14062TIP3    H263602   6.360   0.204  16.569  0.0202  1.2493 -0.6653
14063TIP3   OH263603   0.015   1.830  13.699 -0.9163  0.3360  0.2277
14063TIP3    H163604  -0.000   1.750  13.649  0.7644  0.4450 -0.5379
14063TIP3    H263605   0.003   1.901  13.635  0.6903  0.5005  0.0537
14064TIP3   OH263606   5.314   1.720  12.928  0.2372  0.2551 -0.1448
14064TIP3    H163607   5.350   1.669  12.855  1.3017  1.1427 -0.2712
14064TIP3    H263608   5.390   1.765  12.964 -0.6570  1.6765  0.0176
14065TIP3   OH263609   5.718   4.286  12.069 -0.4019  0.0446  0.3860
14065TIP3    H163610   5.631   4.246  12.058 -0.1946 -0.5689  0.9087
14065TIP3    H263611   5.726   4.345  11.995 -1.0827 -0.2368  0.0729
14066TIP3   OH263612   5.390   2.765  13.582  0.0230 -0.2647  0.6771
14066TIP3    H163613   5.334   2.688  13.582 -0.1854 -0.1124  0.0101
14066TIP3    H263614   5.465   2.741  13.528 -0.2581  0.1540  0.0937
14067TIP3   OH263615   2.518   1.378  13.027 -0.1396  0.9118 -0.5543
14067TIP3    H163616   2.537   1.427  13.107 -0.9489 -0.4475  0.5198
14067TIP3    H263617   2.426   1.352  13.037 -0.0512  0.1526 -1.6208
14068TIP3   OH263618   5.543   5.124   5.553 -0.1208  0.8571 -0.0086
14068TIP3    H163619   5.537   5.219   5.564  2.1810  1.1131 -0.5731
14068TIP3    H263620   5.475   5.104   5.489 -0.6789  2.1078  0.1568
14069TIP3   OH263621   6.750   1.711  15.669  0.3045 -0.2385  0.3637
14069TIP3    H163622   6.756   1.783  15.732  2.6371 -1.1677  1.2938
14069TIP3    H263623   6.666   1.669  15.689 -0.9467  1.9591  0.0158
14070TIP3   OH263624   4.339   6.641   3.560 -0.1942  0.3594  0.1947
14070TIP3    H163625   4.376   6.553   3.560 -1.2217 -0.1114  1.8198
14070TIP3    H263626   4.245   6.628   3.564 -0.4022  1.5449 -0.3664
14071TIP3   OH263627   4.410   0.228  14.584 -0.2822  0.2604 -0.0256
14071TIP3    H163628   4.387   0.315  14.550  3.0644  1.0761 -0.5308
14071TIP3    H263629   4.505   0.225  14.579 -0.2106 -2.9865  1.2279
14072TIP3   OH263630   2.319   5.557   3.226 -0.0503  0.1609  0.7582
14072TIP3    H163631   2.230   5.525   3.209  0.3172  0.7153 -3.1642
14072TIP3    H263632   2.305   5.645   3.261 -1.0262  0.0204  0.7750
14073TIP3   OH263633   2.140   0.421   0.916 -0.3440  0.1994 -0.1337
14073TIP3    H163634   2.073   0.471   0.963  0.2305  1.5072 -0.6683
14073TIP3    H263635   2.207   0.485   0.894  1.9323 -1.3472  1.8064
14074TIP3   OH263636   2.005   0.479  13.810  0.7776 -0.2767  0.0708
14074TIP3    H163637   2.043   0.395  13.784 -1.1836 -1.3754  0.5438
14074TIP3    H263638   1.922   0.456  13.852 -0.7525  1.9995 -1.4875
14075TIP3   OH263639   1.135   1.945   0.771  0.3786  0.0865 -0.0299
14075TIP3    H163640   1.217   1.937   0.722  1.1653  1.5524  0.9598
14075TIP3    H263641   1.152   1.901   0.854 -0.1381 -0.3409 -0.1452
14076TIP3   OH263642   2.502   0.652   6.632  0.0413  0.1981  0.2078
14076TIP3    H163643   2.480   0.741   6.660 -0.9265 -0.2787  1.0212
14076TIP3    H263644   2.536   0.663   6.543 -0.1074  1.3714  0.2792
14077TIP3   OH263645   0.591   2.539  14.490  0.2136  0.5811 -0.3323
14077TIP3    H163646   0.566   2.537  14.398 -0.1823 -0.6953 -0.2096
14077TIP3    H263647   0.602   2.448  14.515 -0.2796  0.8637  1.0462
14078TIP3   OH263648   1.473   0.331   6.192 -0.3424 -0.3178  0.5235
14078TIP3    H163649   1.560   0.363   6.172 -0.3508 -0.0300  0.9331
14078TIP3    H263650   1.464   0.344   6.287 -0.9260 -0.1032  0.4427
14079TIP3   OH263651   4.079   5.129   3.247 -0.3194 -0.0842 -0.2255
14079TIP3    H163652   3.999   5.091   3.210 -0.1210 -1.3563  0.6057
14079TIP3    H263653   4.079   5.100   3.338  1.2300 -0.3064 -0.2816
14080TIP3   OH263654   0.557   0.794   0.456 -0.2659 -0.1071  0.0234
14080TIP3    H163655   0.605   0.875   0.471 -0.8789  0.0565  1.1712
14080TIP3    H263656   0.507   0.810   0.376 -0.9855  0.9507  0.6634
14081TIP3   OH263657   4.413   6.142   6.202 -0.1527  0.5615 -0.0459
14081TIP3    H163658   4.485   6.094   6.161 -1.6029 -0.4519 -1.5009
14081TIP3    H263659   4.447   6.231   6.213  1.7704 -0.1955  0.5738
14082TIP3   OH263660   6.364   0.200   5.017 -0.6550  0.3549  0.1262
14082TIP3    H163661   6.304   0.219   5.089  0.0822  0.7579  0.6363
14082TIP3    H263662   6.428   0.139   5.054 -1.0825 -0.5590 -0.5878
14083TIP3   OH263663   5.418   6.066  14.276  0.4279  0.2275  0.2026
14083TIP3    H163664   5.361   6.143  14.283 -1.4508 -1.0162 -0.5990
14083TIP3    H263665   5.363   5.993  14.303  1.5239 -1.0900 -0.9959
14084TIP3   OH263666   5.706   5.490   2.536 -0.0684  0.3434  0.5576
14084TIP3    H163667   5.763   5.452   2.603 -0.3920  0.7194  1.0481
14084TIP3    H263668   5.757   5.563   2.501  0.9462 -1.0307 -1.0306
14085TIP3   OH263669   3.745   5.787   4.725  0.2172 -0.3984 -0.0075
14085TIP3    H163670   3.788   5.853   4.671  0.0867 -0.6955 -0.4776
14085TIP3    H263671   3.776   5.703   4.691 -1.0184 -0.6352 -0.6180
14086TIP3   OH263672   4.583   0.779   4.537 -0.6026 -0.2467 -0.5028
14086TIP3    H163673   4.677   0.788   4.550 -0.0509 -1.1186 -3.3606
14086TIP3    H263674   4.550   0.750   4.622  1.7468 -0.3704  0.4329
14087TIP3   OH263675   1.936   4.718  12.272  0.4960  0.3128 -0.4543
14087TIP3    H163676   1.889   4.798  12.248  2.3728  1.2667 -1.0985
14087TIP3    H263677   1.970   4.683  12.190 -1.3413 -1.9327 -0.3881
14088TIP3   OH263678   2.768   2.756  11.967 -0.0075 -0.4744  0.1990
14088TIP3    H163679   2.774   2.840  11.921  0.1807  0.1005  1.2386
14088TIP3    H263680   2.820   2.696  11.914  1.7867  0.6271  0.6225
14089TIP3   OH263681   3.284   3.415  16.301 -0.3589  0.3604 -0.6760
14089TIP3    H163682   3.280   3.322  16.322 -0.9411  0.2936 -1.0518
14089TIP3    H263683   3.195   3.448  16.318 -0.1515  0.8534 -0.5184
14090TIP3   OH263684   0.525   3.694  11.958  0.7397 -0.2584 -0.0791
14090TIP3    H163685   0.587   3.714  11.888 -0.2016 -2.2724 -1.5609
14090TIP3    H263686   0.579   3.658  12.028  1.5953  1.0435 -0.0346
14091TIP3   OH263687   2.930   0.467   2.941 -0.0603 -0.0742 -0.4670
14091TIP3    H163688   2.981   0.513   3.008 -0.6619  2.2840 -1.5112
14091TIP3    H263689   2.913   0.381   2.979  2.2750  0.0535  1.0714
14092TIP3   OH263690   0.408   3.079   0.023 -0.3937 -0.0334  0.3222
14092TIP3    H163691   0.399   3.098   0.117  0.6675 -3.6342  1.3304
14092TIP3    H263692   0.321   3.047  -0.003 -1.2513  2.7172 -0.5442
14093TIP3   OH263693   3.697   5.536   3.469 -0.4705 -0.6363 -0.0818
14093TIP3    H163694   3.757   5.468   3.439  0.0201 -0.4609  0.4788
14093TIP3    H263695   3.742   5.576   3.544 -0.2792  0.9706 -1.0164
14094TIP3   OH263696   4.886   2.528  10.894 -0.0411 -0.0200  0.2125
14094TIP3    H163697   4.832   2.512  10.816 -0.2239  0.3025  0.2737
14094TIP3    H263698   4.863   2.616  10.922 -0.5770 -0.4312  1.1123
14095TIP3   OH263699   2.698   6.084   7.114 -0.5761 -0.9100 -0.3220
14095TIP3    H163700   2.605   6.061   7.117 -1.3423  1.6190 -1.8871
14095TIP3    H263701   2.735   6.025   7.048 -0.9652 -2.1697  0.5566
14096TIP3   OH263702   0.512   6.025  16.002  0.1877 -0.5574  0.2198
14096TIP3    H163703   0.509   6.102  16.059  0.4855  0.9232 -1.6291
14096TIP3    H263704   0.574   6.049  15.933 -1.0393 -1.7411 -1.3689
14097TIP3   OH263705   0.622   5.409  12.859  0.2730  0.3370 -0.2201
14097TIP3    H163706   0.648   5.362  12.779 -0.4309  0.8664 -0.7795
14097TIP3    H263707   0.539   5.451  12.835 -0.6426 -0.5880  1.2293
14098TIP3   OH263708   3.621   3.887  11.784 -0.5136 -0.3018 -0.0420
14098TIP3    H163709   3.707   3.852  11.761 -1.7700 -1.6268 -3.3793
14098TIP3    H263710   3.631   3.920  11.873  3.5805  0.2263 -0.5404
14099TIP3   OH263711   1.618   3.455   1.727  0.6437  0.2009 -0.1451
14099TIP3    H163712   1.615   3.541   1.687  0.7161  0.1724 -0.2117
14099TIP3    H263713   1.620   3.394   1.654  0.5239  0.1401 -0.0985
14100TIP3   OH263714   5.068   0.033  15.665 -0.1423 -0.2341 -0.1609
14100TIP3    H163715   5.151   0.009  15.707 -0.4385 -2.5056 -0.7884
14100TIP3    H263716   5.002   0.018  15.733 -0.2151 -0.0036 -0.1797
14101TIP3   OH263717   6.378   6.084  15.313  0.5135 -0.0912  0.2499
14101TIP3    H163718   6.369   6.006  15.257  0.5959  0.2269 -0.2092
14101TIP3    H263719   6.472   6.101  15.315  0.6906 -1.0517  1.8115
14102TIP3   OH263720   5.332   1.952   1.816 -0.3384  0.8923 -0.0962
14102TIP3    H163721   5.407   2.007   1.835 -1.2987  1.5319  2.2283
14102TIP3    H263722   5.256   2.011   1.822 -1.3310 -0.4778  1.7408
14103TIP3   OH263723   4.387   6.164   3.205 -0.1806 -0.0498  0.3395
14103TIP3    H163724   4.320   6.096   3.209 -1.7061  1.4146  1.8285
14103TIP3    H263725   4.470   6.117   3.206 -1.1819 -1.8997  0.2695
14104TIP3   OH263726   5.980   2.522  16.278  0.6382  0.3717 -0.1559
14104TIP3    H163727   5.901   2.533  16.332  1.5313  1.2140  1.0419
14104TIP3    H263728   5.969   2.436  16.236 -1.7610  1.2507 -1.5141
14105TIP3   OH263729   2.990   2.234   4.797  0.0347  0.0339  0.1075
14105TIP3    H163730   3.009   2.324   4.771  0.3289  0.0962  0.5219
14105TIP3    H263731   3.076   2.193   4.809 -0.0929 -0.1703  0.3530
14106TIP3   OH263732   6.704   0.485  12.999 -0.0574  0.5187 -0.0481
14106TIP3    H163733   6.751   0.514  12.920  1.2212 -0.9039  0.1623
14106TIP3    H263734   6.709   0.390  12.996 -1.4794  0.3857  0.8983
14107TIP3   OH263735   5.620   4.521  11.504  0.1195 -0.2398 -0.0565
14107TIP3    H163736   5.614   4.491  11.414  0.1874 -0.3358 -0.0286
14107TIP3    H263737   5.554   4.590  11.511 -0.4651 -0.8143  0.0590
14108TIP3   OH263738   1.094   2.227  16.450  0.5509 -0.1836  0.2958
14108TIP3    H163739   1.025   2.165  16.474  0.5567 -1.3957 -2.4949
14108TIP3    H263740   1.175   2.177  16.463  0.7645  0.3044  0.9056
14109TIP3   OH263741   6.710   4.323   1.160  0.6195 -0.5189 -0.3484
14109TIP3    H163742   6.674   4.408   1.184  1.7356 -0.5697  1.6738
14109TIP3    H263743   6.796   4.342   1.122 -0.0137 -0.6385 -1.9276
14110TIP3   OH263744   2.419   5.304   5.743  0.0234 -0.2949 -0.0407
14110TIP3    H163745   2.424   5.382   5.798 -2.3790 -0.1015  0.0286
14110TIP3    H263746   2.325   5.289   5.732  0.4343 -2.1367 -1.5471
14111TIP3   OH263747   4.452   2.491   5.956  0.2209  0.2215  0.4099
14111TIP3    H163748   4.413   2.415   5.911  1.8616 -0.5674  0.2410
14111TIP3    H263749   4.503   2.452   6.027  1.8487  1.0670 -0.2479
14112TIP3   OH263750   5.945   5.639  14.658  0.0960  0.0439 -0.0154
14112TIP3    H163751   6.001   5.564  14.676  0.1499  0.2714  0.7883
14112TIP3    H263752   5.986   5.712  14.704  1.8320  1.3408 -3.2395
14113TIP3   OH263753   6.326   5.225  11.542 -0.2365 -0.1200  0.2153
14113TIP3    H163754   6.417   5.209  11.567 -0.5941 -1.1387  0.9491
14113TIP3    H263755   6.331   5.276  11.461  0.9754  0.3788  0.5876
14114TIP3   OH263756   4.723   1.854  11.929  0.2177  0.1633  0.2436
14114TIP3    H163757   4.713   1.781  11.868 -0.8084  2.4943 -2.6154
14114TIP3    H263758   4.774   1.818  12.002 -0.7150 -3.4896 -0.7217
14115TIP3   OH263759   0.603   5.719   1.493  0.0217 -0.1332 -0.5914
14115TIP3    H163760   0.537   5.706   1.426  0.0192 -0.6221 -0.4985
14115TIP3    H263761   0.684   5.686   1.454  0.0329 -0.3596 -0.3837
14116TIP3   OH263762   5.395   2.999  12.874 -0.3744  0.1104  0.5351
14116TIP3    H163763   5.441   3.074  12.837 -1.2408 -0.2364 -1.3473
14116TIP3    H263764   5.441   2.923  12.841 -0.1744 -0.2295  1.5426
14117TIP3   OH263765   4.922   6.030  14.380  0.0558 -0.8185 -0.2489
14117TIP3    H163766   4.966   5.952  14.346 -0.2113 -0.5002 -1.3608
14117TIP3    H263767   4.846   5.995  14.427 -0.9741 -1.1989 -2.1051
14118TIP3   OH263768   5.270   4.675  15.912 -0.0585 -0.1962 -0.0478
14118TIP3    H163769   5.282   4.613  15.840 -0.0644  1.0241 -1.1189
14118TIP3    H263770   5.336   4.742  15.898  0.0213  0.0024  1.1654
14119TIP3   OH263771   1.387   1.166   6.205  0.0141 -0.3459  0.2923
14119TIP3    H163772   1.423   1.079   6.193  0.1975 -0.2659  0.2613
14119TIP3    H263773   1.296   1.151   6.233 -0.8313 -0.5609 -2.2851
14120TIP3   OH263774   0.233   4.395   2.468 -0.6243  0.1216  0.0689
14120TIP3    H163775   0.142   4.367   2.462 -0.3771 -0.9487  0.9377
14120TIP3    H263776   0.268   4.348   2.544  0.5966  0.6707 -0.1225
14121TIP3   OH263777   4.611   2.806  11.487 -0.5309  0.2282  0.1769
14121TIP3    H163778   4.538   2.851  11.444  0.0346 -0.9540 -2.1667
14121TIP3    H263779   4.582   2.715  11.495 -0.1804  0.2102  1.3245
14122TIP3   OH263780   1.785   0.261  13.790  0.1764  0.0704  0.0062
14122TIP3    H163781   1.763   0.168  13.779  1.6989 -0.7013  2.5820
14122TIP3    H263782   1.812   0.290  13.703  1.9322 -2.5939 -0.4481
14123TIP3   OH263783   4.413   0.071   3.704  0.3050  0.3797 -0.0856
14123TIP3    H163784   4.327   0.103   3.729  0.1696  1.2764 -1.5315
14123TIP3    H263785   4.395  -0.011   3.656  0.0719  1.3359 -1.7152
14124TIP3   OH263786   3.162   5.481   5.363  0.0160  0.1532 -0.7236
14124TIP3    H163787   3.127   5.532   5.290 -1.5611 -0.9335 -0.7787
14124TIP3    H263788   3.140   5.532   5.441  0.6874  0.7598 -0.9239
14125TIP3   OH263789   5.961   2.054  13.190  0.3332 -0.3408  0.3242
14125TIP3    H163790   6.034   2.029  13.248  0.7414 -0.5919 -0.2905
14125TIP3    H263791   6.003   2.102  13.118 -0.1708 -0.0462  0.2226
14126TIP3   OH263792   3.179   4.521   1.778  0.2534 -0.1532  0.0964
14126TIP3    H163793   3.135   4.499   1.860 -0.5091  0.0191 -0.2564
14126TIP3    H263794   3.189   4.437   1.733  1.6652 -0.3993  0.8330
14127TIP3   OH263795   6.593   2.251   6.148 -0.4882 -0.4609  0.4055
14127TIP3    H163796   6.603   2.303   6.069 -3.7732  2.6623  1.7783
14127TIP3    H263797   6.651   2.292   6.212 -0.7355 -0.5066  0.6621
14128TIP3   OH263798   2.161   5.720   3.916  0.2020 -0.1998  0.3624
14128TIP3    H163799   2.159   5.626   3.935 -1.0339 -0.2372  0.1643
14128TIP3    H263800   2.251   5.746   3.933  0.5838 -1.4335  0.3652
14129TIP3   OH263801   2.252   2.944   1.896  0.1931 -0.0556  0.3684
14129TIP3    H163802   2.193   2.967   1.968  0.3761  0.7156  0.2828
14129TIP3    H263803   2.336   2.981   1.921  0.8125 -1.6565  0.7677
14130TIP3   OH263804   2.742   1.505   5.265 -0.7801  0.2174  0.1995
14130TIP3    H163805   2.697   1.494   5.181  1.1040 -0.0418 -0.8383
14130TIP3    H263806   2.757   1.416   5.297  0.5064  0.2150 -0.3480
14131TIP3   OH263807   5.860   0.400   2.976 -0.1901 -0.0142  0.2129
14131TIP3    H163808   5.862   0.495   2.970 -0.5828 -0.0452 -0.6739
14131TIP3    H263809   5.925   0.378   3.043  2.0681  0.7449 -1.5753
14132TIP3   OH263810   5.377   2.987   3.789 -0.5758  0.2786 -0.5866
14132TIP3    H163811   5.348   2.947   3.871 -1.8160  1.9026 -0.1625
14132TIP3    H263812   5.296   3.004   3.741  0.1288 -0.5151 -2.1036
14133TIP3   OH263813   5.811   5.254   0.773 -0.1639 -1.0001  0.1695
14133TIP3    H163814   5.724   5.289   0.790  0.0270  0.7181 -2.0022
14133TIP3    H263815   5.842   5.224   0.859 -1.3006  2.1184  1.8206
14134TIP3   OH263816   5.559   5.821   0.542 -0.2008 -1.1388 -0.5299
14134TIP3    H163817   5.615   5.898   0.542  0.2193 -1.4348 -0.8171
14134TIP3    H263818   5.500   5.833   0.468  0.5827 -1.5886 -1.2526
14135TIP3   OH263819   3.524   1.955   4.295 -0.4318  0.2201  0.5802
14135TIP3    H163820   3.473   2.020   4.345 -1.1349 -0.4735  0.7884
14135TIP3    H263821   3.513   1.982   4.204  1.4792  1.9435  0.7874
14136TIP3   OH263822   1.541   3.489  10.758  0.0900 -0.1121  0.3401
14136TIP3    H163823   1.486   3.508  10.834  1.3000 -2.6593  1.9636
14136TIP3    H263824   1.479   3.479  10.685 -1.4070 -0.8711  1.6677
14137TIP3   OH263825   5.329   3.286  11.319  0.1778 -0.0042  0.6472
14137TIP3    H163826   5.409   3.307  11.270 -0.8828 -1.0913 -1.7267
14137TIP3    H263827   5.270   3.360  11.300 -0.3862 -0.6335 -0.1582
14138TIP3   OH263828   3.876   6.291   2.461  0.1129  0.1799  0.2329
14138TIP3    H163829   3.831   6.250   2.387  1.8452 -0.4609 -0.5333
14138TIP3    H263830   3.926   6.363   2.421  0.2417  0.4925  0.9533
14139TIP3   OH263831   5.062   0.061  16.250 -0.4082  0.1290  0.6189
14139TIP3    H163832   5.143   0.109  16.269  0.5017 -0.8573 -0.6530
14139TIP3    H263833   5.040   0.018  16.333  1.4572 -1.1568  0.4858
14140TIP3   OH263834   3.487   2.071   6.005  0.0973  0.1540  0.0307
14140TIP3    H163835   3.509   2.147   6.058  2.1782 -0.6305  0.4182
14140TIP3    H263836   3.503   2.099   5.915  0.0836  0.4063  0.1062
14141TIP3   OH263837   0.094   5.078   4.037  1.1695  0.4752  0.0147
14141TIP3    H163838   0.008   5.121   4.034  1.5289  1.1893 -2.2210
14141TIP3    H263839   0.090   5.020   4.113 -1.3695  0.3301 -0.1609
14142TIP3   OH263840   2.315   0.400  13.120  0.2349  0.7438 -0.0530
14142TIP3    H163841   2.402   0.414  13.082  0.2002  1.4284  0.1141
14142TIP3    H263842   2.261   0.374  13.045  0.1009  2.3707 -0.5632
14143TIP3   OH263843   6.093   0.723   0.076  0.3409  0.1419  0.0287
14143TIP3    H163844   6.033   0.788   0.112 -1.4681 -2.0658  1.2228
14143TIP3    H263845   6.133   0.683   0.152  1.8310  0.1714 -0.7102
14144TIP3   OH263846   6.587   4.556  14.464 -0.2292 -0.0416 -0.0324
14144TIP3    H163847   6.561   4.530  14.376 -0.1783  0.6221 -0.2457
14144TIP3    H263848   6.675   4.520  14.474  0.2895  0.9914 -0.7491
14145TIP3   OH263849   0.189   1.157   4.426 -0.1849 -0.8537 -1.2330
14145TIP3    H163850   0.259   1.125   4.483 -1.2138 -0.8619  0.0944
14145TIP3    H263851   0.162   1.239   4.466 -0.0089 -0.1235 -2.5452
14146TIP3   OH263852   2.958   2.138  13.626 -0.1398 -0.0326 -0.3503
14146TIP3    H163853   2.988   2.055  13.589  1.1279  0.3699 -0.2724
14146TIP3    H263854   3.020   2.203  13.592 -0.2165  0.6545  0.7846
14147TIP3   OH263855   0.450   5.129   4.423 -0.1872 -0.1297  0.3208
14147TIP3    H163856   0.456   5.093   4.512  0.3498 -1.4246 -0.2069
14147TIP3    H263857   0.399   5.064   4.375 -0.7368  0.7114 -0.2503
14148TIP3   OH263858   1.623   2.494  16.185 -0.7738  0.0125  0.3740
14148TIP3    H163859   1.613   2.406  16.149  2.0356 -0.7661  1.2878
14148TIP3    H263860   1.545   2.506  16.239 -1.7115 -1.4877 -0.5548
14149TIP3   OH263861   5.580   0.052   5.842 -0.0906 -0.2296 -0.2372
14149TIP3    H163862   5.572   0.045   5.937 -2.2844 -0.7715 -0.4093
14149TIP3    H263863   5.492   0.032   5.809  0.4547  0.5808 -2.3479
14150TIP3   OH263864   5.350   4.133  16.107  0.1066 -0.3381  0.1120
14150TIP3    H163865   5.255   4.143  16.095  0.1286 -0.8998 -0.6340
14150TIP3    H263866   5.377   4.214  16.150 -0.7001 -0.1357  0.2614
14151TIP3   OH263867   2.768   1.926   0.302  0.3717 -0.2640  0.1199
14151TIP3    H163868   2.713   1.848   0.300 -0.1565  0.1150 -0.7157
14151TIP3    H263869   2.713   1.996   0.267  0.6549  0.6217  1.3920
14152TIP3   OH263870   3.918   4.103  14.877 -0.4458 -0.1381  0.1646
14152TIP3    H163871   4.005   4.133  14.904  0.7902 -1.1642 -2.3180
14152TIP3    H263872   3.858   4.161  14.923  1.5910  1.6114  0.8222
14153TIP3   OH263873   0.574   5.542  15.645 -0.4889 -0.0600 -0.2162
14153TIP3    H163874   0.553   5.635  15.657  0.0704  0.1016 -0.4647
14153TIP3    H263875   0.535   5.499  15.721  0.6757  0.6053  0.8011
14154TIP3   OH263876   2.578   6.175   4.758 -0.1014  0.3460 -0.4343
14154TIP3    H163877   2.517   6.144   4.825  2.5952  0.0216  2.0947
14154TIP3    H263878   2.568   6.270   4.758  0.4217  0.4355  1.1452
14155TIP3   OH263879   5.895   4.951   3.052 -0.1978 -0.3236  0.1424
14155TIP3    H163880   5.810   4.964   3.009  0.1473  1.9453 -0.0134
14155TIP3    H263881   5.877   4.967   3.145  0.1134  0.5616  0.0566
14156TIP3   OH263882   1.570   5.496  16.407  0.6101 -0.2151 -0.5945
14156TIP3    H163883   1.584   5.495  16.312 -2.4706 -0.9013 -1.1587
14156TIP3    H263884   1.597   5.409  16.436 -1.7691 -1.3783 -1.5625
14157TIP3   OH263885   0.517   2.084  13.353 -0.2148  0.0229  0.4758
14157TIP3    H163886   0.512   2.039  13.268 -0.0195 -1.5517  1.2706
14157TIP3    H263887   0.432   2.126  13.362  0.4533  1.9639 -1.4060
14158TIP3   OH263888   2.992   5.584   4.795  0.5127  0.0166  0.4002
14158TIP3    H163889   2.918   5.607   4.851  1.4205  1.0927  1.2062
14158TIP3    H263890   3.018   5.667   4.755  0.6924 -0.5169 -0.6178
14159TIP3   OH263891   2.549   3.271   1.399 -0.2457 -0.1457 -0.1650
14159TIP3    H163892   2.508   3.289   1.314 -0.0174  1.0863 -0.0349
14159TIP3    H263893   2.591   3.186   1.388  3.2281  1.6319 -2.6591
14160TIP3   OH263894   2.484   4.280   0.167  0.3473  0.7696 -0.1085
14160TIP3    H163895   2.504   4.326   0.085 -0.2966 -3.5941 -3.0267
14160TIP3    H263896   2.389   4.270   0.166  0.3201  0.7313  1.3023
14161TIP3   OH263897   4.209   4.477  15.746  0.2759 -0.1660 -0.2262
14161TIP3    H163898   4.130   4.471  15.801 -0.5015  1.2460 -1.1308
14161TIP3    H263899   4.251   4.391  15.756 -1.0322 -0.7408  0.7770
14162TIP3   OH263900   6.169   6.424   1.771 -0.4293  0.4830  0.5881
14162TIP3    H163901   6.257   6.403   1.740 -0.6276  1.0989 -0.4220
14162TIP3    H263902   6.183   6.468   1.855  0.3144  1.8256 -0.2173
14163TIP3   OH263903   4.882   4.554   0.592  0.0817 -0.3641 -0.1170
14163TIP3    H163904   4.880   4.468   0.549  1.8558 -0.9120  0.8087
14163TIP3    H263905   4.973   4.583   0.584 -0.0761  0.5862  1.1940
14164TIP3   OH263906   0.075   1.375  14.509 -0.3284  0.3555 -0.2822
14164TIP3    H163907  -0.007   1.376  14.459 -0.8313  0.5978  0.5236
14164TIP3    H263908   0.120   1.454  14.481  1.0588 -1.2515 -2.9718
14165TIP3   OH263909   3.725   1.662   5.879 -0.1185  0.0094  0.2319
14165TIP3    H163910   3.745   1.598   5.811 -2.2804 -0.2049 -0.2863
14165TIP3    H263911   3.638   1.636   5.910  0.4816  0.5735  2.5532
14166TIP3   OH263912   6.640   5.517  12.365  0.2959  0.2351 -0.2083
14166TIP3    H163913   6.716   5.516  12.307 -0.3308 -0.8949 -1.0452
14166TIP3    H263914   6.568   5.548  12.310 -0.1986 -0.3298  0.1144
14167TIP3   OH263915   1.187   2.739   4.301  0.3734  0.4032  0.0324
14167TIP3    H163916   1.242   2.661   4.309 -0.5325 -0.1313  1.1767
14167TIP3    H263917   1.205   2.770   4.212 -0.5918 -2.1434 -1.1735
14168TIP3   OH263918   6.368   6.181   0.727  0.2074 -0.2021 -0.1054
14168TIP3    H163919   6.406   6.101   0.763  0.0260 -1.1715 -1.9399
14168TIP3    H263920   6.275   6.161   0.717  0.3941 -0.3530 -1.9476
14169TIP3   OH263921   3.566   4.793   2.007 -0.1030  0.0134 -0.1935
14169TIP3    H163922   3.529   4.725   1.950 -1.4534 -0.5647  1.2914
14169TIP3    H263923   3.627   4.747   2.064  0.1994  0.3313 -0.2596
14170TIP3   OH263924   2.039   2.620  16.750 -0.1042  0.1437 -0.3920
14170TIP3    H163925   2.105   2.688  16.746 -1.3191  1.3350 -0.9876
14170TIP3    H263926   1.980   2.646  16.821  0.5561 -1.4003  0.7826
14171TIP3   OH263927   1.068   1.143  17.175  0.5275 -0.0870  0.5229
14171TIP3    H163928   1.096   1.131  17.084  0.8685 -0.8389  0.7224
14171TIP3    H263929   1.034   1.057  17.201  2.4353 -0.5196  1.7922
14172TIP3   OH263930   2.200   1.939   1.518  0.0686 -0.0017 -0.2988
14172TIP3    H163931   2.224   2.014   1.572  0.1399  0.4107 -0.8962
14172TIP3    H263932   2.113   1.961   1.483  0.1472 -0.1369 -0.5841
14173TIP3   OH263933   4.657   3.380  12.825  0.6266  0.0244 -0.6005
14173TIP3    H163934   4.751   3.365  12.813  0.5708 -1.0952  0.1379
14173TIP3    H263935   4.636   3.334  12.907 -0.0712  2.4782  0.6771
14174TIP3   OH263936   1.463   3.207   2.611 -0.5976 -0.1326  0.1292
14174TIP3    H163937   1.453   3.290   2.563 -0.8559  0.3353  0.9653
14174TIP3    H263938   1.498   3.234   2.697 -0.8992 -0.8717  0.4871
14175TIP3   OH263939   0.355   2.839  15.253 -0.2943 -0.4596  0.2625
14175TIP3    H163940   0.377   2.874  15.340  0.8453 -1.4405  0.3983
14175TIP3    H263941   0.260   2.837  15.251 -0.3451 -1.1725  1.8261
14176TIP3   OH263942   2.539   0.732   2.231 -0.0435 -0.2545  0.0905
14176TIP3    H163943   2.524   0.671   2.304 -0.6762 -1.9949 -1.4029
14176TIP3    H263944   2.630   0.718   2.208 -0.1470 -0.5342 -0.1547
14177TIP3   OH263945   3.760   3.553   1.923  0.4262  0.3582 -0.2115
14177TIP3    H163946   3.789   3.529   2.010  0.6984  0.7975 -0.1787
14177TIP3    H263947   3.814   3.501   1.864 -0.8860 -1.1951 -0.1078
14178TIP3   OH263948   6.031   2.465  14.579 -0.1672 -0.3762  0.6267
14178TIP3    H163949   5.982   2.494  14.656 -0.2415  1.5079 -0.0843
14178TIP3    H263950   6.122   2.488  14.599 -0.1677 -0.0091  0.2150
14179TIP3   OH263951   4.972   1.470  15.848 -0.2711  0.7617 -0.5410
14179TIP3    H163952   4.956   1.522  15.927 -1.9409 -1.7119  0.8711
14179TIP3    H263953   4.893   1.417  15.838  2.1825 -3.2423 -0.4608
14180TIP3   OH263954   1.914   3.773  14.434  0.2450  0.4542 -0.0783
14180TIP3    H163955   1.993   3.741  14.478  0.2156  0.4282 -0.0432
14180TIP3    H263956   1.883   3.698  14.384  0.2182  0.4513 -0.0570
14181TIP3   OH263957   3.663   4.050  16.816  0.4755 -0.2645  0.1021
14181TIP3    H163958   3.634   4.021  16.729 -0.6943 -2.6423  1.2225
14181TIP3    H263959   3.713   4.130  16.798 -0.9607  0.1473 -2.6085
14182TIP3   OH263960   0.679   2.974   1.517 -0.0391  0.2060  0.3722
14182TIP3    H163961   0.758   2.985   1.465 -1.0480  1.4721 -0.9690
14182TIP3    H263962   0.684   3.044   1.583 -0.1241  0.3793  0.1931
14183TIP3   OH263963   0.820   1.986  10.698 -0.3220  0.6592 -0.0267
14183TIP3    H163964   0.811   2.039  10.619  0.6409  0.4843 -0.2688
14183TIP3    H263965   0.731   1.978  10.733 -0.7461  0.7703 -1.0673
14184TIP3   OH263966   2.297   0.503  13.838 -0.2675 -0.4532 -1.0450
14184TIP3    H163967   2.204   0.492  13.818 -0.5637  1.8425 -1.0946
14184TIP3    H263968   2.309   0.459  13.922 -2.0906  1.7487  0.4584
14185TIP3   OH263969   4.149   4.164  12.048 -0.5271  0.0252 -0.2736
14185TIP3    H163970   4.209   4.096  12.078  0.0022  1.1587  1.4138
14185TIP3    H263971   4.205   4.228  12.003 -0.4888  0.8662  0.9158
14186TIP3   OH263972   2.208   3.357   2.365 -0.0298 -0.0365 -0.3440
14186TIP3    H163973   2.202   3.272   2.409  1.7789 -0.0129  0.0124
14186TIP3    H263974   2.301   3.366   2.343 -0.3563  1.4214 -1.2512
14187TIP3   OH263975   1.131   6.085   2.333  0.5242 -0.0766 -0.4142
14187TIP3    H163976   1.067   6.132   2.280 -0.6664 -0.3177  0.7370
14187TIP3    H263977   1.120   5.993   2.308  0.9970 -0.0314 -0.7920
14188TIP3   OH263978   3.994   0.065   4.131  0.3029  0.5599 -0.1125
14188TIP3    H163979   3.912   0.017   4.127 -0.5382  1.9088  0.2660
14188TIP3    H263980   4.018   0.066   4.223  2.1788 -2.0454 -0.4483
14189TIP3   OH263981   3.142   1.387  12.644  0.0447 -0.3340 -0.4435
14189TIP3    H163982   3.195   1.458  12.609 -0.0732  0.3175  0.6538
14189TIP3    H263983   3.161   1.312  12.587  2.4377 -0.2270  0.1035
14190TIP3   OH263984   1.158   5.005  15.376  0.1446 -0.1306 -0.1059
14190TIP3    H163985   1.229   4.999  15.441  0.2632  0.1045 -0.2116
14190TIP3    H263986   1.144   5.099  15.365 -1.5423 -0.1660  1.3697
14191TIP3   OH263987   3.966   2.323   3.649 -0.2029  0.4017 -0.2344
14191TIP3    H163988   3.995   2.294   3.735 -1.8815  1.4712  0.7459
14191TIP3    H263989   3.871   2.331   3.657 -0.3182  1.1826 -1.9729
14192TIP3   OH263990   0.161   2.528   0.619 -0.1763 -0.3217 -0.0653
14192TIP3    H163991   0.180   2.604   0.564 -0.5792  0.4402  0.8315
14192TIP3    H263992   0.126   2.564   0.700  1.7672 -1.3255  1.3095
14193TIP3   OH263993   2.699   3.010  17.047  0.2697  0.2680  0.3674
14193TIP3    H163994   2.669   2.996  17.136 -0.0217 -0.8742  0.1034
14193TIP3    H263995   2.738   2.927  17.021 -3.2156 -0.8873 -1.9357
14194TIP3   OH263996   1.129   4.874  16.263 -0.1424  0.2252 -0.1091
14194TIP3    H163997   1.209   4.878  16.211  0.5313  1.2452  0.9474
14194TIP3    H263998   1.102   4.782  16.259  1.9479 -0.4925  0.7708
14195TIP3   OH263999   5.445   2.619  12.269 -0.4048 -0.2707  0.5806
14195TIP3    H164000   5.362   2.639  12.225  0.2594  2.2125  0.3369
14195TIP3    H264001   5.420   2.566  12.345 -2.1372 -0.0039  0.2372
14196TIP3   OH264002   3.011   0.634   5.928  0.2203 -0.3028 -0.4516
14196TIP3    H164003   2.922   0.662   5.904  0.5643  1.2608 -0.0283
14196TIP3    H264004   2.997   0.568   5.996 -0.6389  1.2242  0.9315
14197TIP3   OH264005   6.345   6.389  15.358  0.2441  0.2358 -0.3973
14197TIP3    H164006   6.440   6.391  15.352  0.4756 -1.3712  1.6758
14197TIP3    H264007   6.325   6.427  15.443 -0.9371  0.1547 -0.6216
14198TIP3   OH264008   6.181   4.002  12.794  0.3537  0.0988  0.4429
14198TIP3    H164009   6.173   4.097  12.789 -0.6841  0.1073  1.6387
14198TIP3    H264010   6.170   3.972  12.704  1.8254  1.1562 -0.1328
14199TIP3   OH264011   6.041   1.959  11.494 -0.0666  0.1792 -0.6390
14199TIP3    H164012   6.040   2.050  11.522 -0.0235 -0.2798  0.9464
14199TIP3    H264013   5.974   1.954  11.425 -0.5251  1.2531 -0.2882
14200TIP3   OH264014   4.424   4.041  12.416  0.3206  0.1996 -0.1422
14200TIP3    H164015   4.367   3.982  12.367 -0.8520  0.3512  0.9658
14200TIP3    H264016   4.399   4.129  12.388  2.1219  0.2289 -1.8508
14201TIP3   OH264017   0.672   1.301   0.431  0.2867 -0.5521 -0.5282
14201TIP3    H164018   0.661   1.275   0.522 -1.6676  1.1669 -0.2026
14201TIP3    H264019   0.744   1.363   0.432 -0.8826  0.8448  0.1948
14202TIP3   OH264020   5.018   6.430   4.311 -0.5787 -0.2548  0.3052
14202TIP3    H164021   5.081   6.467   4.374  0.2147  0.8650 -1.0823
14202TIP3    H264022   5.055   6.345   4.288  1.2721  0.9097 -1.4838
14203TIP3   OH264023   1.312   0.190   3.942  0.2311  0.5972 -0.3231
14203TIP3    H164024   1.278   0.279   3.929 -1.7598 -0.1759 -0.8017
14203TIP3    H264025   1.397   0.191   3.898  0.8583  2.6082  0.8199
14204TIP3   OH264026   2.282   2.348   2.200  0.3132  0.2249  0.0217
14204TIP3    H164027   2.271   2.271   2.144 -0.4585 -0.1671  0.7006
14204TIP3    H264028   2.376   2.366   2.197  0.4246 -0.4162 -0.5657
14205TIP3   OH264029   0.359   1.064   0.940 -0.2201  0.2285 -0.3633
14205TIP3    H164030   0.365   0.977   0.901 -1.3826 -0.8542  1.6850
14205TIP3    H264031   0.447   1.082   0.972 -0.1186 -0.5132 -0.2064
14206TIP3   OH264032   2.232   3.582  16.087  0.1774 -0.1737  0.2064
14206TIP3    H164033   2.185   3.523  16.028 -1.7310  1.4805 -0.0130
14206TIP3    H264034   2.284   3.637  16.029 -2.3573  2.0319 -0.1433
14207TIP3   OH264035   2.334   4.603  12.340  0.1884  0.2663  0.4238
14207TIP3    H164036   2.278   4.620  12.265  0.1023  0.6915  0.5809
14207TIP3    H264037   2.308   4.668  12.405  0.7380  0.3528  0.5651
14208TIP3   OH264038   6.422   6.509  16.914 -0.3850 -0.8920 -0.1262
14208TIP3    H164039   6.491   6.562  16.955 -0.6688 -0.7391  0.1662
14208TIP3    H264040   6.362   6.573  16.877 -0.9430 -0.9866  0.5819
14209TIP3   OH264041   3.115   6.575   4.247 -0.4382 -0.3414 -0.0508
14209TIP3    H164042   3.197   6.562   4.295 -0.0422  0.8909 -0.3502
14209TIP3    H264043   3.055   6.509   4.283  0.8156 -1.5791 -0.1733
14210TIP3   OH264044   2.917   3.702   4.780 -0.2952  0.6025 -0.5606
14210TIP3    H164045   2.886   3.630   4.836  0.5779 -0.6610 -1.6619
14210TIP3    H264046   3.012   3.698   4.786 -0.1972  2.9826  0.9360
14211TIP3   OH264047   0.273   3.490  15.939  0.0103 -0.3251 -0.0377
14211TIP3    H164048   0.236   3.405  15.961 -1.9011  0.8656  1.6302
14211TIP3    H264049   0.234   3.512  15.855 -2.6291  0.5469  1.3135
14212TIP3   OH264050   2.356   0.108  12.651  1.2454  0.1968 -0.0080
14212TIP3    H164051   2.361   0.015  12.630 -2.9836 -0.1226 -0.5183
14212TIP3    H264052   2.358   0.152  12.566 -0.0360  0.2366 -0.0388
14213TIP3   OH264053   2.002   6.681   4.658 -0.7619 -0.3001  0.2319
14213TIP3    H164054   2.012   6.587   4.640  2.4623  0.1247 -0.7539
14213TIP3    H264055   1.978   6.685   4.751 -1.1639 -2.0866  0.2406
14214TIP3   OH264056   5.720   0.255   4.292  0.1044 -0.4131  0.2409
14214TIP3    H164057   5.669   0.295   4.362 -0.8078  0.4883 -0.8917
14214TIP3    H264058   5.700   0.161   4.298 -0.8595 -0.1985  0.4801
14215TIP3   OH264059   3.318   0.231   6.429  0.4460  0.2236  0.5453
14215TIP3    H164060   3.321   0.286   6.351 -1.6637 -1.0508 -0.5300
14215TIP3    H264061   3.384   0.164   6.414  1.1761  0.9026  0.6410
14216TIP3   OH264062   5.986   2.799   2.408  0.7638  0.0779  0.7299
14216TIP3    H164063   5.935   2.820   2.486 -0.2093  1.0122 -0.1332
14216TIP3    H264064   5.941   2.723   2.369 -1.2809  2.0952 -1.1158
14217TIP3   OH264065   0.570   5.056   2.082 -0.5502 -0.1326  0.2904
14217TIP3    H164066   0.553   5.019   2.169  0.5877  1.1876  1.1206
14217TIP3    H264067   0.654   5.101   2.092 -0.7279  0.5968 -1.3299
14218TIP3   OH264068   4.946   3.492  12.444  0.1090 -0.3562  0.1937
14218TIP3    H164069   4.950   3.587  12.433  1.4725 -0.3047  0.9691
14218TIP3    H264070   4.902   3.480  12.528  0.1823 -0.4134  0.2231
14219TIP3   OH264071   2.824   0.878   1.975  0.2371 -0.0187  0.3633
14219TIP3    H164072   2.919   0.886   1.983  0.1148  1.6771  0.5969
14219TIP3    H264073   2.794   0.968   1.963 -1.3349 -0.5375  0.2191
14220TIP3   OH264074   2.225   5.498   2.099  0.0940 -0.2289  0.0138
14220TIP3    H164075   2.224   5.513   2.193 -0.9011 -2.1333  0.3499
14220TIP3    H264076   2.316   5.512   2.073  0.1667  1.3494  1.0564
14221TIP3   OH264077   3.088   0.086  13.690 -0.1125 -0.7080 -0.3313
14221TIP3    H164078   3.177   0.075  13.723 -0.5623 -2.0299  0.4934
14221TIP3    H264079   3.050  -0.002  13.689 -1.6666 -0.0894  0.0577
14222TIP3   OH264080   5.636   0.916  11.630  0.0569  0.5000 -0.1210
14222TIP3    H164081   5.606   0.825  11.629  0.3234  0.4135 -0.6139
14222TIP3    H264082   5.730   0.910  11.643  0.2013  0.6582 -0.9955
14223TIP3   OH264083   4.120   5.984   2.407 -0.0556 -0.0056 -0.0619
14223TIP3    H164084   4.150   5.893   2.409  1.4331  0.4438 -0.7026
14223TIP3    H264085   4.038   5.981   2.359 -0.5500 -1.1442  0.8163
14224TIP3   OH264086   3.925   0.342   3.723  0.2145 -0.4876  0.0643
14224TIP3    H164087   4.013   0.305   3.718  1.3143  2.1038 -1.4364
14224TIP3    H264088   3.902   0.362   3.632 -1.4966 -0.1289  0.5422
14225TIP3   OH264089   6.268   5.773  14.719  1.0380 -0.3651  0.1465
14225TIP3    H164090   6.239   5.782  14.628  2.4476 -1.4738 -0.4496
14225TIP3    H264091   6.340   5.710  14.715  1.0669 -0.5041  2.0559
14226TIP3   OH264092   6.607   2.874  15.907 -0.0152  0.5455 -0.6195
14226TIP3    H164093   6.674   2.810  15.884 -0.9001 -0.0138 -1.7910
14226TIP3    H264094   6.562   2.892  15.824 -0.8142  1.4838 -0.0123
14227TIP3   OH264095   5.851   0.114   3.978  0.0324  0.1804 -0.0864
14227TIP3    H164096   5.787   0.184   3.969  1.2651  1.3398 -0.1730
14227TIP3    H264097   5.800   0.033   3.969 -1.0144  1.0383 -3.0363
14228TIP3   OH264098   6.019   2.080  15.226 -0.4052  0.3436 -0.2323
14228TIP3    H164099   6.038   2.167  15.260 -1.0692  1.0429 -1.5534
14228TIP3    H264100   5.976   2.034  15.298  1.4966  0.4879  1.0542
14229TIP3   OH264101   5.465   4.757  14.077 -0.1850  0.0552  0.0353
14229TIP3    H164102   5.547   4.713  14.058 -0.7728 -0.5885 -1.0904
14229TIP3    H264103   5.432   4.714  14.156 -0.6490 -1.4290 -0.9265
14230TIP3   OH264104   4.347   3.952   3.690 -0.2766  0.2575 -0.2158
14230TIP3    H164105   4.298   3.949   3.772 -1.5218  1.4655 -0.8535
14230TIP3    H264106   4.398   4.033   3.695 -0.2271  0.2507 -0.5564
14231TIP3   OH264107   3.638   2.771  14.241  0.1497 -0.3791  0.0483
14231TIP3    H164108   3.635   2.792  14.147 -1.4800 -0.9690 -0.0585
14231TIP3    H264109   3.727   2.793  14.267  0.7200 -0.4512 -1.6989
14232TIP3   OH264110   3.297   2.261   2.129  0.2973  0.2743  0.0387
14232TIP3    H164111   3.320   2.352   2.150  0.4047  0.4365 -0.7749
14232TIP3    H264112   3.290   2.259   2.034  0.1685 -0.5464  0.0604
14233TIP3   OH264113   1.128   1.796  13.791 -0.0515 -0.4955  0.4593
14233TIP3    H164114   1.213   1.752  13.794 -0.8555 -2.0432  2.7866
14233TIP3    H264115   1.122   1.842  13.874 -1.8109 -1.0914  0.7015
14234TIP3   OH264116   6.181   6.268   5.704  0.1093 -0.1167  0.0748
14234TIP3    H164117   6.189   6.261   5.799 -2.1742 -1.1128  0.2653
14234TIP3    H264118   6.150   6.358   5.690 -1.9589 -0.6924  0.5598
14235TIP3   OH264119   6.242   6.622   4.028  0.5581 -0.1168  0.5425
14235TIP3    H164120   6.152   6.596   4.006  1.2869 -1.9823 -0.5000
14235TIP3    H264121   6.246   6.619   4.123 -0.4690 -0.0669  0.5944
14236TIP3   OH264122   3.135   0.856   5.998 -0.0745  0.1588  0.3432
14236TIP3    H164123   3.170   0.875   6.086  1.3420 -0.7234 -0.0021
14236TIP3    H264124   3.087   0.774   6.009  0.5604 -0.2442  0.2124
14237TIP3   OH264125   2.241   0.523   6.595 -0.2347 -0.0360  0.2638
14237TIP3    H164126   2.164   0.580   6.594 -0.1404  0.0914 -0.6739
14237TIP3    H264127   2.316   0.582   6.604 -0.1701 -0.0555 -0.1357
14238TIP3   OH264128   0.591   1.137  16.194 -0.0013 -0.4433 -0.0563
14238TIP3    H164129   0.540   1.058  16.213 -0.3746  0.0605  1.1308
14238TIP3    H264130   0.636   1.117  16.112  0.8423 -2.3656  0.8083
14239TIP3   OH264131   0.326   5.344   4.307 -0.8436 -0.0149 -0.2297
14239TIP3    H164132   0.262   5.366   4.376  0.9205  1.4780  1.0368
14239TIP3    H264133   0.354   5.255   4.328  1.0330  1.0482  2.2225
14240TIP3   OH264134   1.904   3.645  14.042 -0.3759 -0.1345  0.2999
14240TIP3    H164135   1.864   3.612  14.122  0.0624  1.5352  1.2618
14240TIP3    H264136   1.880   3.738  14.039  1.4614  0.3677 -0.3148
14241TIP3   OH264137   0.771   6.781   3.178  0.3278 -0.1669  0.5326
14241TIP3    H164138   0.831   6.855   3.173  0.6923 -0.5312 -1.0052
14241TIP3    H264139   0.716   6.789   3.101 -1.3645 -0.0848  1.6887
14242TIP3   OH264140   5.024   2.439  11.915  0.5106 -0.0116 -0.3969
14242TIP3    H164141   4.983   2.385  11.847  0.1558  1.0273 -1.0172
14242TIP3    H264142   4.952   2.465  11.972  0.7951 -0.8170  0.3604
14243TIP3   OH264143   3.889   2.671   4.112  0.3176  0.5606 -0.0200
14243TIP3    H164144   3.805   2.646   4.073  0.5885  0.2294 -0.3892
14243TIP3    H264145   3.954   2.648   4.047  0.6122  1.9093 -0.2446
14244TIP3   OH264146   6.299   2.489  12.368 -0.1303  0.1293 -0.0917
14244TIP3    H164147   6.283   2.404  12.410 -0.3059  0.2943  0.1788
14244TIP3    H264148   6.274   2.475  12.276 -2.7945  0.5944  0.4580
14245TIP3   OH264149   4.587   3.067  12.437  0.1708 -0.3068  0.1454
14245TIP3    H164150   4.641   3.118  12.376  0.7361 -0.5890  0.3977
14245TIP3    H264151   4.497   3.079  12.406  0.2919  0.8129  0.1835
14246TIP3   OH264152   1.874   0.172  13.113 -0.1466 -0.0367 -0.3534
14246TIP3    H164153   1.814   0.205  13.046 -0.6027 -0.5027 -0.1857
14246TIP3    H264154   1.818   0.119  13.170  0.4755 -0.6996 -0.3482
14247TIP3   OH264155   3.494   1.698   3.663  0.1247  0.1454  0.2887
14247TIP3    H164156   3.571   1.642   3.670  0.7077  0.9369  0.3731
14247TIP3    H264157   3.489   1.743   3.748 -1.5548 -1.2870  1.0101
14248TIP3   OH264158   2.764   2.089  15.528  0.2694  0.9392  1.0095
14248TIP3    H164159   2.676   2.063  15.500  0.2247 -0.4087  2.2573
14248TIP3    H264160   2.784   2.166  15.476 -1.3547  0.8376  0.1647
14249TIP3   OH264161   2.249   4.124  13.819  0.5438  0.2023 -1.1945
14249TIP3    H164162   2.337   4.119  13.856  0.6343 -2.5235 -1.5169
14249TIP3    H264163   2.197   4.063  13.872 -0.9839  1.2289 -1.4568
14250TIP3   OH264164   0.871   3.299   2.820 -0.5144  0.0220 -0.4920
14250TIP3    H164165   0.883   3.293   2.915 -0.1279  0.1514 -0.5325
14250TIP3    H264166   0.869   3.392   2.802  1.4705  0.0335 -0.8568
14251TIP3   OH264167   2.533   4.121   5.542 -0.4876  0.3457 -0.1499
14251TIP3    H164168   2.596   4.055   5.571 -0.8592  0.5223  1.1383
14251TIP3    H264169   2.582   4.203   5.543 -0.4822  0.3417 -0.1004
14252TIP3   OH264170   0.783   0.509  13.384  0.5805 -0.3020 -0.1088
14252TIP3    H164171   0.752   0.545  13.467  2.0285 -1.7091  1.0984
14252TIP3    H264172   0.724   0.436  13.365  1.1161 -0.8975  0.4686
14253TIP3   OH264173   3.439   2.033  11.112  0.6438  0.4686 -0.6741
14253TIP3    H164174   3.362   2.011  11.165  0.4384  2.6896  0.0767
14253TIP3    H264175   3.513   2.004  11.165  0.3806 -0.6925 -0.9076
14254TIP3   OH264176   1.109   1.166  16.905  0.1979 -0.3661 -0.1328
14254TIP3    H164177   1.054   1.244  16.902  0.0267 -0.3854  1.6622
14254TIP3    H264178   1.197   1.198  16.927  0.2991 -0.5942 -0.1938
14255TIP3   OH264179   3.057   0.755   0.479 -0.5394  0.0126 -0.5350
14255TIP3    H164180   3.150   0.755   0.455 -0.8421 -0.1557 -1.7729
14255TIP3    H264181   3.015   0.701   0.412 -1.7066  1.0870 -0.7034
14256TIP3   OH264182   5.638   0.956   5.588 -0.4507 -0.1939  0.0448
14256TIP3    H164183   5.710   0.900   5.616  0.1924  0.3592 -0.4846
14256TIP3    H264184   5.678   1.041   5.570 -1.2963  0.2417  0.1234
14257TIP3   OH264185   5.497   1.216   4.664 -0.3764 -0.4195 -0.0646
14257TIP3    H164186   5.415   1.210   4.615 -0.3401 -0.9292 -0.0639
14257TIP3    H264187   5.556   1.263   4.606 -0.1683 -1.4928 -0.7351
14258TIP3   OH264188   1.421   6.319  15.868  0.0646 -0.0788  0.2186
14258TIP3    H164189   1.342   6.290  15.913 -0.9667  0.5718 -1.0931
14258TIP3    H264190   1.399   6.313  15.775  1.2613  0.8941 -0.1542
14259TIP3   OH264191   5.035   2.306   1.577  0.3234  0.0583 -0.1260
14259TIP3    H164192   4.989   2.310   1.493  1.1900 -0.1643 -0.6249
14259TIP3    H264193   5.111   2.250   1.560  0.6994  0.2984  0.7187
14260TIP3   OH264194   5.339   5.137  14.901 -0.1536  0.4532  0.1057
14260TIP3    H164195   5.347   5.153  14.807 -0.9780  0.0025 -0.0521
14260TIP3    H264196   5.374   5.216  14.942  1.0488  0.2840 -0.5597
14261TIP3   OH264197   6.665   0.519   1.848 -0.0552  0.2655 -0.2365
14261TIP3    H164198   6.578   0.543   1.816  0.7414  2.4465 -0.9630
14261TIP3    H264199   6.668   0.555   1.937  0.2506  0.6195 -0.3856
14262TIP3   OH264200   3.866   3.444   2.207  0.4256  0.6812  0.1846
14262TIP3    H164201   3.815   3.366   2.184  0.8423  0.8436 -1.4364
14262TIP3    H264202   3.883   3.435   2.300 -1.9900  0.2950  0.6705
14263TIP3   OH264203   3.123   5.347  12.695 -0.3548  0.0400  0.4104
14263TIP3    H164204   3.179   5.314  12.624  0.2346  2.4956 -0.4068
14263TIP3    H264205   3.183   5.397  12.751 -1.5554  2.4061 -0.2639
14264TIP3   OH264206   5.263   6.651   2.607  0.2536  0.2893 -0.3217
14264TIP3    H164207   5.170   6.627   2.604  0.4152 -0.2632 -1.1735
14264TIP3    H264208   5.272   6.718   2.539  0.6623 -0.3515 -0.9113
14265TIP3   OH264209   4.378   4.604  12.116 -0.4368  0.4687 -0.2235
14265TIP3    H164210   4.445   4.546  12.153 -0.4467  1.2442  1.0910
14265TIP3    H264211   4.427   4.671  12.069 -0.4308 -0.6515 -1.8693
14266TIP3   OH264212   3.766   2.888  10.940  0.4400  0.1672 -0.1047
14266TIP3    H164213   3.839   2.919  10.993 -1.5754  2.0917  1.7227
14266TIP3    H264214   3.765   2.946  10.864  1.2176 -0.3552 -0.5324
14267TIP3   OH264215   2.739   1.839   1.658  0.1014  0.0552 -0.3186
14267TIP3    H164216   2.695   1.877   1.582  0.0216 -1.8370 -1.2751
14267TIP3    H264217   2.672   1.788   1.702  0.0268  1.5108  1.3503
14268TIP3   OH264218   6.340   2.392   3.969  0.3076  0.3499  0.5255
14268TIP3    H164219   6.425   2.436   3.965  0.2436  0.4877  0.6888
14268TIP3    H264220   6.291   2.439   4.036  0.2870 -0.0581  0.8003
14269TIP3   OH264221   0.008   4.455  12.022 -0.3968 -0.2254 -0.2663
14269TIP3    H164222   0.099   4.483  12.025 -0.3295 -0.4889  0.2147
14269TIP3    H264223  -0.032   4.511  11.956 -0.3898  1.3618  1.0185
14270TIP3   OH264224   3.235   4.177  12.484 -1.3233 -0.1564 -0.1726
14270TIP3    H164225   3.239   4.222  12.568  2.0544 -0.7454  0.1043
14270TIP3    H264226   3.241   4.084  12.506  1.3985 -0.2662 -1.0054
14271TIP3   OH264227   1.228   5.069  13.904 -0.4132  0.6941 -0.5234
14271TIP3    H164228   1.194   5.033  13.823 -0.6074  0.4036 -0.3155
14271TIP3    H264229   1.164   5.135  13.931  0.4035  1.8810 -1.3877
14272TIP3   OH264230   1.549   4.762   3.786 -0.0270  0.3915  0.3296
14272TIP3    H164231   1.549   4.846   3.739 -0.7554  0.1327 -0.1496
14272TIP3    H264232   1.572   4.698   3.718 -2.2242 -0.1405 -0.0008
14273TIP3   OH264233   5.718   1.801  10.474  0.3114 -0.7408  0.3651
14273TIP3    H164234   5.749   1.743  10.544  1.8622 -0.9375 -0.4433
14273TIP3    H264235   5.784   1.871  10.470  0.4828 -0.9484 -1.1518
14274TIP3   OH264236   6.606   0.809  16.534 -0.3296 -0.2155  0.3253
14274TIP3    H164237   6.620   0.892  16.487  1.2611 -0.3037  0.6126
14274TIP3    H264238   6.526   0.825  16.585 -1.3110  0.3570 -1.2967
14275TIP3   OH264239   2.114   6.326   5.519 -0.0900 -1.0638  0.0573
14275TIP3    H164240   2.019   6.317   5.506 -0.4434  1.2710  0.5885
14275TIP3    H264241   2.144   6.370   5.440  0.1032  0.4203  0.9208
14276TIP3   OH264242   4.107   1.316   2.093 -0.7125 -0.1859 -0.2653
14276TIP3    H164243   4.024   1.344   2.055 -0.1458  2.0073  0.0150
14276TIP3    H264244   4.152   1.272   2.021 -0.5656  1.9756 -1.5934
14277TIP3   OH264245   2.049   6.781   0.899 -0.1356  0.3988  0.5965
14277TIP3    H164246   1.971   6.808   0.850  0.0005  1.1606  0.7772
14277TIP3    H264247   2.112   6.853   0.885 -0.0187  0.5338  1.7136
14278TIP3   OH264248   5.018   0.337  16.630 -0.2645  0.2352  0.3255
14278TIP3    H164249   5.110   0.340  16.656  0.0472  1.3166 -0.7961
14278TIP3    H264250   4.989   0.248  16.652  1.6197 -0.8320 -1.1868
14279TIP3   OH264251   6.278   0.341  14.921 -0.2887 -0.5371  0.2015
14279TIP3    H164252   6.331   0.263  14.933  1.3341 -0.0954 -2.9431
14279TIP3    H264253   6.336   0.413  14.947 -1.2471 -0.2409  1.6441
14280TIP3   OH264254   1.963   2.256   3.306 -0.2757  0.1014 -0.3904
14280TIP3    H164255   2.026   2.324   3.281  0.7226 -1.1462 -1.4221
14280TIP3    H264256   1.878   2.293   3.283  0.3373  0.5726 -2.0556
14281TIP3   OH264257   4.553   3.589  12.421  0.4984 -0.0178 -0.4293
14281TIP3    H164258   4.534   3.524  12.488  1.4281  0.6419  0.5021
14281TIP3    H264259   4.468   3.612  12.385 -0.0611 -0.1267  0.7837
14282TIP3   OH264260   2.574   3.794  14.540  0.6458  0.1265  0.5471
14282TIP3    H164261   2.622   3.715  14.564  0.1732  0.0645  1.2907
14282TIP3    H264262   2.620   3.865  14.584  0.3826  0.1313  0.8145
14283TIP3   OH264263   2.263   4.501   3.036  0.3816  0.4261 -0.0426
14283TIP3    H164264   2.253   4.430   2.972 -0.1502  0.1861  0.2969
14283TIP3    H264265   2.249   4.581   2.986 -0.7972  0.2057 -0.0836
14284TIP3   OH264266   5.029   5.766  16.781  0.1571 -0.7670  0.5715
14284TIP3    H164267   5.067   5.766  16.868  0.1856 -0.8373  0.5588
14284TIP3    H264268   5.071   5.693  16.736 -1.7529 -2.4418  1.3463
14285TIP3   OH264269   1.040   6.430  14.016  0.3840 -0.0194  0.0662
14285TIP3    H164270   1.086   6.347  14.000 -0.3323 -0.4332  0.1445
14285TIP3    H264271   1.097   6.476  14.077  1.1981 -0.0978 -0.6062
14286TIP3   OH264272   0.382   4.858   6.266 -0.2608 -0.5240  0.2128
14286TIP3    H164273   0.290   4.835   6.255 -0.1481 -0.2698 -1.6209
14286TIP3    H264274   0.421   4.783   6.312 -1.0834 -1.2941 -0.3249
14287TIP3   OH264275   5.031   0.491   0.661 -0.3016  0.1592 -0.0417
14287TIP3    H164276   4.981   0.516   0.584  0.0693 -0.7025 -0.5782
14287TIP3    H264277   5.090   0.564   0.677 -0.4329  0.3739 -0.5333
14288TIP3   OH264278   4.708   0.582  15.000  0.2018  0.8238 -0.4640
14288TIP3    H164279   4.711   0.543  15.088  0.5623  0.1460 -0.7763
14288TIP3    H264280   4.651   0.659  15.011 -1.4242 -0.3707 -0.0614
14289TIP3   OH264281   0.452   4.466  13.998 -0.5174  0.6503  0.4337
14289TIP3    H164282   0.419   4.386  13.958  1.0850 -0.1867  0.7104
14289TIP3    H264283   0.450   4.449  14.092 -0.0877  0.9034  0.4915
14290TIP3   OH264284   2.463   5.361  12.863  0.0958  0.3289 -0.0895
14290TIP3    H164285   2.521   5.415  12.917  1.5912 -2.0401  0.8718
14290TIP3    H264286   2.523   5.307  12.811 -1.2756 -0.7945 -0.5603
14291TIP3   OH264287   6.489   0.195   5.681  0.4005 -0.2766 -0.4014
14291TIP3    H164288   6.531   0.160   5.602 -0.6619 -0.7491 -0.7693
14291TIP3    H264289   6.529   0.146   5.753  1.5817  0.3536 -0.6065
14292TIP3   OH264290   6.350   6.265  15.025 -0.0570 -0.1280 -0.0057
14292TIP3    H164291   6.280   6.274  14.961 -1.4360  0.7557  1.5535
14292TIP3    H264292   6.307   6.226  15.102  1.3328 -0.3080  0.7080
14293TIP3   OH264293   3.995   5.421   3.886 -0.8439 -0.3130  0.0118
14293TIP3    H164294   4.053   5.450   3.816 -0.2463 -0.7069  0.3322
14293TIP3    H264295   3.907   5.442   3.855 -0.5731 -0.2930 -0.7603
14294TIP3   OH264296   0.721   2.969   4.214 -0.4494  0.0299  0.4316
14294TIP3    H164297   0.657   2.951   4.144  0.8859 -0.2175 -0.7729
14294TIP3    H264298   0.702   3.058   4.242 -0.0359  0.7206 -1.3632
14295TIP3   OH264299   4.120   1.426  17.101  0.3742  0.0130 -0.0977
14295TIP3    H164300   4.026   1.416  17.112  0.7833 -2.2472  2.1593
14295TIP3    H264301   4.139   1.386  17.016 -0.6672  0.7464 -0.7038
14296TIP3   OH264302   1.350   1.356  16.176 -0.6459 -0.1302  0.7705
14296TIP3    H164303   1.355   1.276  16.124  1.3587 -1.0198  2.1929
14296TIP3    H264304   1.257   1.378  16.179 -1.1107 -1.7662 -0.5903
14297TIP3   OH264305   1.720   4.956   2.177  0.2237  0.1323 -0.3278
14297TIP3    H164306   1.746   4.906   2.255  0.9393  2.0999  0.7681
14297TIP3    H264307   1.628   4.933   2.164  0.6350 -1.7953 -0.1754
14298TIP3   OH264308   6.570   2.227   6.506 -0.5861 -0.4400  0.3288
14298TIP3    H164309   6.637   2.289   6.478 -1.7058  1.1462  1.0000
14298TIP3    H264310   6.530   2.268   6.583  0.3163 -3.1926  2.4410
14299TIP3   OH264311   3.953   1.063  13.829 -0.2740  0.2674 -0.1732
14299TIP3    H164312   3.997   1.095  13.750  1.1340 -0.5868  0.2250
14299TIP3    H264313   3.903   0.988  13.799  0.4354 -0.1924 -0.2339
14300TIP3   OH264314   5.158   3.306  13.387  1.1761 -0.3139  0.2855
14300TIP3    H164315   5.225   3.374  13.388 -1.1527  2.2820 -1.9030
14300TIP3    H264316   5.130   3.303  13.295 -1.0727 -1.8919  0.9513
14301TIP3   OH264317   1.824   5.310   2.522 -0.2299 -0.5930 -0.5034
14301TIP3    H164318   1.881   5.291   2.447 -1.2931 -2.8147 -0.8374
14301TIP3    H264319   1.882   5.306   2.598  0.3717 -1.2033 -0.9781
14302TIP3   OH264320   6.600   3.291   5.018 -0.2032  0.0525 -0.5496
14302TIP3    H164321   6.517   3.276   5.065  1.0625 -0.5961  1.6323
14302TIP3    H264322   6.574   3.332   4.936 -2.6079  1.1923  0.6731
14303TIP3   OH264323   0.843   2.932   3.800  0.0254 -0.0384 -0.3940
14303TIP3    H164324   0.869   2.846   3.832  1.6632  0.8753  0.9142
14303TIP3    H264325   0.901   2.948   3.725  2.2638  1.2966  1.4909
14304TIP3   OH264326   3.871   1.742   5.540  0.1469  0.3764 -0.1257
14304TIP3    H164327   3.885   1.812   5.477 -0.4824  0.4749 -0.1610
14304TIP3    H264328   3.806   1.685   5.500  1.6861 -1.0413 -0.7286
14305TIP3   OH264329   0.213   1.698   0.803  0.4255 -0.0542  0.5431
14305TIP3    H164330   0.239   1.638   0.733 -0.5375  0.4214 -0.2317
14305TIP3    H264331   0.255   1.781   0.780  0.4395 -0.0049  0.7485
14306TIP3   OH264332   5.913   2.939  11.379 -0.0567  0.0726 -0.6921
14306TIP3    H164333   5.827   2.926  11.419  0.0403  0.3516 -0.3850
14306TIP3    H264334   5.896   2.997  11.305  0.1021  1.5663  0.3960
14307TIP3   OH264335   1.485   2.244  14.241 -0.1521  0.2847  0.2529
14307TIP3    H164336   1.578   2.235  14.260  0.0368  1.9785  0.2737
14307TIP3    H264337   1.459   2.324  14.287 -1.1193  1.0063 -1.4591
14308TIP3   OH264338   6.354   4.468  15.628 -0.1401  0.1076  0.2101
14308TIP3    H164339   6.304   4.428  15.557 -1.2972 -0.4186  1.2665
14308TIP3    H264340   6.380   4.394  15.684  1.1035  0.4679  0.1360
14309TIP3   OH264341   2.773   1.043   2.601 -0.0405  0.2754 -0.7240
14309TIP3    H164342   2.857   1.044   2.645  0.0855  2.8808 -0.9073
14309TIP3    H264343   2.757   1.133   2.575 -1.6268 -0.5837 -3.1406
14310TIP3   OH264344   2.026   1.847   0.329 -0.0543  0.4404 -0.0409
14310TIP3    H164345   2.075   1.840   0.248  1.0520 -1.0309  0.7073
14310TIP3    H264346   1.978   1.930   0.321  2.6372  2.0564 -0.7573
14311TIP3   OH264347   0.324   5.170   1.517  0.0194 -0.4332  0.3632
14311TIP3    H164348   0.292   5.142   1.602  0.8156  0.5225  1.0094
14311TIP3    H264349   0.251   5.218   1.478 -0.0654 -0.1442  0.8769
14312TIP3   OH264350   2.105   0.153   3.866 -0.0460  0.1345  0.2812
14312TIP3    H164351   2.145   0.075   3.906  0.6307  0.9371  1.2085
14312TIP3    H264352   2.173   0.188   3.809 -0.0598  0.4875  0.4774
14313TIP3   OH264353   0.449   0.911   2.391 -0.3388  0.0306 -0.0266
14313TIP3    H164354   0.425   0.828   2.351  2.8134  0.3127 -2.9726
14313TIP3    H264355   0.381   0.972   2.362 -1.6332 -1.0400  0.5961
14314TIP3   OH264356   5.950   0.611   0.584  0.4358  0.5257  0.5617
14314TIP3    H164357   5.978   0.543   0.646 -0.9543  0.8296  1.5561
14314TIP3    H264358   6.031   0.637   0.540  1.2095 -0.8126  1.1295
14315TIP3   OH264359   3.876   4.510   0.405 -0.2460  0.1083  0.0381
14315TIP3    H164360   3.828   4.546   0.479 -0.9569  0.8493 -0.7641
14315TIP3    H264361   3.967   4.503   0.436 -0.3698  1.2078  0.7015
14316TIP3   OH264362   0.035   2.092  15.453 -0.2739  0.1023 -0.2768
14316TIP3    H164363   0.067   2.181  15.468  0.2728 -0.2374  0.6886
14316TIP3    H264364  -0.060   2.101  15.451 -0.2167  0.7292 -0.2952
14317TIP3   OH264365   3.389   5.011   2.599 -0.8517 -0.3913 -0.0570
14317TIP3    H164366   3.409   5.004   2.692 -1.7897 -0.5389  0.1433
14317TIP3    H264367   3.298   4.981   2.591 -0.8678 -0.1484 -0.9826
14318TIP3   OH264368   0.377   4.595   6.033  0.0568 -0.3012  0.0671
14318TIP3    H164369   0.296   4.552   6.004  1.0189 -1.1424 -1.5440
14318TIP3    H264370   0.348   4.668   6.087 -2.0248  1.6233 -3.2635
14319TIP3   OH264371   3.486   6.098   0.697  0.3119  0.0686 -0.1889
14319TIP3    H164372   3.443   6.014   0.712 -0.6579  0.5201 -0.3231
14319TIP3    H264373   3.427   6.162   0.739  2.0596  0.5040  1.7599
14320TIP3   OH264374   4.894   5.520  16.554  0.0825  0.4088 -0.1656
14320TIP3    H164375   4.817   5.531  16.609  0.0774  2.8271 -0.5516
14320TIP3    H264376   4.967   5.548  16.609  0.4629 -0.0505 -0.4277
14321TIP3   OH264377   5.544   5.056  16.455 -0.5972 -0.2298 -0.6406
14321TIP3    H164378   5.575   5.004  16.381  0.4684 -0.0823 -0.3273
14321TIP3    H264379   5.602   5.030  16.527 -0.7601  0.5945 -0.2075
14322TIP3   OH264380   3.204   0.165   4.157  0.6264  0.0891 -0.2613
14322TIP3    H164381   3.236   0.099   4.095 -0.9160 -1.0285  0.0888
14322TIP3    H264382   3.124   0.198   4.117 -1.2066 -1.6975  1.7245
14323TIP3   OH264383   3.455   1.160  14.558 -0.0886 -0.2465 -0.0525
14323TIP3    H164384   3.543   1.150  14.522 -0.0402 -0.2459  0.0688
14323TIP3    H264385   3.431   1.071  14.585  0.6794  0.0838  1.8374
14324TIP3   OH264386   2.809   3.830   0.180 -0.2474  0.1794  0.6946
14324TIP3    H164387   2.878   3.797   0.122 -0.4370  0.5351  0.2542
14324TIP3    H264388   2.851   3.840   0.265  0.2441  0.3839  0.4301
14325TIP3   OH264389   4.198   0.184   3.467  0.2253 -0.0173  0.5638
14325TIP3    H164390   4.174   0.245   3.396  0.2726  0.2307  0.7605
14325TIP3    H264391   4.216   0.101   3.422 -0.3095 -0.0149  0.3414
14326TIP3   OH264392   1.116   4.249  13.852 -0.0536  0.8132  0.0576
14326TIP3    H164393   1.167   4.170  13.870  0.7942  0.8551 -1.8457
14326TIP3    H264394   1.040   4.218  13.803 -0.0660  1.1000 -0.1061
14327TIP3   OH264395   6.148   6.608  16.464  0.2809 -0.1234  0.1608
14327TIP3    H164396   6.134   6.701  16.450  0.8983 -0.1247 -0.4931
14327TIP3    H264397   6.225   6.587  16.412 -0.0770 -1.0821 -0.0033
14328TIP3   OH264398   1.685   0.194  12.861  0.4072  0.2794 -0.3927
14328TIP3    H164399   1.708   0.267  12.802  0.1059  0.6763 -0.0182
14328TIP3    H264400   1.606   0.222  12.905  0.8505  0.1483  0.5051
14329TIP3   OH264401   3.564   5.215   1.463  0.4747  0.2166  0.1628
14329TIP3    H164402   3.587   5.303   1.494  1.4899  0.3884 -0.9769
14329TIP3    H264403   3.540   5.229   1.371 -0.1015 -0.5997  0.1832
14330TIP3   OH264404   3.566   6.383   0.108  0.4339  0.0003  0.1136
14330TIP3    H164405   3.651   6.423   0.088  0.0423  0.6301 -0.3126
14330TIP3    H264406   3.528   6.365   0.022 -0.6425  1.4090  0.2620
14331TIP3   OH264407   2.441   6.558   2.734  0.7334 -0.5257 -0.0326
14331TIP3    H164408   2.489   6.491   2.784 -1.9817 -1.5185  1.4899
14331TIP3    H264409   2.431   6.631   2.795  3.3864  1.3006 -1.5783
14332TIP3   OH264410   3.494   3.238   3.020  0.0022  0.0632 -0.2197
14332TIP3    H164411   3.542   3.293   2.959  2.0774 -1.1450  0.2300
14332TIP3    H264412   3.541   3.248   3.103 -1.3628 -0.1206  0.5964
14333TIP3   OH264413   4.195   1.025  16.095  0.0783 -0.1911 -0.1989
14333TIP3    H164414   4.166   1.026  16.004 -2.0120  1.1475  0.4153
14333TIP3    H264415   4.125   0.979  16.142  0.8989 -0.4483  0.8033
14334TIP3   OH264416   0.487   3.877  13.520  0.1872  0.7422 -0.3459
14334TIP3    H164417   0.541   3.953  13.495  0.5512  0.6586  0.1676
14334TIP3    H264418   0.539   3.801  13.495 -1.0306  0.5964 -2.7569
14335TIP3   OH264419   6.066   5.591   5.148 -0.2129 -0.6731 -0.0536
14335TIP3    H164420   6.071   5.613   5.241 -1.8429 -2.1343  0.4516
14335TIP3    H264421   5.976   5.615   5.123  0.5969  0.9450 -1.6456
14336TIP3   OH264422   5.746   0.667   1.234 -0.0512  0.1091 -0.0233
14336TIP3    H164423   5.714   0.725   1.165  0.5704  0.7089  0.1888
14336TIP3    H264424   5.712   0.580   1.210 -0.3853  0.4286 -0.7228
14337TIP3   OH264425   4.770   6.444  15.023 -0.1589  0.1715  0.4285
14337TIP3    H164426   4.715   6.377  14.982  0.2438  1.1572 -1.8451
14337TIP3    H264427   4.860   6.417  15.003  0.0241  0.9939  0.1260
14338TIP3   OH264428   5.364   6.302   3.860 -0.4306 -0.1831 -0.2411
14338TIP3    H164429   5.274   6.272   3.870 -0.9774  1.9596  2.2019
14338TIP3    H264430   5.359   6.372   3.796 -0.2945 -0.7257 -0.8587
14339TIP3   OH264431   0.850   4.207  16.939 -0.1383 -0.2718 -0.2077
14339TIP3    H164432   0.863   4.161  17.022  1.3732  0.4320 -0.0133
14339TIP3    H264433   0.868   4.140  16.872  1.5745 -0.1317  0.0682
14340TIP3   OH264434   2.498   2.095   3.717 -0.1070  0.2145 -0.3782
14340TIP3    H164435   2.471   2.049   3.797  0.0037 -1.0656 -1.0569
14340TIP3    H264436   2.426   2.080   3.656  0.2172  0.4164 -0.8112
14341TIP3   OH264437   1.493   4.307  16.033  0.3642  0.8107  0.1216
14341TIP3    H164438   1.450   4.300  16.118 -0.0778  0.3689 -0.1358
14341TIP3    H264439   1.424   4.335  15.973 -0.2616 -2.2658 -0.7953
14342TIP3   OH264440   0.047   3.853   6.642  0.5117  0.4355 -0.2203
14342TIP3    H164441   0.002   3.790   6.585  0.3338 -1.0902  1.5100
14342TIP3    H264442   0.120   3.804   6.680  0.4190  1.2756  1.1140
14343TIP3   OH264443   4.527   2.163   3.253  0.7160 -0.1493 -0.4105
14343TIP3    H164444   4.490   2.166   3.165  0.7780 -1.1187 -0.4787
14343TIP3    H264445   4.620   2.182   3.240  0.8652 -1.0069 -0.6530
14344TIP3   OH264446   4.945   3.979  13.843 -0.3671  0.0981  0.1795
14344TIP3    H164447   4.856   3.946  13.843  0.0267 -1.0148 -0.0932
14344TIP3    H264448   4.950   4.035  13.920 -0.7640 -1.3749  1.3205
14345TIP3   OH264449   5.970   6.658   3.462  0.5425  0.1241 -0.3128
14345TIP3    H164450   5.967   6.723   3.533 -0.5522 -0.2915  0.0433
14345TIP3    H264451   5.979   6.574   3.507 -0.5167 -0.1769 -0.6298
14346TIP3   OH264452   2.152   2.007   2.648  0.0740  0.1562 -0.2392
14346TIP3    H164453   2.067   1.984   2.609  0.1601  0.4487 -0.6015
14346TIP3    H264454   2.216   1.963   2.593  0.1975  0.5868 -0.4442
14347TIP3   OH264455   5.647   5.515  11.842 -0.0078 -0.3234 -0.6131
14347TIP3    H164456   5.662   5.422  11.861 -1.4651 -0.5104 -0.2727
14347TIP3    H264457   5.729   5.545  11.804  0.5542 -1.7066 -0.5521
14348TIP3   OH264458   5.198   2.727  12.178  0.1240 -0.1281  0.2794
14348TIP3    H164459   5.114   2.684  12.191 -0.1532  0.1150 -0.6446
14348TIP3    H264460   5.178   2.820  12.174  0.5791  0.0190  1.1224
14349TIP3   OH264461   0.395   3.417  14.741 -0.2295  0.7758 -0.2601
14349TIP3    H164462   0.367   3.347  14.800 -0.7762  1.0764 -0.1613
14349TIP3    H264463   0.315   3.464  14.719 -0.4234 -0.6898 -3.0456
14350TIP3   OH264464   1.220   2.055  16.103  0.6767 -0.7207 -0.0177
14350TIP3    H164465   1.139   2.006  16.112  0.5093 -0.4352  0.0628
14350TIP3    H264466   1.235   2.093  16.189 -0.2613  0.9948 -0.5426
14351TIP3   OH264467   1.559   4.683  15.124  0.6343 -0.3543  0.2352
14351TIP3    H164468   1.590   4.770  15.150  1.8266 -0.4848 -0.7000
14351TIP3    H264469   1.585   4.626  15.196  0.0615  0.0041  0.7411
14352TIP3   OH264470   2.765   2.146   4.924  0.4970  0.1911  0.2416
14352TIP3    H164471   2.815   2.124   5.003  0.9632  0.8391  0.1329
14352TIP3    H264472   2.830   2.183   4.864  0.3597 -1.3258 -0.8859
14353TIP3   OH264473   3.912   1.575  14.728 -0.4755 -0.0428 -0.0848
14353TIP3    H164474   3.860   1.605  14.653 -0.4654 -0.2426 -0.1716
14353TIP3    H264475   3.977   1.644  14.740  0.8927 -0.9777 -1.6107
14354TIP3   OH264476   0.953   4.034   5.507  0.7029 -0.0818 -0.5936
14354TIP3    H164477   0.984   3.978   5.578  1.9510  0.4497 -0.6813
14354TIP3    H264478   0.931   4.117   5.549  0.4608 -0.1014 -0.6829
14355TIP3   OH264479   5.423   6.074   0.407 -0.4109  0.2988  0.4582
14355TIP3    H164480   5.385   6.113   0.328  1.4852  0.8527 -0.2430
14355TIP3    H264481   5.389   5.984   0.407  0.1684  0.0109 -1.4978
14356TIP3   OH264482   6.317   4.730  16.538 -0.9590 -0.2280 -0.3119
14356TIP3    H164483   6.294   4.641  16.512 -1.4877 -0.0975 -0.3066
14356TIP3    H264484   6.401   4.722  16.582 -1.0004 -0.7216 -0.3267
14357TIP3   OH264485   6.329   2.808   2.245  0.7429  0.4083  0.1789
14357TIP3    H164486   6.416   2.810   2.285 -0.2978 -0.4996  2.7241
14357TIP3    H264487   6.297   2.898   2.252  1.6844  0.8984 -1.3956
14358TIP3   OH264488   5.983   2.623  14.210  1.0177 -0.2216 -0.4901
14358TIP3    H164489   6.038   2.701  14.223 -0.3863  0.6949  0.2478
14358TIP3    H264490   5.909   2.637  14.269  0.6122 -2.0265 -0.5317
14359TIP3   OH264491   1.718   1.803  13.922 -0.0588  0.1242  0.5359
14359TIP3    H164492   1.693   1.729  13.868  2.1783 -0.4496  0.2055
14359TIP3    H264493   1.761   1.765  13.998  1.3682  1.0674  0.2326
14360TIP3   OH264494   5.423   3.933  16.901 -0.2016  0.2599 -0.1443
14360TIP3    H164495   5.466   3.964  16.821 -0.0981 -0.8090 -0.5210
14360TIP3    H264496   5.337   3.901  16.872  0.2005 -1.0181 -0.0157
14361TIP3   OH264497   1.043   3.059   0.377  0.1014 -0.1440 -0.2583
14361TIP3    H164498   1.082   3.107   0.451 -0.6703  1.4180 -0.8249
14361TIP3    H264499   1.105   3.073   0.305  0.0050 -0.2345 -0.3580
14362TIP3   OH264500   5.981   5.782  15.324  0.2593  0.0258 -0.2795
14362TIP3    H164501   5.959   5.714  15.388 -0.3555  0.1621 -0.3482
14362TIP3    H264502   5.912   5.777  15.259 -0.1024  1.0955  0.0054
14363TIP3   OH264503   4.276   1.521   2.105  0.5728  0.0329 -0.6300
14363TIP3    H164504   4.254   1.585   2.173 -2.0459 -0.5305 -0.8434
14363TIP3    H264505   4.249   1.437   2.141  0.9447 -0.5244 -1.6068
14364TIP3   OH264506   6.509   2.753   5.322  0.4261  0.8665  0.0270
14364TIP3    H164507   6.514   2.846   5.345 -0.7343  0.6045  1.5020
14364TIP3    H264508   6.450   2.750   5.247  0.1844  1.2929  0.1975
14365TIP3   OH264509   6.106   1.383  13.857  0.5577  0.5556 -0.5548
14365TIP3    H164510   6.109   1.287  13.849  0.2852  0.6084 -1.3494
14365TIP3    H264511   6.013   1.404  13.854  0.6932  1.0184 -2.6947
14366TIP3   OH264512   5.189   3.939   1.976  0.1702 -0.6816 -0.0102
14366TIP3    H164513   5.169   4.008   1.912  0.8520  0.2441  0.7373
14366TIP3    H264514   5.203   3.860   1.923  0.9493  0.1186 -1.0384
14367TIP3   OH264515   6.182   4.233  11.311  0.0763  0.4380 -0.4107
14367TIP3    H164516   6.277   4.228  11.296  0.3807 -3.3104  1.6262
14367TIP3    H264517   6.170   4.319  11.351  2.3577  1.5452 -1.8284
14368TIP3   OH264518   1.004   5.685  11.614 -0.2006  0.2206  0.2722
14368TIP3    H164519   1.051   5.610  11.576 -0.5796 -0.5158  1.2125
14368TIP3    H264520   0.947   5.715  11.543 -1.7432 -1.8602  0.5136
14369TIP3   OH264521   2.119   6.361   0.135  0.4510 -0.4449 -0.0437
14369TIP3    H164522   2.041   6.415   0.129 -0.1417 -1.4016 -1.1239
14369TIP3    H264523   2.090   6.273   0.114  1.3849 -1.2497  1.7684
14370TIP3   OH264524   6.384   1.991   0.608 -0.1255 -0.3183  0.4518
14370TIP3    H164525   6.446   2.028   0.670 -0.6430 -0.4817  1.0739
14370TIP3    H264526   6.413   2.025   0.523  1.0326 -0.6985  0.6762
14371TIP3   OH264527   1.850   1.411   2.468 -0.0801 -0.0681 -0.2485
14371TIP3    H164528   1.861   1.343   2.401 -2.4515  0.5322 -1.3385
14371TIP3    H264529   1.797   1.478   2.426  0.8980  1.7708  1.3115
14372TIP3   OH264530   1.426   0.940   4.747  0.3038  0.3658 -0.0158
14372TIP3    H164531   1.420   1.036   4.748 -0.5288  0.3441  2.0599
14372TIP3    H264532   1.513   0.921   4.712  0.4308  1.8527 -0.5872
14373TIP3   OH264533   4.130   1.422   2.903 -0.4025 -0.3528 -0.1834
14373TIP3    H164534   4.117   1.506   2.946 -2.6746 -0.9110  0.3447
14373TIP3    H264535   4.136   1.444   2.810  2.0606  0.6258  0.1483
14374TIP3   OH264536   0.172   0.033  16.970 -0.1551  0.0324  0.1010
14374TIP3    H164537   0.223   0.055  17.047 -0.3610 -0.8611  0.5139
14374TIP3    H264538   0.236   0.031  16.899  0.0048  1.0452  0.2022
14375TIP3   OH264539   0.804   5.338  13.899 -0.0353 -0.4385  0.0707
14375TIP3    H164540   0.731   5.385  13.858  0.4239  0.2530  0.0328
14375TIP3    H264541   0.805   5.253  13.855 -1.4489 -0.8649  0.7717
14376TIP3   OH264542   2.586   6.399   2.902 -0.2976 -0.3112 -0.0578
14376TIP3    H164543   2.679   6.402   2.879 -0.4334 -0.8766 -0.7433
14376TIP3    H264544   2.557   6.313   2.870 -1.3674  0.4183 -1.1513
14377TIP3   OH264545   3.130   3.537  12.212 -0.0252  0.3866 -0.1905
14377TIP3    H164546   3.049   3.490  12.194 -0.6325  1.4544 -0.3503
14377TIP3    H264547   3.184   3.524  12.134  0.4453 -1.2668  0.3725
14378TIP3   OH264548   3.729   6.104  15.473 -0.0870 -0.1303 -0.4253
14378TIP3    H164549   3.708   6.193  15.501  0.3698 -0.0649 -0.2944
14378TIP3    H264550   3.649   6.073  15.430 -0.7396 -0.1699  0.7784
14379TIP3   OH264551   4.761   5.194  12.095 -0.2335 -0.7059 -0.6238
14379TIP3    H164552   4.742   5.101  12.106  0.5874 -0.9120 -0.8899
14379TIP3    H264553   4.857   5.198  12.089 -0.1845  0.2656  0.4321
14380TIP3   OH264554   4.536   2.289   0.072 -0.7493 -0.3027  0.9708
14380TIP3    H164555   4.593   2.362   0.051  0.6883 -1.5234  0.4675
14380TIP3    H264556   4.457   2.329   0.108  0.6657  1.4318  2.3197
14381TIP3   OH264557   3.045   1.949  10.460 -0.2567 -0.1254 -0.1226
14381TIP3    H164558   3.031   1.982  10.371  0.8042  1.3536  0.2312
14381TIP3    H264559   2.977   1.992  10.513 -1.7754 -2.0407 -0.3845
14382TIP3   OH264560   3.167   2.401   6.050 -0.4935  0.3200  0.1138
14382TIP3    H164561   3.078   2.404   6.015  0.8656  1.8391 -3.7924
14382TIP3    H264562   3.172   2.474   6.112 -2.1056 -0.2824  1.0029
14383TIP3   OH264563   4.012   0.242  11.554 -0.3725  0.0533  0.6242
14383TIP3    H164564   4.095   0.287  11.566 -1.7598  3.0597 -0.1432
14383TIP3    H264565   3.991   0.253  11.461 -1.3420 -1.2306  0.6586
14384TIP3   OH264566   4.132   6.373  12.057 -0.9630 -0.3792 -0.0779
14384TIP3    H164567   4.146   6.289  12.102 -0.8284 -0.0478  0.5023
14384TIP3    H264568   4.103   6.433  12.126 -2.1298 -0.2177 -0.6838
14385TIP3   OH264569   5.598   5.039  17.148 -0.4751 -0.0203  0.0804
14385TIP3    H164570   5.510   5.003  17.136  0.1301 -1.5563  0.0862
14385TIP3    H264571   5.653   4.987  17.089  0.2241  1.8783 -1.0437
14386TIP3   OH264572   6.643   4.951  16.902 -0.0515  0.0189 -0.6269
14386TIP3    H164573   6.731   4.919  16.880 -0.1865 -0.4998 -0.4368
14386TIP3    H264574   6.657   5.041  16.929  0.3301  0.1660 -1.2726
14387TIP3   OH264575   6.467   5.743  11.952 -0.2546 -0.2819 -0.6809
14387TIP3    H164576   6.463   5.678  12.023  0.9906 -1.1843 -1.3894
14387TIP3    H264577   6.451   5.827  11.995 -0.9484 -0.9595  0.4241
14388TIP3   OH264578   4.225   5.944  15.954  0.5283 -0.3086 -0.6043
14388TIP3    H164579   4.194   5.960  15.865 -1.1589  2.5175  0.3742
14388TIP3    H264580   4.170   5.873  15.986  0.6781 -0.8757 -1.5593
14389TIP3   OH264581   0.999   5.929   5.532  0.0944 -0.3261 -0.2429
14389TIP3    H164582   0.908   5.900   5.524  0.7197 -1.9665 -2.1034
14389TIP3    H264583   1.015   5.980   5.454  0.7726 -0.0259  0.0857
14390TIP3   OH264584   1.543   0.836   0.597  0.0841  0.4078  0.7560
14390TIP3    H164585   1.455   0.813   0.627  0.1221  0.4692  0.9126
14390TIP3    H264586   1.561   0.920   0.637  1.3535 -0.8908  3.1122
14391TIP3   OH264587   4.843   0.253   4.959 -0.0742 -0.8193 -0.0831
14391TIP3    H164588   4.794   0.274   4.879 -3.6689  0.1579  2.1231
14391TIP3    H264589   4.853   0.337   5.003  1.6509 -1.3741  0.6530
14392TIP3   OH264590   4.772   4.751   3.930 -0.1508 -0.3035 -0.0979
14392TIP3    H164591   4.736   4.749   4.018  1.9540  1.9527  0.9511
14392TIP3    H264592   4.723   4.685   3.882 -1.9037 -1.0679  2.5366
14393TIP3   OH264593   1.419   1.253  12.496 -0.6568 -0.0186  0.1084
14393TIP3    H164594   1.464   1.316  12.440 -1.6069  1.1145  0.5805
14393TIP3    H264595   1.382   1.190  12.435 -1.6837  1.1993 -0.5774
14394TIP3   OH264596   6.391   6.497   0.741  0.1123 -0.5207  0.1238
14394TIP3    H164597   6.313   6.469   0.788 -0.1770  1.5257  0.9747
14394TIP3    H264598   6.457   6.432   0.763 -1.0419 -1.6731  0.2806
14395TIP3   OH264599   4.362   1.876   1.807  0.4448  0.3197 -0.7008
14395TIP3    H164600   4.319   1.872   1.893  1.0390 -1.2597 -0.4602
14395TIP3    H264601   4.437   1.933   1.820  1.2476 -0.9038  0.1755
14396TIP3   OH264602   4.136   4.492  12.113 -0.2054 -0.2779  0.3515
14396TIP3    H164603   4.221   4.525  12.085 -0.4554  0.3049  0.2580
14396TIP3    H264604   4.084   4.571  12.129 -0.9756 -0.6209 -0.3655
14397TIP3   OH264605   0.143   5.866  12.511  0.2441 -0.0743  0.1135
14397TIP3    H164606   0.098   5.934  12.561 -0.7025  0.3551 -1.2634
14397TIP3    H264607   0.147   5.900  12.422 -2.3108 -2.6512 -1.1792
14398TIP3   OH264608   1.119   4.491  15.165 -0.0677 -0.2176 -0.8658
14398TIP3    H164609   1.164   4.411  15.138  1.4378  0.9887 -2.1199
14398TIP3    H264610   1.164   4.518  15.245  0.4555  0.1868 -1.2923
14399TIP3   OH264611   4.673   1.090   4.413  0.2817 -0.1551  0.7898
14399TIP3    H164612   4.585   1.055   4.424  0.2284 -0.1164  0.5008
14399TIP3    H264613   4.692   1.135   4.495  0.8212 -1.8441  1.6426
14400TIP3   OH264614   3.214   1.736  16.763 -0.5045 -0.3443  0.0548
14400TIP3    H164615   3.276   1.664  16.774  0.6892  0.9266  2.3358
14400TIP3    H264616   3.231   1.769  16.675  0.2569 -1.6392 -0.3074
14401TIP3   OH264617   3.502   1.987  14.359  0.4320  0.3330  0.5849
14401TIP3    H164618   3.446   2.044  14.413 -2.2810 -0.5738 -1.0957
14401TIP3    H264619   3.468   1.899  14.375  0.2054 -0.0562 -1.7809
14402TIP3   OH264620   1.683   3.884   3.100 -0.4734 -0.0940  0.1773
14402TIP3    H164621   1.699   3.790   3.088  0.5499  0.0424  0.3848
14402TIP3    H264622   1.614   3.888   3.166 -0.1573 -0.7032  0.5601
14403TIP3   OH264623   3.374   6.744  16.670  0.0717 -0.1368 -0.2634
14403TIP3    H164624   3.318   6.668  16.655 -1.6442  0.6672  1.4577
14403TIP3    H264625   3.397   6.739  16.763  0.9663  0.7770 -0.4166
14404TIP3   OH264626   4.936   4.066  14.141  0.2942  0.6096 -0.3302
14404TIP3    H164627   4.872   4.025  14.199 -1.1927 -0.6612 -2.6797
14404TIP3    H264628   4.934   4.159  14.165 -0.9459  0.2791  0.9917
14405TIP3   OH264629   5.350   5.939   1.059 -0.1451  0.0594  0.3792
14405TIP3    H164630   5.343   5.942   0.963  1.6345 -1.9406  0.1229
14405TIP3    H264631   5.303   5.859   1.084 -0.3022  0.3824  1.1388
14406TIP3   OH264632   0.947   2.729   1.821  0.0452 -0.0946 -0.0174
14406TIP3    H164633   1.036   2.740   1.852  0.2654 -0.8108 -0.3592
14406TIP3    H264634   0.930   2.805   1.765 -0.7986  1.9084  2.7532
14407TIP3   OH264635   6.402   3.127  11.489 -0.5335 -0.2059 -0.5000
14407TIP3    H164636   6.371   3.082  11.411 -1.9395 -1.3183  0.6448
14407TIP3    H264637   6.382   3.068  11.561  1.8127  0.2541  0.6379
14408TIP3   OH264638   0.573   2.408   1.951 -0.3505  0.4683  0.1517
14408TIP3    H164639   0.622   2.490   1.952 -0.4028  0.5082 -0.5105
14408TIP3    H264640   0.638   2.340   1.969 -0.1086  0.5516 -0.4074
14409TIP3   OH264641   1.202   4.063  14.757 -0.0697  0.0458 -0.4719
14409TIP3    H164642   1.235   3.980  14.792  0.1486  0.5080  0.4383
14409TIP3    H264643   1.259   4.082  14.682  0.7805  0.0808  0.1700
14410TIP3   OH264644   0.865   3.660   4.628  0.2709 -0.2737  0.1985
14410TIP3    H164645   0.868   3.661   4.532  1.5452  0.2879  0.2324
14410TIP3    H264646   0.943   3.612   4.655  1.1575  1.5070  0.9701
14411TIP3   OH264647   3.769   6.480   3.202 -0.0380  0.2730  0.1370
14411TIP3    H164648   3.827   6.549   3.236 -2.1197  1.7318  0.9021
14411TIP3    H264649   3.753   6.505   3.111 -0.7865  0.8196  0.4122
14412TIP3   OH264650   6.048   2.178  14.560 -0.2722 -0.1415 -0.1327
14412TIP3    H164651   6.096   2.114  14.508  0.6192  0.3686  0.0448
14412TIP3    H264652   6.043   2.256  14.505  1.4657  0.7115  0.8440
14413TIP3   OH264653   5.868   3.105   0.794  0.0793 -0.6845  0.1840
14413TIP3    H164654   5.936   3.089   0.860  0.4622 -2.3450 -0.5561
14413TIP3    H264655   5.798   3.043   0.817  0.0646 -1.0267 -0.7652
14414TIP3   OH264656   0.853   5.544  12.066 -0.4961  0.2516  0.0417
14414TIP3    H164657   0.801   5.614  12.106  0.0120  0.4252  0.4073
14414TIP3    H264658   0.931   5.538  12.121 -0.9464 -1.2256  0.5552
14415TIP3   OH264659   2.301   4.562  11.486 -0.3390  0.0475 -0.1139
14415TIP3    H164660   2.250   4.503  11.542 -0.8121 -0.3958 -0.9951
14415TIP3    H264661   2.356   4.611  11.548 -1.2601 -0.0157  0.7866
14416TIP3   OH264662   3.525   2.664   3.911 -0.3536  0.8036  0.0742
14416TIP3    H164663   3.476   2.587   3.884  0.1367  0.4576  0.1562
14416TIP3    H264664   3.614   2.632   3.927 -0.5618  1.0402  1.8704
14417TIP3   OH264665   5.626   2.033   4.604 -0.6575 -0.1129 -0.1643
14417TIP3    H164666   5.677   2.091   4.660  0.1712 -0.8823 -0.0900
14417TIP3    H264667   5.539   2.071   4.602  0.1645  1.8513 -1.1709
14418TIP3   OH264668   2.614   1.285   6.400 -0.4762 -0.2573 -0.3820
14418TIP3    H164669   2.686   1.227   6.424 -0.3407 -0.1467 -0.5156
14418TIP3    H264670   2.649   1.373   6.412 -0.6374 -0.2019 -0.3068
14419TIP3   OH264671   1.084   4.111   0.481  0.3262 -0.0030 -0.1653
14419TIP3    H164672   1.006   4.076   0.439  2.0920 -2.1011 -1.9149
14419TIP3    H264673   1.074   4.088   0.574 -0.6075 -1.2566 -0.5481
14420TIP3   OH264674   3.349   2.656  15.458 -0.4082  0.1968  0.1635
14420TIP3    H164675   3.353   2.569  15.419 -1.5055  0.0176  0.4040
14420TIP3    H264676   3.256   2.668  15.481  0.2706 -0.2510  3.8343
14421TIP3   OH264677   0.387   1.642  16.100  0.2785  0.4457  0.2294
14421TIP3    H164678   0.418   1.598  16.021  0.6287  1.1072 -0.0024
14421TIP3    H264679   0.433   1.597  16.172 -0.3036 -0.3889  0.1017
14422TIP3   OH264680   3.766   6.694   2.466 -0.1635 -0.1683 -0.0192
14422TIP3    H164681   3.794   6.667   2.379  0.1943  0.8197 -0.2240
14422TIP3    H264682   3.825   6.766   2.489 -0.1289 -0.5513  1.1242
14423TIP3   OH264683   6.637   6.024  13.329 -0.0306  0.2368 -0.0536
14423TIP3    H164684   6.685   5.963  13.385 -0.6431 -0.1571  0.0548
14423TIP3    H264685   6.660   5.997  13.240 -0.5021 -0.3368 -0.0131
14424TIP3   OH264686   3.012   1.220  15.180  0.0142 -0.8492  0.1296
14424TIP3    H164687   2.974   1.272  15.250  1.6028 -1.9347  1.8998
14424TIP3    H264688   3.102   1.252  15.172  0.2904 -1.7232 -0.3946
14425TIP3   OH264689   5.568   5.850  14.602 -0.4756  0.3967 -0.4729
14425TIP3    H164690   5.580   5.945  14.599 -0.9979  0.4512 -1.1196
14425TIP3    H264691   5.654   5.814  14.582  0.1616  0.7014  1.5031
14426TIP3   OH264692   0.035   4.711  16.229 -0.5034 -0.5310  0.3097
14426TIP3    H164693  -0.009   4.710  16.144 -3.1036 -1.6220  1.5912
14426TIP3    H264694   0.056   4.804  16.243  0.5350 -0.3802 -1.7131
14427TIP3   OH264695   5.954   2.564   0.166 -0.5867  0.8365  0.1815
14427TIP3    H164696   5.865   2.578   0.133  0.2619  1.1200 -2.1999
14427TIP3    H264697   5.968   2.470   0.160 -0.8749  0.7351  1.0173
14428TIP3   OH264698   4.688   4.447   2.314 -0.0677 -0.0404  0.0550
14428TIP3    H164699   4.723   4.367   2.354 -1.9359 -0.5782  0.7000
14428TIP3    H264700   4.704   4.436   2.220  0.6780 -0.6629  0.2475
14429TIP3   OH264701   5.786   0.690   3.057 -0.1506  0.3995  0.0977
14429TIP3    H164702   5.785   0.785   3.047  0.7947  0.4646  0.5620
14429TIP3    H264703   5.721   0.673   3.126 -1.1870  0.5855 -0.8022
14430TIP3   OH264704   4.520   2.087  12.443  0.2036 -0.2022 -0.3191
14430TIP3    H164705   4.561   2.049  12.521  1.0282  1.2853  0.0166
14430TIP3    H264706   4.444   2.031  12.426  0.3519 -0.9174  1.1926
14431TIP3   OH264707   6.105   1.065  17.132  0.2491 -0.6863  0.0414
14431TIP3    H164708   6.103   1.111  17.048  0.2026 -1.6710 -0.5117
14431TIP3    H264709   6.058   1.123  17.193  0.9332  0.3774 -0.4250
14432TIP3   OH264710   2.557   5.133   1.973  0.7981 -0.0186  0.9651
14432TIP3    H164711   2.469   5.136   1.936  1.1379 -1.5187 -0.0435
14432TIP3    H264712   2.605   5.072   1.917  3.3054  2.8181 -0.2557
14433TIP3   OH264713   5.124   0.651  16.327  0.3935  0.0527  0.3918
14433TIP3    H164714   5.194   0.650  16.261 -1.5312  1.4604 -1.7972
14433TIP3    H264715   5.108   0.559  16.346  3.0738 -0.3145  1.3030
14434TIP3   OH264716   6.552   4.715   1.975  0.1418  0.2103 -0.3052
14434TIP3    H164717   6.592   4.635   2.010 -0.9220 -0.5375 -0.7589
14434TIP3    H264718   6.489   4.741   2.042  2.1179  2.0850  0.9963
14435TIP3   OH264719   6.181   3.231   1.665  0.1191  0.2333 -0.0014
14435TIP3    H164720   6.181   3.318   1.703 -0.4788 -0.6935  2.3086
14435TIP3    H264721   6.274   3.209   1.655  0.3123  0.4896  1.0779
14436TIP3   OH264722   2.447   5.791   2.691  0.4173 -0.0518 -0.1894
14436TIP3    H164723   2.498   5.819   2.615  2.0816  1.9765  1.5459
14436TIP3    H264724   2.509   5.739   2.743 -0.1022  0.1550  0.6609
14437TIP3   OH264725   6.646   1.794  12.587 -0.5257  0.3732  0.3307
14437TIP3    H164726   6.655   1.746  12.669 -0.5581  0.6048  0.4720
14437TIP3    H264727   6.622   1.883  12.613  0.7929  0.8168  0.1445
14438TIP3   OH264728   5.081   0.372  14.590  0.2987 -0.5562  0.0100
14438TIP3    H164729   5.010   0.332  14.641 -1.4258  2.1912 -0.0093
14438TIP3    H264730   5.037   0.413  14.516  2.3105 -1.1094 -1.5679
14439TIP3   OH264731   1.932   1.593   5.533 -0.6004 -0.2891  0.5643
14439TIP3    H164732   1.966   1.594   5.623  2.7307 -0.3735 -0.5559
14439TIP3    H264733   1.866   1.524   5.534  0.2292 -1.1680  2.6769
14440TIP3   OH264734   1.839   4.769  16.017  0.2174 -0.2964 -0.1488
14440TIP3    H164735   1.840   4.854  16.059  1.5102 -0.7031  0.7052
14440TIP3    H264736   1.927   4.734  16.032 -0.6010 -2.2260  0.4443
14441TIP3   OH264737   0.536   6.416   4.248  0.3327  0.5637  0.2009
14441TIP3    H164738   0.557   6.505   4.276 -0.1567  0.9523 -0.6214
14441TIP3    H264739   0.541   6.364   4.328 -4.1311  2.1673  1.8193
14442TIP3   OH264740   0.775   0.089  12.090 -0.2534 -0.0963 -0.0393
14442TIP3    H164741   0.764   0.053  12.178 -2.8932  1.1496  0.2456
14442TIP3    H264742   0.708   0.157  12.084  2.1253  2.3161 -1.7963
14443TIP3   OH264743   4.437   2.250   0.325  0.3116  0.0680  0.0837
14443TIP3    H164744   4.526   2.285   0.318 -0.8183  3.0589 -0.7750
14443TIP3    H264745   4.449   2.161   0.359  3.5524  0.6650  0.8295
14444TIP3   OH264746   1.095   4.352  17.002 -0.3953  0.1345 -0.6545
14444TIP3    H164747   1.134   4.286  17.059 -5.1590  1.3543  4.9279
14444TIP3    H264748   1.015   4.311  16.969 -1.4156  1.7587 -0.3066
14445TIP3   OH264749   5.456   2.520   5.222  0.0677 -0.1610 -0.3902
14445TIP3    H164750   5.470   2.614   5.213 -0.4830  0.1239  1.3713
14445TIP3    H264751   5.361   2.511   5.232 -0.1482 -1.1494 -2.7190
14446TIP3   OH264752   5.790   6.669  16.024 -0.3532  0.1324 -0.2214
14446TIP3    H164753   5.703   6.703  16.003 -0.7683 -0.5069  0.4184
14446TIP3    H264754   5.774   6.582  16.061  0.4379  0.5913  1.3068
14447TIP3   OH264755   5.345   0.283   4.243 -0.1001 -0.5237 -0.3198
14447TIP3    H164756   5.333   0.345   4.172 -1.2225 -1.3544 -0.8863
14447TIP3    H264757   5.262   0.283   4.291 -0.0364 -1.3826 -0.1819
14448TIP3   OH264758   3.222   3.167  12.287 -0.4930  0.3077 -0.5685
14448TIP3    H164759   3.288   3.236  12.283 -0.4681  0.3228 -0.0204
14448TIP3    H264760   3.272   3.086  12.275 -0.1739  0.2300  1.0023
14449TIP3   OH264761   2.091   1.868  12.061 -0.5108  0.8584  0.0497
14449TIP3    H164762   2.011   1.818  12.047 -1.0311  1.4489  0.8249
14449TIP3    H264763   2.061   1.959  12.068  0.1346  1.0063  1.0779
14450TIP3   OH264764   3.794   4.361   0.190  0.3753 -0.3077 -0.4184
14450TIP3    H164765   3.804   4.427   0.259 -2.6773 -0.5133  0.3818
14450TIP3    H264766   3.819   4.279   0.232 -0.2976 -0.2678  0.0709
14451TIP3   OH264767   1.271   4.016  13.907  0.1404  0.1715 -0.0525
14451TIP3    H164768   1.257   3.980  13.820  0.2885 -0.9074  0.3561
14451TIP3    H264769   1.364   4.004  13.925 -0.0725 -0.5509  0.6442
14452TIP3   OH264770   5.294   2.361  13.960  0.6154 -0.2565  0.5112
14452TIP3    H164771   5.204   2.332  13.947  0.0279  1.9065 -0.8596
14452TIP3    H264772   5.345   2.315  13.894  0.3608 -0.8321  0.7151
14453TIP3   OH264773   4.725   6.612  15.765  0.2920  0.1632  0.0294
14453TIP3    H164774   4.745   6.537  15.708 -2.1292 -0.4305 -0.1345
14453TIP3    H264775   4.727   6.688  15.707  0.4681 -0.0767 -0.2841
14454TIP3   OH264776   3.927   2.983   4.597  0.1884 -0.1254 -0.2924
14454TIP3    H164777   4.001   2.922   4.592  0.6311  0.4674 -1.2241
14454TIP3    H264778   3.908   3.006   4.506 -0.4717  0.5327 -0.0019
14455TIP3   OH264779   5.717   5.020   3.224 -0.6365 -0.1220 -0.5602
14455TIP3    H164780   5.688   4.963   3.295  0.8074 -0.1409  0.0442
14455TIP3    H264781   5.680   4.981   3.145 -0.5176 -1.3134 -0.0442
14456TIP3   OH264782   1.765   2.014  15.472 -0.5188  0.0847  0.2615
14456TIP3    H164783   1.730   1.927  15.491 -0.1059  0.3993  2.8668
14456TIP3    H264784   1.699   2.074  15.505 -0.4417  0.7815 -0.7992
14457TIP3   OH264785   4.580   2.273   0.627 -0.1422 -0.6348 -0.2624
14457TIP3    H164786   4.545   2.346   0.577  0.2035 -1.0910 -1.1812
14457TIP3    H264787   4.502   2.232   0.666 -0.4297 -0.3972 -0.5819
14458TIP3   OH264788   3.743   1.798  17.058  0.3050  0.2843 -0.3210
14458TIP3    H164789   3.754   1.824  16.966 -1.9607 -2.0454 -1.3849
14458TIP3    H264790   3.663   1.841  17.085  1.2553  1.4047  0.8116
14459TIP3   OH264791   5.958   6.660  11.735 -0.7783 -0.3312  0.1148
14459TIP3    H164792   5.997   6.737  11.693  1.1152 -0.5626  1.3655
14459TIP3    H264793   6.025   6.629  11.795 -1.3310 -3.2336 -0.6435
14460TIP3   OH264794   0.099   0.433  13.664 -0.1754 -0.2344  0.1859
14460TIP3    H164795   0.067   0.360  13.612  0.4649 -0.3030 -0.1216
14460TIP3    H264796   0.093   0.403  13.755 -0.5569 -0.4062  0.1071
14461TIP3   OH264797   3.837   1.086   2.677  0.1341  0.4540  0.6361
14461TIP3    H164798   3.857   1.156   2.615 -0.0146  0.7467  0.9181
14461TIP3    H264799   3.921   1.068   2.720  0.9073 -1.5935 -1.4893
14462TIP3   OH264800   4.345   6.523   2.756  0.0023  0.6675 -0.2435
14462TIP3    H164801   4.365   6.530   2.663 -2.0404 -0.3956 -0.8319
14462TIP3    H264802   4.412   6.464   2.791 -0.5925 -0.9238 -1.6138
14463TIP3   OH264803   2.555   1.437   0.670  0.6272 -0.2243  0.1857
14463TIP3    H164804   2.521   1.349   0.657  0.7449 -0.2131 -0.2217
14463TIP3    H264805   2.614   1.430   0.746  1.8517 -0.8388 -0.7814
14464TIP3   OH264806   4.277   5.780  10.481  0.1936 -0.2976  0.0385
14464TIP3    H164807   4.236   5.697  10.508  0.0228 -0.4536 -0.6740
14464TIP3    H264808   4.360   5.754  10.442  0.2668 -0.1089  0.0707
14465TIP3   OH264809   0.595   4.334   3.060 -0.2624  0.0265  0.2428
14465TIP3    H164810   0.597   4.426   3.084 -2.2696  0.2759 -0.3486
14465TIP3    H264811   0.550   4.292   3.134  0.8168 -0.5228  0.6000
14466TIP3   OH264812   3.200   3.087   4.297  0.0912  0.2636 -0.1737
14466TIP3    H164813   3.249   3.168   4.308 -0.5423  0.4041  2.4439
14466TIP3    H264814   3.169   3.089   4.207 -0.3475  3.2133 -0.0537
14467TIP3   OH264815   5.262   0.245   6.109 -0.1634 -0.0718  0.1811
14467TIP3    H164816   5.270   0.230   6.203 -3.5167 -1.4089  0.4028
14467TIP3    H264817   5.251   0.340   6.101  0.8769  0.1369  1.0267
14468TIP3   OH264818   5.263   3.611   6.003 -0.0448 -0.4352 -0.1929
14468TIP3    H164819   5.340   3.558   5.984  1.7787  2.1535 -0.5488
14468TIP3    H264820   5.264   3.620   6.099  1.1657  0.9278 -0.2842
14469TIP3   OH264821   3.345   6.485   2.923 -0.1625  0.8780  0.8962
14469TIP3    H164822   3.343   6.539   3.002 -1.2126  0.6081  1.0661
14469TIP3    H264823   3.296   6.406   2.946  3.0580 -1.1852  1.3723
14470TIP3   OH264824   1.870   5.719   5.262 -0.5181 -0.2795  0.5647
14470TIP3    H164825   1.809   5.763   5.322 -0.3563  2.2421 -0.9476
14470TIP3    H264826   1.956   5.754   5.285 -0.3073 -0.1594 -0.3516
14471TIP3   OH264827   1.938   2.414   6.519  1.0226  0.0168  0.4970
14471TIP3    H164828   2.004   2.407   6.450  2.4379  1.6489  1.6318
14471TIP3    H264829   1.947   2.332   6.568  1.8906  0.0277  0.3790
14472TIP3   OH264830   2.182   2.076  13.755  0.2042  0.2564 -0.2018
14472TIP3    H164831   2.259   2.056  13.702  0.6842 -1.2813  1.0051
14472TIP3    H264832   2.203   2.042  13.842 -1.1851  1.3057  0.5824
14473TIP3   OH264833   2.442   6.352  15.857 -0.0537  0.1769  0.5358
14473TIP3    H164834   2.403   6.355  15.769 -2.1744  0.0385  1.4122
14473TIP3    H264835   2.403   6.275  15.898  2.3006 -0.8193  1.0339
14474TIP3   OH264836   0.135   5.503  13.947 -0.0387 -0.7116 -0.1471
14474TIP3    H164837   0.053   5.521  13.993  0.3565 -2.9494  1.5739
14474TIP3    H264838   0.108   5.463  13.864 -0.6861  0.1115 -0.3449
14475TIP3   OH264839   2.599   5.160   5.581 -0.0332  0.0790 -0.1628
14475TIP3    H164840   2.655   5.099   5.629  1.4124  0.9325 -0.7045
14475TIP3    H264841   2.551   5.208   5.649  0.5799 -0.0201  0.3452
14476TIP3   OH264842   0.261   2.389  14.335  0.1170  0.5512 -0.1310
14476TIP3    H164843   0.219   2.337  14.267 -1.3194 -1.2716  2.0198
14476TIP3    H264844   0.352   2.357  14.337 -0.5259 -1.3702  0.5667
14477TIP3   OH264845   2.648   1.267  16.341 -0.2944 -0.0624 -0.3032
14477TIP3    H164846   2.565   1.302  16.307  0.1380  0.4020 -0.9026
14477TIP3    H264847   2.715   1.307  16.286  0.2933 -1.0123 -0.2965
14478TIP3   OH264848   6.765   2.076   0.865 -0.1191 -0.8419 -0.3878
14478TIP3    H164849   6.728   2.045   0.948 -0.5767 -2.3102 -1.1103
14478TIP3    H264850   6.857   2.095   0.885 -0.9429  2.0886  1.2435
14479TIP3   OH264851   0.740   2.232   5.801 -0.1353  0.0355 -0.1198
14479TIP3    H164852   0.809   2.298   5.789 -0.0707  0.0437  0.2878
14479TIP3    H264853   0.739   2.216   5.895 -0.5210 -0.1501 -0.1571
14480TIP3   OH264854   5.859   6.730  16.633 -0.2620  0.5128 -0.0148
14480TIP3    H164855   5.934   6.787  16.616  0.1145  0.6832  1.9039
14480TIP3    H264856   5.833   6.697  16.547  1.1969  1.4661 -0.8648
14481TIP3   OH264857   2.842   2.506   1.316 -0.4530  0.3387  0.1598
14481TIP3    H164858   2.816   2.447   1.387  1.2595 -0.4255  0.2112
14481TIP3    H264859   2.874   2.447   1.247  2.5659  1.1295  0.7317
14482TIP3   OH264860   5.036   3.701   0.988 -0.5929 -0.3597  0.3879
14482TIP3    H164861   5.069   3.775   1.039 -2.3433 -0.3177  1.5778
14482TIP3    H264862   4.978   3.741   0.924 -3.4094 -0.6963  2.5181
14483TIP3   OH264863   2.418   4.202  15.163  0.4406 -0.3436 -0.1533
14483TIP3    H164864   2.421   4.236  15.073  2.9946  0.2874  0.0998
14483TIP3    H264865   2.473   4.262  15.213  0.7274 -1.8570  1.4282
14484TIP3   OH264866   2.123   6.109  14.284 -0.4214  0.0477  0.7314
14484TIP3    H164867   2.149   6.201  14.274 -0.0801 -0.2161 -0.9911
14484TIP3    H264868   2.199   6.068  14.327  1.5454 -0.3474 -2.7017
14485TIP3   OH264869   2.974   5.643  12.229  0.2095 -0.6394  0.1182
14485TIP3    H164870   3.037   5.634  12.158  2.1218 -0.8774  1.7455
14485TIP3    H264871   2.953   5.554  12.254  1.8071 -0.6308  1.6785
14486TIP3   OH264872   0.152   4.365   1.699 -0.0973 -0.7099  0.2638
14486TIP3    H164873   0.229   4.409   1.735  0.8040 -0.4593 -1.8253
14486TIP3    H264874   0.107   4.433   1.650 -0.4449 -1.3566 -0.3349
14487TIP3   OH264875   3.315   1.071  15.341  0.9504  0.1063 -0.3930
14487TIP3    H164876   3.311   1.154  15.294 -1.1309  1.3588  1.7768
14487TIP3    H264877   3.257   1.012  15.293 -2.3158  1.7926  1.1490
14488TIP3   OH264878   2.715   0.265  16.581  0.3755  0.0143  0.3752
14488TIP3    H164879   2.677   0.206  16.646 -0.1241 -0.1588 -0.0625
14488TIP3    H264880   2.664   0.346  16.588  0.5332  0.1100  0.4245
14489TIP3   OH264881   6.615   3.206  13.311 -0.2265 -0.5196 -0.1975
14489TIP3    H164882   6.709   3.189  13.314 -0.0941 -0.4059 -2.1227
14489TIP3    H264883   6.581   3.137  13.254 -1.1942 -0.1417 -0.0863
14490TIP3   OH264884   4.600   0.838  14.100  0.0995 -0.2565  0.0539
14490TIP3    H164885   4.588   0.780  14.176 -0.5380 -0.0996  0.0782
14490TIP3    H264886   4.535   0.808  14.037  0.6237 -0.3802 -0.4331
14491TIP3   OH264887   5.323   2.836   6.376  0.2436  0.9557 -0.2698
14491TIP3    H164888   5.414   2.848   6.403  1.4421 -1.0371 -3.0074
14491TIP3    H264889   5.327   2.814   6.283 -3.0038  0.0061 -0.3330
14492TIP3   OH264890   1.230   0.959   1.040 -0.2818 -0.0818  0.0685
14492TIP3    H164891   1.195   0.936   1.126  0.2682 -0.9875  0.0660
14492TIP3    H264892   1.155   0.993   0.992 -0.5060  0.8961  1.0512
14493TIP3   OH264893   3.534   3.384  16.200  0.0178  0.1520 -0.1134
14493TIP3    H164894   3.603   3.400  16.264  0.2849 -2.3676  0.3305
14493TIP3    H264895   3.457   3.430  16.235  0.6220  0.2923  1.0752
14494TIP3   OH264896   0.929   6.312  11.444 -0.0945  0.0141  0.1890
14494TIP3    H164897   1.020   6.322  11.415 -0.4938  0.4859 -0.9488
14494TIP3    H264898   0.928   6.228  11.491  0.6763 -0.5777 -0.8078
14495TIP3   OH264899   4.149   6.738   1.667  0.7038  0.0077  0.2769
14495TIP3    H164900   4.123   6.826   1.637 -0.1594 -0.2899  0.1272
14495TIP3    H264901   4.183   6.695   1.589  1.8182  0.4463  0.5029
14496TIP3   OH264902   5.129   3.218  12.704  0.1815  0.6159 -0.4773
14496TIP3    H164903   5.196   3.274  12.665  1.5234 -0.1014  0.7051
14496TIP3    H264904   5.112   3.152  12.637  1.1404  0.4405 -0.5711
14497TIP3   OH264905   6.091   5.188   5.872  0.0846 -0.1066 -0.0971
14497TIP3    H164906   6.025   5.258   5.873 -0.6783 -0.7836 -0.9774
14497TIP3    H264907   6.049   5.115   5.918  0.7805 -0.0815  0.5992
14498TIP3   OH264908   6.757   3.178   4.817 -0.4530 -0.6116  0.0308
14498TIP3    H164909   6.773   3.258   4.766 -0.5217 -0.1855  0.6659
14498TIP3    H264910   6.748   3.209   4.907  0.3743 -1.4334  0.4090
14499TIP3   OH264911   2.467   0.486   5.269 -0.5107  0.3490  0.0507
14499TIP3    H164912   2.562   0.484   5.264 -0.5661 -1.1726 -0.8475
14499TIP3    H264913   2.446   0.443   5.352 -0.4492 -0.9553 -0.5912
14500TIP3   OH264914   1.598   1.337  16.615  0.0053 -0.0403 -0.1738
14500TIP3    H164915   1.597   1.244  16.590  0.5424 -0.4772  1.2811
14500TIP3    H264916   1.691   1.355  16.632  0.0037  0.9993 -1.2173
14501TIP3   OH264917   3.867   6.440   3.986 -0.1868 -0.6780 -0.3430
14501TIP3    H164918   3.923   6.512   3.957  0.2358 -0.4198  1.0349
14501TIP3    H264919   3.920   6.393   4.051 -1.5665 -0.3575  1.0857
14502TIP3   OH264920   6.359   6.305  11.708 -1.0251  0.2735 -0.9634
14502TIP3    H164921   6.371   6.380  11.766  0.5397 -0.4640 -0.2704
14502TIP3    H264922   6.322   6.342  11.628 -2.8315  1.3807  0.3197
14503TIP3   OH264923   0.586   0.552   0.335 -0.5323  0.6267 -0.2744
14503TIP3    H164924   0.580   0.478   0.395  0.3913 -0.6451 -1.7035
14503TIP3    H264925   0.549   0.625   0.385 -0.5988 -0.5566  1.5171
14504TIP3   OH264926   3.804   0.102  13.510  0.5279 -0.4678 -0.1912
14504TIP3    H164927   3.789   0.079  13.418  0.5126  0.5778 -0.4564
14504TIP3    H264928   3.871   0.170  13.507  0.5467 -0.4512  0.5773
14505TIP3   OH264929   3.289   6.783   4.473  0.1922  0.1054  0.8157
14505TIP3    H164930   3.308   6.708   4.418  0.8484  1.6711 -1.2090
14505TIP3    H264931   3.194   6.778   4.489 -0.1430 -0.0655 -1.0295
14506TIP3   OH264932   4.163   5.335   0.397 -0.2525  0.0307  0.2399
14506TIP3    H164933   4.114   5.266   0.442  0.3872 -0.8870 -0.4457
14506TIP3    H264934   4.165   5.308   0.306  1.8103 -0.1414  0.2888
14507TIP3   OH264935   6.749   4.343   4.206 -0.3349 -0.0815 -0.1285
14507TIP3    H164936   6.787   4.271   4.155 -2.2863  0.5214 -2.6057
14507TIP3    H264937   6.797   4.340   4.289 -0.4170 -4.3488  0.0040
14508TIP3   OH264938   3.437   4.906  16.865 -0.5228  0.0968 -0.0153
14508TIP3    H164939   3.472   4.818  16.851  0.5514  0.0647  2.2916
14508TIP3    H264940   3.373   4.896  16.936 -1.1176  1.0463 -0.3853
14509TIP3   OH264941   1.259   0.695  14.044 -0.0141 -0.1944  0.0700
14509TIP3    H164942   1.287   0.663  13.958  0.0919  0.5592 -0.1840
14509TIP3    H264943   1.332   0.747  14.075  0.4051 -1.3716  1.1351
14510TIP3   OH264944   0.115   3.671  14.603  0.1233  0.2219  0.2223
14510TIP3    H164945   0.138   3.608  14.671 -1.5470 -0.1906  0.4561
14510TIP3    H264946   0.152   3.635  14.522  0.0205 -0.5536  0.5140
14511TIP3   OH264947   2.210   0.694   5.181 -0.1037  0.5887  0.0804
14511TIP3    H164948   2.278   0.634   5.212  0.6826  0.7159 -1.2989
14511TIP3    H264949   2.229   0.776   5.225  0.1408  0.4018  0.3306
14512TIP3   OH264950   2.754   4.293  16.584 -0.1576  0.4822 -0.1233
14512TIP3    H164951   2.729   4.351  16.656 -1.4234  1.5206 -1.3440
14512TIP3    H264952   2.724   4.338  16.505  0.3608 -1.0494 -1.2455
14513TIP3   OH264953   0.408   1.441   3.748 -0.6664 -0.5872  0.2001
14513TIP3    H164954   0.337   1.391   3.709  0.5565 -1.5331 -0.9102
14513TIP3    H264955   0.454   1.379   3.804  1.1322 -0.9173 -1.5409
14514TIP3   OH264956   4.902   0.320   3.815 -0.2715 -0.0629 -0.3369
14514TIP3    H164957   4.890   0.404   3.859  1.2758 -0.1275  0.2781
14514TIP3    H264958   4.817   0.278   3.820 -0.6984  0.8636  0.6558
14515TIP3   OH264959   5.100   6.036  15.062  0.2209 -0.1178 -0.4207
14515TIP3    H164960   5.135   5.981  15.132  1.2256  2.6153  1.4293
14515TIP3    H264961   5.024   6.079  15.102  0.7807  1.4482 -0.9726
14516TIP3   OH264962   3.093   5.706   1.721  0.0231 -0.3640  0.1749
14516TIP3    H164963   3.173   5.734   1.765  0.9648 -0.9256 -1.1145
14516TIP3    H264964   3.123   5.663   1.642 -1.6019  0.2823 -0.8458
14517TIP3   OH264965   5.903   4.486  13.561 -0.6649 -0.4100 -0.2553
14517TIP3    H164966   5.902   4.582  13.565  0.8328 -0.4057  0.5876
14517TIP3    H264967   5.853   4.459  13.638  1.0924 -0.2679  1.0004
14518TIP3   OH264968   5.798   2.975   1.598  0.6615 -0.2208 -1.1721
14518TIP3    H164969   5.720   3.026   1.579  0.1816 -0.2329  0.5808
14518TIP3    H264970   5.767   2.903   1.652  1.8637 -0.2243 -0.4430
14519TIP3   OH264971   4.707   0.053  17.122 -0.5455  0.0346  0.0180
14519TIP3    H164972   4.667  -0.033  17.112 -1.0697  0.3895 -1.0491
14519TIP3    H264973   4.653   0.111  17.068  2.0400  0.3455 -2.4466
14520TIP3   OH264974   5.602   3.198   3.773 -0.0157 -0.2918  0.6197
14520TIP3    H164975   5.524   3.151   3.743  0.0124 -1.0477  1.6809
14520TIP3    H264976   5.569   3.258   3.840  0.0546  0.7580 -0.2516
14521TIP3   OH264977   6.567   0.550  11.831 -0.2908 -0.1801 -0.1229
14521TIP3    H164978   6.568   0.547  11.736 -1.4667 -4.5107 -0.2033
14521TIP3    H264979   6.659   0.542  11.857  0.2126  2.5778 -0.7233
14522TIP3   OH264980   6.100   5.722   0.237  0.2010 -0.9820 -0.1176
14522TIP3    H164981   6.067   5.809   0.215  1.3787  0.1914  2.3363
14522TIP3    H264982   6.089   5.715   0.332  2.1781 -2.5807  0.0684
14523TIP3   OH264983   0.170   2.858   5.413  0.2551 -0.4239  0.2684
14523TIP3    H164984   0.193   2.881   5.323 -0.1220  1.0527  0.5230
14523TIP3    H264985   0.110   2.927   5.440 -1.6076 -2.1530  0.8395
14524TIP3   OH264986   3.633   4.305   4.237  0.1873  0.7929  0.0834
14524TIP3    H164987   3.640   4.321   4.143  0.0057  1.4276  0.1722
14524TIP3    H264988   3.694   4.233   4.254 -1.1751 -0.6137 -0.8178
14525TIP3   OH264989   2.552   4.552  14.302 -0.4719 -0.2931 -0.0066
14525TIP3    H164990   2.486   4.537  14.370 -2.5053 -0.0495 -1.7853
14525TIP3    H264991   2.546   4.475  14.245 -0.7069  0.6405 -1.3046
14526TIP3   OH264992   5.098   6.401  17.041  0.3598  0.0886 -0.7151
14526TIP3    H164993   5.180   6.409  16.993  0.3028  0.1350 -0.8063
14526TIP3    H264994   5.054   6.486  17.028  0.3175  0.0793 -0.6320
14527TIP3   OH264995   1.445   4.663  10.799  0.2389  0.4197  0.1393
14527TIP3    H164996   1.359   4.640  10.834  0.0009  2.4142  1.0315
14527TIP3    H264997   1.475   4.584  10.755 -1.7992 -0.5074  0.2920
14528TIP3   OH264998   0.581   5.409   4.999 -0.6682 -1.1861 -0.3812
14528TIP3    H164999   0.603   5.327   5.043  0.7888  0.5098  2.3377
14528TIP3    H265000   0.502   5.439   5.044 -0.8400 -0.8043 -0.9395
14529TIP3   OH265001   1.683   0.482  13.152 -0.4469  0.4357  0.2841
14529TIP3    H165002   1.616   0.443  13.208 -0.4213  0.1713  0.1350
14529TIP3    H265003   1.652   0.465  13.063 -0.5220  0.9123  0.2181
14530TIP3   OH265004   3.694   0.983   4.179 -0.7473  0.8534  0.1799
14530TIP3    H165005   3.711   0.987   4.085  0.1019 -0.8021  0.2244
14530TIP3    H265006   3.630   0.913   4.189  0.9180 -0.6173  0.9997
14531TIP3   OH265007   5.214   0.542  17.222 -0.0772  0.1916  0.2961
14531TIP3    H165008   5.135   0.516  17.270 -0.8741 -0.3850 -1.2755
14531TIP3    H265009   5.269   0.584  17.288 -0.8756 -1.0923  1.8528
14532TIP3   OH265010   5.694   2.131   2.082  0.0168  0.3814 -0.4963
14532TIP3    H165011   5.771   2.166   2.038  1.2394 -1.6090 -0.0719
14532TIP3    H265012   5.728   2.062   2.139 -2.0859 -0.6482 -0.3752
14533TIP3   OH265013   5.546   3.403   3.957 -0.4083 -0.5554 -0.1965
14533TIP3    H165014   5.567   3.470   3.892 -0.9608 -0.5124 -0.3328
14533TIP3    H265015   5.463   3.432   3.995 -0.1417 -0.6334  0.4590
14534TIP3   OH265016   1.774   4.268  13.584  0.3819  0.3427  0.2502
14534TIP3    H165017   1.714   4.202  13.619  1.1868 -0.3336  0.3918
14534TIP3    H265018   1.753   4.273  13.491  0.5722 -0.3934  0.1659
14535TIP3   OH265019   5.236   1.931  14.249 -0.1092  0.3362  0.1188
14535TIP3    H165020   5.246   1.951  14.156 -1.5924 -2.1508 -0.6872
14535TIP3    H265021   5.307   1.979  14.292  0.7030  1.4413 -2.2919
14536TIP3   OH265022   6.151   0.210  14.607  0.0663 -0.4294  0.0729
14536TIP3    H165023   6.211   0.229  14.680  3.0290 -3.7299 -1.2383
14536TIP3    H265024   6.148   0.292  14.558  1.3209  0.6669  1.6854
14537TIP3   OH265025   6.352   0.706  16.170 -0.4059  0.1439 -0.2744
14537TIP3    H165026   6.365   0.800  16.183 -0.1590  0.1844 -0.7883
14537TIP3    H265027   6.299   0.700  16.090  0.8629 -0.1946 -1.1166
14538TIP3   OH265028   6.486   2.907   3.415 -0.3937  0.2302 -0.2373
14538TIP3    H165029   6.528   2.883   3.498  0.3702 -0.3870 -0.7872
14538TIP3    H265030   6.523   2.992   3.393 -0.7774  0.5056  0.1690
14539TIP3   OH265031   0.543   0.616   1.546 -0.0500 -0.3175 -0.4400
14539TIP3    H165032   0.499   0.591   1.628 -0.8234 -1.2796 -1.1212
14539TIP3    H265033   0.500   0.697   1.519 -1.2972 -1.1320 -0.9869
14540TIP3   OH265034   1.508   6.743   5.134 -0.2576  0.4035  0.6528
14540TIP3    H165035   1.529   6.778   5.047  1.9274  1.8402  1.6687
14540TIP3    H265036   1.413   6.732   5.132 -0.2519  0.1687 -1.9780
14541TIP3   OH265037   6.220   6.596  15.239  0.2949  0.3492 -0.3030
14541TIP3    H165038   6.172   6.542  15.177  1.1771  0.3345 -0.9904
14541TIP3    H265039   6.256   6.533  15.302 -0.4357  0.3478  0.1284
14542TIP3   OH265040   0.772   1.544  10.443 -0.5595 -0.4148  0.0726
14542TIP3    H165041   0.694   1.494  10.416 -0.8967 -0.4632  1.0995
14542TIP3    H265042   0.772   1.538  10.538  0.6695 -0.3481  0.0845
14543TIP3   OH265043   3.391   1.046  16.907 -0.2957 -0.3002  0.3551
14543TIP3    H165044   3.415   0.998  16.987  1.6294 -0.5382 -0.3281
14543TIP3    H265045   3.463   1.031  16.847 -0.8862  1.3255 -0.8292
14544TIP3   OH265046   0.257   6.306  14.910 -0.3233  0.3138 -0.2331
14544TIP3    H165047   0.193   6.344  14.969 -1.8856 -0.9874 -1.0021
14544TIP3    H265048   0.206   6.247  14.854  1.7583 -2.1222  0.2401
14545TIP3   OH265049   3.459   5.673   0.133  0.1748 -0.2314  0.0445
14545TIP3    H165050   3.425   5.639   0.216 -0.2326 -0.6312 -0.2764
14545TIP3    H265051   3.544   5.711   0.156 -0.6737  1.2249  0.9534
14546TIP3   OH265052   3.025   4.604  11.230 -0.3363  0.1543 -0.2291
14546TIP3    H165053   3.091   4.602  11.299 -1.0295  0.4345  0.4594
14546TIP3    H265054   3.048   4.681  11.177 -0.3891  0.5390  0.2966
14547TIP3   OH265055   2.894   2.352  14.391  0.5384  0.0304  0.2297
14547TIP3    H165056   2.989   2.338  14.399  0.6615  0.8082  0.2072
14547TIP3    H265057   2.884   2.402  14.311  0.1580  0.4032  0.5079
14548TIP3   OH265058   6.308   2.450  14.762  0.0543 -0.1679  0.1648
14548TIP3    H165059   6.234   2.421  14.817 -0.6913  1.4665  0.0642
14548TIP3    H265060   6.308   2.545  14.770  0.3565  0.0678 -2.1168
14549TIP3   OH265061   4.510   0.050   0.209  0.6257 -0.3381 -0.3268
14549TIP3    H165062   4.418   0.069   0.192  0.6238 -1.3879 -1.6064
14549TIP3    H265063   4.517  -0.045   0.206  2.6310 -0.4138 -6.0125
14550TIP3   OH265064   4.338   6.061  16.765 -0.3440  0.4698  0.3511
14550TIP3    H165065   4.302   6.149  16.755  0.2795  0.5599 -1.2207
14550TIP3    H265066   4.368   6.036  16.678 -1.6682 -1.8139  0.4532
14551TIP3   OH265067   6.758   0.116  14.045 -0.3834 -0.5137 -0.1292
14551TIP3    H165068   6.792   0.037  14.002  1.1433 -0.7577  1.4037
14551TIP3    H265069   6.756   0.093  14.138 -1.6341  0.6788  0.1700
14552TIP3   OH265070   6.335   0.152   0.766 -0.6463  0.4496 -0.7162
14552TIP3    H165071   6.389   0.141   0.844 -0.8428 -0.5389 -0.7055
14552TIP3    H265072   6.300   0.240   0.773 -0.9130  0.2635  0.4771
14553TIP3   OH265073   3.351   2.915   4.891 -0.4313 -0.6286 -0.4987
14553TIP3    H165074   3.314   2.990   4.843 -1.1302  0.5961  1.7863
14553TIP3    H265075   3.275   2.859   4.908 -0.2393 -0.9101 -0.5749
14554TIP3   OH265076   5.929   5.153   4.168 -0.0569  0.2217  0.4808
14554TIP3    H165077   5.905   5.233   4.214  1.1069  0.4680  0.6950
14554TIP3    H265078   5.885   5.083   4.215  0.1837  0.5886  1.2604
14555TIP3   OH265079   5.592   0.299   0.678 -0.2831 -0.1561  0.0841
14555TIP3    H165080   5.582   0.221   0.732 -0.9484  1.0672  1.8290
14555TIP3    H265081   5.545   0.279   0.598 -1.2530 -1.2236  0.8847
14556TIP3   OH265082   3.846   3.294  17.100 -0.1902  0.2500 -0.5785
14556TIP3    H165083   3.915   3.232  17.123 -0.1947 -0.2623 -1.8886
14556TIP3    H265084   3.865   3.372  17.152  3.0068  1.1881 -2.9223
14557TIP3   OH265085   0.504   6.442   1.379  0.3518  0.0490  0.0950
14557TIP3    H165086   0.454   6.523   1.378 -1.0743 -0.7342  1.6910
14557TIP3    H265087   0.575   6.457   1.441  1.1220  0.6164 -0.9076
14558TIP3   OH265088   6.408   4.697   3.848  0.2509 -0.0759  0.3649
14558TIP3    H165089   6.477   4.715   3.913 -0.0785  0.2838  0.6222
14558TIP3    H265090   6.448   4.636   3.787  0.1792 -1.4280  1.5988
14559TIP3   OH265091   1.227   1.075   3.633 -0.8116 -0.2535 -0.2665
14559TIP3    H165092   1.226   1.036   3.721 -1.0568 -0.1751 -0.2327
14559TIP3    H265093   1.135   1.094   3.615 -0.8646 -1.0966 -0.9113
14560TIP3   OH265094   3.673   6.221   5.915 -0.6228 -0.2105 -0.0385
14560TIP3    H165095   3.633   6.250   5.833  0.1529  0.3300 -0.2299
14560TIP3    H265096   3.618   6.261   5.983  0.8658  2.4748 -0.2782
14561TIP3   OH265097   5.642   6.641  16.397  0.9261 -0.1666 -0.1742
14561TIP3    H165098   5.608   6.718  16.444  0.9594 -1.7062  2.5996
14561TIP3    H265099   5.587   6.569  16.428  2.8612 -1.7564 -0.2912
14562TIP3   OH265100   2.433   3.803  10.873  0.0937 -0.0149 -0.4220
14562TIP3    H165101   2.389   3.795  10.789 -0.4577 -1.6790 -0.0079
14562TIP3    H265102   2.416   3.720  10.918  2.0239  0.0573  0.5507
14563TIP3   OH265103   2.423   1.140   2.983  0.2671 -0.1371 -0.4628
14563TIP3    H165104   2.354   1.079   2.957  0.3808 -0.2194 -0.5723
14563TIP3    H265105   2.486   1.137   2.910  0.4316 -0.1322 -0.3210
14564TIP3   OH265106   1.029   1.158   4.601  0.1170  0.6305 -0.3970
14564TIP3    H165107   1.036   1.245   4.561 -2.2268  0.5334 -1.1962
14564TIP3    H265108   1.045   1.098   4.528  0.1398  0.3998 -0.2015
14565TIP3   OH265109   0.912   1.465  14.438 -0.6147  0.3370 -0.6407
14565TIP3    H165110   0.825   1.504  14.426 -2.1625 -1.7039  2.5305
14565TIP3    H265111   0.973   1.533  14.410 -3.1863  2.6388 -1.0686
14566TIP3   OH265112   2.523   1.291  14.719 -0.2458 -0.7905  0.2059
14566TIP3    H165113   2.540   1.334  14.635  0.4947 -2.1470 -0.3682
14566TIP3    H265114   2.587   1.328  14.779 -1.5669  1.1087  0.5614
14567TIP3   OH265115   1.495   4.381  12.638 -0.3454 -0.2574  0.5092
14567TIP3    H165116   1.467   4.335  12.558  0.1088  1.5782 -0.7760
14567TIP3    H265117   1.578   4.422  12.613 -0.0557  0.1240  2.0326
14568TIP3   OH265118   0.092   1.382  13.064 -0.3372  0.1309  0.2622
14568TIP3    H165119   0.157   1.452  13.063 -0.5526  0.3636 -1.8069
14568TIP3    H265120   0.127   1.317  13.125  1.2263  0.7921  0.1064
14569TIP3   OH265121   2.197   6.142   1.373 -0.2019 -0.7389 -0.0583
14569TIP3    H165122   2.201   6.083   1.448 -2.2931 -0.8576  0.0242
14569TIP3    H265123   2.115   6.119   1.329 -0.1112  0.8178 -1.1264
14570TIP3   OH265124   3.179   4.928  15.719 -0.0129 -0.1306  0.1430
14570TIP3    H165125   3.185   4.835  15.740  2.3814 -0.7781 -2.7727
14570TIP3    H265126   3.262   4.965  15.750  0.5530  0.2566 -1.7178
14571TIP3   OH265127   2.026   6.238   4.074  0.2354 -0.2321 -0.2215
14571TIP3    H165128   2.059   6.293   4.145  0.3140  0.5416 -0.8423
14571TIP3    H265129   2.044   6.289   3.995 -1.4191 -0.3132 -0.6697
14572TIP3   OH265130   1.397   6.422  13.426  0.5271 -0.2946  0.5063
14572TIP3    H165131   1.489   6.448  13.423  0.9949 -1.6577  1.6791
14572TIP3    H265132   1.360   6.475  13.497 -0.2557  2.0003 -1.4748
14573TIP3   OH265133   2.374   3.360  11.878  0.5068 -1.1404  0.2017
14573TIP3    H165134   2.428   3.289  11.912 -0.0137 -0.0724  3.6786
14573TIP3    H265135   2.435   3.432  11.863  0.6505 -1.3886 -0.3926
14574TIP3   OH265136   5.244   3.847  15.195  0.1618  0.2113  0.2772
14574TIP3    H165137   5.291   3.900  15.259  0.3660 -0.1842  0.4602
14574TIP3    H265138   5.226   3.907  15.123  2.3836  0.0139 -0.5377
14575TIP3   OH265139   2.421   5.181  14.469  0.3566 -0.3113 -0.0587
14575TIP3    H165140   2.416   5.105  14.412  0.3308 -1.5113  1.4748
14575TIP3    H265141   2.343   5.232  14.447  1.5074  0.5060 -2.6764
14576TIP3   OH265142   0.350   4.017   5.195 -0.0979  0.3312 -0.1026
14576TIP3    H165143   0.320   3.927   5.185 -2.2774  0.7435  1.8993
14576TIP3    H265144   0.394   4.018   5.281  1.9590  0.7236 -1.1014
14577TIP3   OH265145   6.372   1.726   4.928  0.2966 -0.3330 -1.3470
14577TIP3    H165146   6.388   1.759   4.839  1.2280  0.3840 -0.9425
14577TIP3    H265147   6.363   1.806   4.981  0.1015 -0.7536 -0.7401
14578TIP3   OH265148   5.054   0.819  13.205 -0.2712 -0.6513 -0.0232
14578TIP3    H165149   5.118   0.870  13.155  0.0913 -1.0689  0.0137
14578TIP3    H265150   4.975   0.822  13.151 -0.3033  0.0885  0.0567
14579TIP3   OH265151   4.197   2.784   0.196 -0.0383 -0.4137  0.1715
14579TIP3    H165152   4.289   2.757   0.203 -0.0224 -0.7342 -1.0042
14579TIP3    H265153   4.169   2.797   0.286  1.5672  1.0560  0.5162
14580TIP3   OH265154   3.408   3.997  16.315 -0.4782  0.1953 -0.5850
14580TIP3    H165155   3.419   3.906  16.288 -0.0961  0.3261 -0.8832
14580TIP3    H265156   3.477   4.044  16.268 -0.5390  0.6062 -0.2686
14581TIP3   OH265157   1.154   3.606  14.344 -0.0147 -0.3789  0.2211
14581TIP3    H165158   1.139   3.698  14.320  0.7097 -0.1775  0.5315
14581TIP3    H265159   1.247   3.600  14.363  0.3743 -1.6804 -1.8769
14582TIP3   OH265160   5.270   6.452  14.794 -0.9702 -0.3608 -0.0387
14582TIP3    H165161   5.271   6.503  14.713  1.0443 -0.4664 -0.1336
14582TIP3    H265162   5.337   6.384  14.780  0.9147  0.8416  2.4326
14583TIP3   OH265163   5.338   2.074  12.085  0.0478  0.1369  0.4434
14583TIP3    H165164   5.286   2.023  12.023  1.0091  0.0339 -0.3000
14583TIP3    H265165   5.308   2.164  12.073  1.7537  0.5008 -1.8642
14584TIP3   OH265166   2.323   2.150   3.483 -0.1732  0.2449  0.3757
14584TIP3    H165167   2.230   2.123   3.485 -0.2480 -0.0927 -2.9211
14584TIP3    H265168   2.322   2.238   3.448  0.7006  1.1794  2.5202
14585TIP3   OH265169   1.882   3.178   3.447  0.0369  0.0892 -0.2941
14585TIP3    H165170   1.869   3.111   3.514  0.9412 -0.0024 -0.1952
14585TIP3    H265171   1.944   3.139   3.386  0.3814  0.7423 -0.3690
14586TIP3   OH265172   1.333   4.847  16.077  0.3482  0.2046  0.0435
14586TIP3    H165173   1.402   4.870  16.015 -0.4050  1.7066 -0.2998
14586TIP3    H265174   1.368   4.774  16.127  1.7228  0.1962 -0.8883
14587TIP3   OH265175   4.515   6.427   0.601 -0.0569  0.4446  0.2556
14587TIP3    H165176   4.545   6.379   0.678  1.5893 -0.0399 -0.6488
14587TIP3    H265177   4.429   6.390   0.582  0.8853 -1.7287 -0.0294
14588TIP3   OH265178   2.688   5.760   1.049  0.4292  0.3403 -0.5634
14588TIP3    H165179   2.773   5.725   1.024  0.9599  0.2063  1.2516
14588TIP3    H265180   2.704   5.803   1.133 -1.0487  1.4083 -0.7913
14589TIP3   OH265181   3.187   4.366  16.419  0.1930 -0.2962 -0.1242
14589TIP3    H165182   3.159   4.306  16.350 -0.4134 -0.9348  0.6622
14589TIP3    H265183   3.251   4.317  16.470 -0.7338 -0.5086  0.8724
14590TIP3   OH265184   2.563   3.986  11.390  0.1980 -0.5423  0.5545
14590TIP3    H165185   2.629   3.926  11.424  2.5284  1.5523 -0.0028
14590TIP3    H265186   2.560   4.057  11.454  1.0296  1.0333 -1.0656
14591TIP3   OH265187   6.063   5.999  13.187  0.1889  0.5381  0.2488
14591TIP3    H165188   6.035   5.911  13.212  0.8928 -0.0565 -0.9740
14591TIP3    H265189   6.034   6.055  13.260 -1.7838 -0.4145  0.2495
14592TIP3   OH265190   5.314   4.444  13.272  0.1809 -0.0120 -0.2938
14592TIP3    H165191   5.327   4.471  13.181 -0.3049  0.6036 -0.1858
14592TIP3    H265192   5.314   4.525  13.321 -1.3839 -0.1790  0.0321
14593TIP3   OH265193   3.028   4.726   4.834  0.2955  0.5162 -0.0470
14593TIP3    H165194   2.937   4.715   4.808 -0.2318 -0.3875  1.9887
14593TIP3    H265195   3.078   4.689   4.761 -1.1611 -4.1214  0.9769
14594TIP3   OH265196   6.320   6.723  16.802  0.1568  0.2217 -0.0474
14594TIP3    H165197   6.250   6.756  16.745  0.8731 -0.5804 -1.4130
14594TIP3    H265198   6.396   6.777  16.782  0.0765  0.8399  1.1690
14595TIP3   OH265199   5.068   4.948   3.433 -0.5688 -0.2362  0.1530
14595TIP3    H165200   5.084   4.926   3.341 -0.2536 -1.6271  0.5176
14595TIP3    H265201   4.983   4.909   3.452 -1.0910  0.8913  0.2073
14596TIP3   OH265202   0.164   4.317   3.231 -0.0756 -0.3744 -0.0485
14596TIP3    H165203   0.152   4.383   3.300 -2.2336 -0.0416 -0.6857
14596TIP3    H265204   0.153   4.365   3.149  1.9441 -0.8683 -0.6686
14597TIP3   OH265205   3.425   4.131   2.326  0.9684  0.0889  0.3746
14597TIP3    H165206   3.498   4.112   2.384  1.6149 -2.1325 -1.0509
14597TIP3    H265207   3.455   4.104   2.239 -1.7846 -1.7418 -0.1422
14598TIP3   OH265208   4.441   2.963   1.990  0.0427 -0.3253  0.2752
14598TIP3    H165209   4.517   2.918   1.952 -0.7950 -1.3009 -0.2691
14598TIP3    H265210   4.454   3.055   1.965 -0.1096 -0.8104 -1.8052
14599TIP3   OH265211   5.251   1.066   1.859  0.3030  0.5831  0.4512
14599TIP3    H165212   5.291   0.998   1.913 -2.2976 -0.9055  0.6324
14599TIP3    H265213   5.157   1.057   1.874 -0.3115  2.2594 -1.8497
14600TIP3   OH265214   1.255   1.770   0.328 -0.1317  0.0788  0.4022
14600TIP3    H165215   1.246   1.707   0.399  1.0235 -0.8481 -0.2411
14600TIP3    H265216   1.164   1.794   0.306 -0.6872 -2.1513 -0.0151
14601TIP3   OH265217   6.069   6.051   4.799  0.4751  0.2597 -0.0060
14601TIP3    H165218   6.113   5.978   4.843 -0.9748 -1.6831 -1.5621
14601TIP3    H265219   5.987   6.062   4.847  0.2366  0.1746 -0.3916
14602TIP3   OH265220   5.436   3.464  16.479 -0.0297  0.1593 -0.4277
14602TIP3    H165221   5.354   3.462  16.528  0.7773 -1.2702  0.9537
14602TIP3    H265222   5.468   3.554  16.489 -0.4489  0.1981  0.7288
14603TIP3   OH265223   6.222   1.990  15.536  0.3210 -0.9420  0.1797
14603TIP3    H165224   6.218   2.084  15.520 -1.8394 -0.5866  2.2126
14603TIP3    H265225   6.232   1.982  15.631  2.0968 -2.8100 -0.0983
14604TIP3   OH265226   3.026   5.946   1.159  0.2112 -0.2097  0.0915
14604TIP3    H165227   2.938   5.920   1.131  0.5081 -0.1985 -0.8805
14604TIP3    H265228   3.056   6.005   1.091  1.0754 -0.4070  0.2942
14605TIP3   OH265229   5.805   3.250  16.047  0.0371  0.0743  0.3441
14605TIP3    H165230   5.749   3.287  15.979  0.8465  1.3038  0.3181
14605TIP3    H265231   5.886   3.228  16.002 -0.2158 -1.2301  0.4829
14606TIP3   OH265232   2.162   0.219  15.925 -0.4834  0.2784  0.2813
14606TIP3    H165233   2.236   0.247  15.978 -1.0110 -0.5043  1.4780
14606TIP3    H265234   2.184   0.247  15.836  1.2952 -0.0411  0.5811
14607TIP3   OH265235   5.989   1.123   2.034 -0.1084 -0.1260  0.1042
14607TIP3    H165236   5.976   1.083   1.948 -0.8210  2.6963 -1.2230
14607TIP3    H265237   5.911   1.099   2.084  0.4986 -2.1204  0.1796
14608TIP3   OH265238   1.229   5.795  11.771  0.3709  0.1888  0.6056
14608TIP3    H165239   1.222   5.799  11.867  0.0213  0.2796  0.5755
14608TIP3    H265240   1.160   5.734  11.744 -0.4902  1.2619  0.2990
14609TIP3   OH265241   4.782   2.517   4.456  0.2508 -0.0610 -0.1000
14609TIP3    H165242   4.688   2.511   4.438  0.3717 -0.2039 -0.7038
14609TIP3    H265243   4.793   2.472   4.540  0.1699 -2.5994 -1.3447
14610TIP3   OH265244   4.796   4.748  17.171 -0.4497 -0.2308  0.1353
14610TIP3    H165245   4.857   4.775  17.240 -1.6977 -1.8736  2.0167
14610TIP3    H265246   4.790   4.653  17.181 -0.9244 -0.4839 -2.0842
14611TIP3   OH265247   5.269   5.856  14.803  0.4505  0.3183  0.8022
14611TIP3    H165248   5.310   5.811  14.729  0.5841  0.8531  0.5463
14611TIP3    H265249   5.244   5.942  14.768 -2.7140 -0.6588  0.3470
14612TIP3   OH265250   0.485   0.674  15.348  0.3398  0.4196  0.0228
14612TIP3    H165251   0.551   0.697  15.282  1.5866 -0.8017  0.7899
14612TIP3    H265252   0.523   0.706  15.430 -0.0353 -0.2848  0.4719
14613TIP3   OH265253   4.948   2.270   0.264  0.0405 -0.0592  0.1135
14613TIP3    H165254   5.043   2.264   0.271  0.3521  2.1244 -1.3302
14613TIP3    H265255   4.927   2.225   0.182 -0.5371 -2.6762  1.5825
14614TIP3   OH265256   6.429   6.197  11.318 -0.0379  0.5254 -0.5856
14614TIP3    H165257   6.493   6.248  11.368  0.8547 -0.5149 -0.6553
14614TIP3    H265258   6.466   6.191  11.230  1.0244 -2.1808 -0.0246
14615TIP3   OH265259   5.330   3.709   3.009 -0.1641  0.1233 -0.1097
14615TIP3    H165260   5.247   3.739   2.971 -0.5140  0.0430  0.5705
14615TIP3    H265261   5.320   3.614   3.016  0.4504 -0.0282 -1.1006
14616TIP3   OH265262   5.418   2.217   3.880 -0.1326  0.4013  0.3132
14616TIP3    H165263   5.437   2.125   3.898  0.4157  0.4012 -0.2619
14616TIP3    H265264   5.500   2.254   3.849 -0.7970  0.6295 -1.3070
14617TIP3   OH265265   1.740   4.031   3.913  0.5096 -0.5592  0.4819
14617TIP3    H165266   1.689   3.956   3.882 -0.2431 -0.9552  2.5329
14617TIP3    H265267   1.764   4.008   4.003  0.3743  1.6155  1.1108
14618TIP3   OH265268   1.381   6.638  14.908 -0.1875 -0.1139  0.2618
14618TIP3    H165269   1.413   6.636  14.998 -2.4473  2.5013  1.2557
14618TIP3    H265270   1.324   6.562  14.901 -0.8650  0.2592  1.4356
14619TIP3   OH265271   0.700   1.008   4.818 -0.2825 -0.2858 -0.0356
14619TIP3    H165272   0.697   0.991   4.724  0.6959 -2.7806  0.2936
14619TIP3    H265273   0.791   1.032   4.836 -1.0933  3.4053 -0.0754
14620TIP3   OH265274   1.752   2.070   4.203 -0.2406 -0.3128  0.0350
14620TIP3    H165275   1.791   2.046   4.119  0.3201  0.6376  0.0060
14620TIP3    H265276   1.660   2.045   4.195 -0.5231  1.0055 -1.3939
14621TIP3   OH265277   2.808   4.116  16.095  0.2365  0.2662  0.0642
14621TIP3    H165278   2.727   4.153  16.129  0.6122  2.0635 -0.8818
14621TIP3    H265279   2.780   4.043  16.039 -0.7733  1.2409 -0.7236
14622TIP3   OH265280   1.022   3.507  13.675  0.6626  0.1869  0.1113
14622TIP3    H165281   0.941   3.555  13.693  0.2175 -0.7185  0.5640
14622TIP3    H265282   1.078   3.525  13.749  1.3307  1.7358 -0.7334
14623TIP3   OH265283   2.670   4.250  13.914 -0.4762  0.0863  0.6065
14623TIP3    H165284   2.660   4.214  13.826 -3.0374  0.3119  0.7062
14623TIP3    H265285   2.694   4.175  13.969  0.7736 -0.1241 -0.1907
14624TIP3   OH265286   6.609   4.666  16.408 -0.4395 -0.0565 -0.3433
14624TIP3    H165287   6.557   4.737  16.370  0.2442 -0.7704 -2.8597
14624TIP3    H265288   6.686   4.660  16.351 -0.2156 -2.4168  0.1059
14625TIP3   OH265289   1.939   1.631   1.118 -0.0450 -0.0080  0.1477
14625TIP3    H165290   2.009   1.601   1.176 -0.0726 -1.6082 -0.6037
14625TIP3    H265291   1.912   1.715   1.155  2.0961  0.5448  0.5971
14626TIP3   OH265292   4.103   5.221  15.963  0.2486 -0.2734 -0.2633
14626TIP3    H165293   4.127   5.129  15.971  0.4147 -0.2567 -0.5432
14626TIP3    H265294   4.185   5.265  15.940  0.1864 -0.0438 -0.0547
14627TIP3   OH265295   3.135   3.958  13.948  0.3673 -0.5402  0.0506
14627TIP3    H165296   3.152   4.027  13.883 -1.3876 -0.4117 -0.3243
14627TIP3    H265297   3.165   3.878  13.906 -0.5283 -0.4247 -0.8407
14628TIP3   OH265298   0.366   5.269  13.988 -0.3601 -0.1304 -0.0762
14628TIP3    H165299   0.306   5.224  13.929 -0.6812 -1.8329  1.4821
14628TIP3    H265300   0.310   5.309  14.054  0.0562  0.9964 -0.3726
14629TIP3   OH265301   3.669   3.551   5.851  0.1226 -0.2430  0.0549
14629TIP3    H165302   3.656   3.541   5.945  1.1878  0.0123  0.2407
14629TIP3    H265303   3.603   3.494   5.812  1.2558 -2.3323  0.9895
14630TIP3   OH265304   3.618   1.720   4.313  0.3382  0.2549 -0.8982
14630TIP3    H165305   3.607   1.673   4.396  0.8098 -0.8312 -1.4303
14630TIP3    H265306   3.582   1.807   4.330  0.2303 -0.0150  0.3810
14631TIP3   OH265307   2.581   2.328   0.750 -0.1195 -0.2123  0.3505
14631TIP3    H165308   2.511   2.268   0.725 -1.3101  1.2247  0.0597
14631TIP3    H265309   2.555   2.363   0.835  1.8044 -1.9007  1.7255
14632TIP3   OH265310   3.500   2.041   2.239 -0.0512 -0.3967  0.2418
14632TIP3    H165311   3.570   1.980   2.257 -0.2875 -0.2899  1.6521
14632TIP3    H265312   3.543   2.127   2.235  0.1011 -0.5025 -0.4308
14633TIP3   OH265313   1.825   2.298   4.856 -0.0469  0.7418 -0.6622
14633TIP3    H165314   1.885   2.242   4.906 -0.0095  0.2114 -1.2951
14633TIP3    H265315   1.746   2.246   4.847 -1.4942  2.2465  2.0690
14634TIP3   OH265316   0.977   4.955   5.563 -0.2125  0.3919  0.3062
14634TIP3    H165317   0.927   5.015   5.508  1.3751 -0.6814 -2.5008
14634TIP3    H265318   1.069   4.976   5.545  0.4438 -3.0147 -1.1533
14635TIP3   OH265319   4.602   3.019   6.514  0.2647  0.0055 -0.1562
14635TIP3    H165320   4.564   3.102   6.543  2.4685  1.9480 -2.4035
14635TIP3    H265321   4.692   3.020   6.548 -0.8246 -3.8149  3.8152
14636TIP3   OH265322   0.832   3.515   0.744  0.3880  0.1367  0.4093
14636TIP3    H165323   0.880   3.433   0.736 -1.6197 -1.0625  0.2843
14636TIP3    H265324   0.740   3.490   0.751 -0.2002  2.3239  1.5331
14637TIP3   OH265325   3.093   3.472   3.464 -0.3788  0.2090 -0.0846
14637TIP3    H165326   3.175   3.476   3.513 -0.8753 -1.8774  1.0150
14637TIP3    H265327   3.104   3.538   3.395  2.7061 -0.7942 -0.7225
14638TIP3   OH265328   2.510   1.645  14.320  0.4309 -0.2617 -0.3998
14638TIP3    H165329   2.568   1.722  14.319 -1.9405  1.6622  0.5820
14638TIP3    H265330   2.507   1.616  14.229  1.1385  1.0021 -0.8546
14639TIP3   OH265331   3.974   4.453  12.688  0.2009 -0.0256  0.4682
14639TIP3    H165332   3.897   4.493  12.728 -0.5256 -1.9401  1.0910
14639TIP3    H265333   4.040   4.523  12.688 -0.6337  0.8373  2.5286
14640TIP3   OH265334   4.765   1.433  12.493  0.1863 -0.0156 -0.1616
14640TIP3    H165335   4.676   1.464  12.503 -0.1831 -1.0547 -0.0823
14640TIP3    H265336   4.776   1.421  12.398  0.4699  0.7348 -0.2297
14641TIP3   OH265337   5.120   6.772  13.303  0.2669  0.0745 -0.2851
14641TIP3    H165338   5.184   6.745  13.369  0.0703 -0.0890 -0.1609
14641TIP3    H265339   5.035   6.751  13.342  0.0417  1.9181  0.3219
14642TIP3   OH265340   5.820   1.797   1.530  0.2910 -0.2480 -0.5187
14642TIP3    H165341   5.780   1.872   1.486  2.3283 -0.0079 -2.1174
14642TIP3    H265342   5.802   1.723   1.473  1.9853 -0.1359 -1.2809
14643TIP3   OH265343   3.849   2.291   6.381 -0.4043  0.7235 -0.3229
14643TIP3    H165344   3.840   2.337   6.464  1.7252  1.9053 -0.6672
14643TIP3    H265345   3.909   2.345   6.330  0.8197 -1.5375 -1.4484
14644TIP3   OH265346   6.217   4.485   3.753  0.7994  0.5223 -0.3110
14644TIP3    H165347   6.287   4.540   3.788  0.7180  0.7675 -0.5305
14644TIP3    H265348   6.257   4.436   3.681  1.1725 -0.5625  0.6030
14645TIP3   OH265349   3.637   6.430  10.561  0.3014  0.0503  0.0651
14645TIP3    H165350   3.640   6.379  10.480 -1.3210 -1.6322  0.9802
14645TIP3    H265351   3.729   6.440  10.586  0.9191  1.5217 -2.4582
14646TIP3   OH265352   1.164   2.468   0.881  0.5896  0.4632 -0.4300
14646TIP3    H165353   1.175   2.453   0.975  1.7124  0.6645 -0.5139
14646TIP3    H265354   1.103   2.542   0.876 -1.1094 -0.8167  0.0722
14647TIP3   OH265355   1.854   0.351   4.695 -0.0233 -0.0528  0.3838
14647TIP3    H165356   1.924   0.416   4.691  0.0812  0.0436  2.3399
14647TIP3    H265357   1.885   0.288   4.761 -0.0268 -2.2322 -1.5840
14648TIP3   OH265358   5.598   3.981  14.862 -0.3504  0.1989  0.5619
14648TIP3    H165359   5.557   4.026  14.936 -1.2393  0.8681 -0.3089
14648TIP3    H265360   5.571   3.890  14.871 -0.4838  0.2836  1.0363
14649TIP3   OH265361   3.440   1.230  12.053 -0.3081 -0.3143 -0.3964
14649TIP3    H165362   3.440   1.246  11.959  0.5918  0.5772 -0.2512
14649TIP3    H265363   3.354   1.262  12.082 -0.4614 -0.2962 -0.8578
14650TIP3   OH265364   6.102   2.866  13.554  0.5385  0.3457 -0.2183
14650TIP3    H165365   6.176   2.921  13.578  0.8738  0.2481 -0.9797
14650TIP3    H265366   6.141   2.781  13.533  0.2741  0.4137 -1.0375
14651TIP3   OH265367   5.703   4.864  11.846 -0.5951 -0.2282  0.3818
14651TIP3    H165368   5.614   4.885  11.818 -0.6922  0.0685  0.9124
14651TIP3    H265369   5.759   4.906  11.780 -0.8052  1.0788  1.0066
14652TIP3   OH265370   2.105   3.222   3.884 -0.7297  0.3318  0.2674
14652TIP3    H165371   2.128   3.178   3.966  0.8934  0.9470  0.1716
14652TIP3    H265372   2.118   3.315   3.902 -0.8843  0.5114 -0.5375
14653TIP3   OH265373   0.955   0.188  13.275 -0.0247  0.0194 -0.2611
14653TIP3    H165374   0.958   0.095  13.299 -2.7144 -0.1838 -0.4476
14653TIP3    H265375   0.920   0.232  13.352  1.1896  0.9186 -0.1884
14654TIP3   OH265376   2.314   4.571  13.707  0.0061  0.4258  0.1532
14654TIP3    H165377   2.358   4.508  13.765  1.6447  1.3837  0.0003
14654TIP3    H265378   2.221   4.554  13.720  0.3742 -0.6663  1.6349
14655TIP3   OH265379   4.345   3.953   4.998  0.5141  0.1321  0.2891
14655TIP3    H165380   4.440   3.946   5.004  0.5119 -1.4197 -0.7581
14655TIP3    H265381   4.322   3.897   4.924 -1.0711  1.9499 -0.6492
14656TIP3   OH265382   5.026   1.641  16.933  0.1571 -0.4580 -0.2777
14656TIP3    H165383   5.000   1.552  16.954 -1.7826 -0.0135 -0.6290
14656TIP3    H265384   5.011   1.691  17.013  0.7077 -0.3192 -0.2514
14657TIP3   OH265385   3.554   0.080   1.273  0.0489 -0.1523  0.1637
14657TIP3    H165386   3.578   0.144   1.206 -0.0629  0.8878  1.0933
14657TIP3    H265387   3.531   0.001   1.223 -0.2935  0.6710 -1.0399
14658TIP3   OH265388   4.126   2.500  12.399 -0.2887 -0.2028  0.1957
14658TIP3    H165389   4.150   2.427  12.456 -0.2184 -0.5858 -0.3207
14658TIP3    H265390   4.209   2.537  12.371 -0.2681 -1.4375 -1.4744
14659TIP3   OH265391   2.331   0.039  15.225 -0.1602  0.0850 -0.2726
14659TIP3    H165392   2.363  -0.033  15.280  0.9623  1.6153  1.1764
14659TIP3    H265393   2.275  -0.004  15.161 -3.1001 -1.7196  3.0838
14660TIP3   OH265394   3.176   4.701   3.369 -0.2821  0.5914 -0.7835
14660TIP3    H165395   3.177   4.779   3.424 -0.8858  0.7098 -0.9277
14660TIP3    H265396   3.220   4.727   3.288 -0.3320  0.7350 -0.7641
14661TIP3   OH265397   1.080   2.308  14.254  0.1910 -0.3014  0.3145
14661TIP3    H165398   1.132   2.252  14.311 -0.2980 -0.8560  0.2271
14661TIP3    H265399   1.143   2.340  14.189  1.0482  1.4169  1.9042
14662TIP3   OH265400   3.882   6.167  14.237  0.0397  0.3703  0.2435
14662TIP3    H165401   3.928   6.083  14.240 -1.1467 -0.2675  1.2715
14662TIP3    H265402   3.914   6.209  14.157  0.7355 -1.0041 -0.2265
14663TIP3   OH265403   3.547   4.980  16.086 -0.0190  0.3120  0.0733
14663TIP3    H165404   3.566   4.902  16.139  0.2099 -1.1562 -2.0517
14663TIP3    H265405   3.631   5.025  16.079  0.2518 -0.2121 -0.1301
14664TIP3   OH265406   5.388   2.243  12.303 -0.6348  0.2767 -0.0509
14664TIP3    H165407   5.398   2.176  12.235  1.0435  0.4280  0.0127
14664TIP3    H265408   5.477   2.274  12.320 -0.7455 -0.9481  3.4503
14665TIP3   OH265409   5.588   2.310   4.190  0.1244  0.2420 -0.3055
14665TIP3    H165410   5.540   2.311   4.107  0.7086 -1.4784 -0.7046
14665TIP3    H265411   5.590   2.218   4.216  0.9809  0.5998  1.0156
14666TIP3   OH265412   2.456   5.841   3.895 -0.6209 -0.0467  0.0703
14666TIP3    H165413   2.503   5.761   3.919  2.0957  0.4786 -2.7295
14666TIP3    H265414   2.480   5.905   3.962  1.0883 -0.3704 -0.1964
14667TIP3   OH265415   5.895   4.208   5.160 -0.3626  0.1055  0.1778
14667TIP3    H165416   5.875   4.174   5.248 -1.5037 -1.1128 -0.5158
14667TIP3    H265417   5.978   4.253   5.170 -0.8278  0.6460  2.0568
14668TIP3   OH265418   1.128   2.843   1.099 -0.6091 -0.1553 -0.1561
14668TIP3    H165419   1.207   2.840   1.154 -0.1200 -0.6716 -0.8804
14668TIP3    H265420   1.111   2.936   1.087 -1.0489 -0.0130  1.3188
14669TIP3   OH265421   2.968   6.456   6.596 -0.3414  0.0535  0.2526
14669TIP3    H165422   2.959   6.542   6.636  0.3281  0.4894 -0.5151
14669TIP3    H265423   3.041   6.465   6.535 -0.7441 -0.8540 -0.3865
14670TIP3   OH265424   0.246   5.151  14.711 -0.6517 -0.3062 -0.3199
14670TIP3    H165425   0.281   5.213  14.774 -2.3963 -0.2148  0.6271
14670TIP3    H265426   0.184   5.099  14.761 -0.7451 -1.4592 -1.5700
14671TIP3   OH265427   1.761   1.080  13.584 -0.7350  0.4721 -0.1241
14671TIP3    H165428   1.821   1.006  13.575  0.1519  1.3921 -3.2076
14671TIP3    H265429   1.689   1.046  13.638  1.7986 -1.0896  2.5626
14672TIP3   OH265430   5.329   4.801   1.080  0.5954 -0.5334 -0.0990
14672TIP3    H165431   5.266   4.751   1.131  1.8609 -0.5111  1.5692
14672TIP3    H265432   5.402   4.740   1.066  0.2538 -0.5698 -2.0139
14673TIP3   OH265433   2.643   5.982   3.719  0.2280  0.2579 -0.1642
14673TIP3    H165434   2.652   6.061   3.665  1.0238  1.1083  1.1470
14673TIP3    H265435   2.670   6.010   3.807 -0.0777 -1.3261  0.4685
14674TIP3   OH265436   3.392   0.795   2.546  0.1714 -0.4060 -0.3363
14674TIP3    H165437   3.470   0.766   2.593 -0.6141  0.2382  1.4636
14674TIP3    H265438   3.422   0.870   2.495  0.9121 -0.7012 -0.3477
14675TIP3   OH265439   6.567   0.368   3.843 -0.2314  0.3358  0.4016
14675TIP3    H165440   6.522   0.452   3.845 -1.9296 -0.5464  0.7610
14675TIP3    H265441   6.609   0.361   3.929  0.3567  1.0281  0.1804
14676TIP3   OH265442   5.927   0.433   1.546  0.2341  0.2885 -0.5334
14676TIP3    H165443   6.018   0.448   1.520  1.0414 -3.7263 -0.7032
14676TIP3    H265444   5.890   0.382   1.473 -1.0818 -1.0230  0.9885
14677TIP3   OH265445   2.454   3.469   2.337 -0.0519  0.2528  0.1277
14677TIP3    H165446   2.482   3.410   2.408  0.0022  1.7261  1.3909
14677TIP3    H265447   2.523   3.535   2.333 -0.4814  0.6589 -0.7431
14678TIP3   OH265448   5.596   4.307  16.306  0.5222  0.5214  0.5763
14678TIP3    H165449   5.631   4.291  16.394  2.4722  1.1864 -0.0343
14678TIP3    H265450   5.501   4.308  16.318  0.7405  0.4495  2.6484
14679TIP3   OH265451   1.670   5.097  14.997 -0.2247  0.0265  0.0439
14679TIP3    H165452   1.726   5.048  14.937  0.3453 -1.5906  1.8134
14679TIP3    H265453   1.586   5.050  14.995  0.6582 -1.8538  2.5899
14680TIP3   OH265454   4.106   4.063  11.237 -0.4559  0.2554  0.0869
14680TIP3    H165455   4.039   4.084  11.303 -0.8064 -0.3061 -0.0863
14680TIP3    H265456   4.056   4.043  11.158 -0.2474 -2.6647  0.5924
14681TIP3   OH265457   2.152   2.428  13.671  0.4354  0.3047 -0.2161
14681TIP3    H165458   2.088   2.393  13.732  0.9052  2.9952  1.9988
14681TIP3    H265459   2.099   2.470  13.602 -0.3214  2.3390  1.4873
14682TIP3   OH265460   6.773   2.141   1.872 -0.3099 -0.2206  0.4047
14682TIP3    H165461   6.861   2.133   1.835 -0.7976  0.3223 -0.9475
14682TIP3    H265462   6.786   2.182   1.957  0.7930 -0.7821  0.5279
14683TIP3   OH265463   0.673   1.581   0.352  0.1546 -0.1998  0.0976
14683TIP3    H165464   0.749   1.595   0.294  0.8278 -0.1062  0.9858
14683TIP3    H265465   0.598   1.611   0.300  0.7085 -0.3610 -0.8266
14684TIP3   OH265466   3.280   6.767  14.699 -0.3585  0.1871  0.0960
14684TIP3    H165467   3.337   6.813  14.761 -2.8630  1.0988  1.8426
14684TIP3    H265468   3.228   6.837  14.658 -1.3015 -0.7298 -0.3167
14685TIP3   OH265469   3.610   3.653   4.209 -0.2312  0.0323 -0.1907
14685TIP3    H165470   3.703   3.637   4.225 -0.5046  0.0020  1.5682
14685TIP3    H265471   3.602   3.651   4.114  1.2389 -1.7763 -0.3368
14686TIP3   OH265472   5.500   1.619  13.563  0.6791 -0.2693  0.2523
14686TIP3    H165473   5.581   1.661  13.590  0.8164  0.3583 -1.0729
14686TIP3    H265474   5.519   1.582  13.477 -0.2646 -0.6204  0.1782
14687TIP3   OH265475   0.990   2.164   1.550  0.2411 -0.2794  0.1706
14687TIP3    H165476   0.910   2.217   1.549  1.7126  2.0696 -0.2562
14687TIP3    H265477   0.998   2.134   1.640 -1.6782 -1.5691 -0.0158
14688TIP3   OH265478   2.777   6.658   2.757 -0.0719  0.1066 -0.5624
14688TIP3    H165479   2.771   6.567   2.732 -0.4697 -0.4829  1.4705
14688TIP3    H265480   2.750   6.707   2.680 -0.3672 -1.4981 -1.5126
14689TIP3   OH265481   0.463   5.034  13.716  0.6845  0.3516 -0.6299
14689TIP3    H165482   0.375   4.999  13.704 -0.1727  2.1024  0.1657
14689TIP3    H265483   0.501   4.981  13.786  0.7824 -1.2536 -1.8510
14690TIP3   OH265484   1.820   0.346  14.895  0.1074 -0.1979  0.3634
14690TIP3    H165485   1.753   0.408  14.865 -0.2118 -0.7626 -0.1103
14690TIP3    H265486   1.772   0.283  14.948 -0.0588 -1.5629 -1.3244
14691TIP3   OH265487   1.066   5.224   3.334  0.1009  0.0431  0.4665
14691TIP3    H165488   1.043   5.217   3.242  1.3104 -0.6783  0.1933
14691TIP3    H265489   0.997   5.277   3.373  1.3804  3.5111 -1.5508
14692TIP3   OH265490   2.901   5.759  16.214  0.0107 -0.1614  0.4458
14692TIP3    H165491   2.848   5.821  16.265 -0.2118 -1.1972  1.5215
14692TIP3    H265492   2.863   5.673  16.232  0.8987 -0.7322 -0.2556
14693TIP3   OH265493   0.730   2.143  14.771 -0.2205  1.1668  0.3050
14693TIP3    H165494   0.756   2.233  14.752 -3.0007  2.1564  0.6496
14693TIP3    H265495   0.639   2.138  14.743 -1.1150 -0.5813  3.1010
14694TIP3   OH265496   5.843   2.704  13.286 -0.3510  0.1989 -0.5754
14694TIP3    H165497   5.897   2.709  13.206 -1.4085  0.5727 -1.2866
14694TIP3    H265498   5.877   2.628  13.333  0.3089 -0.0123 -1.3662
14695TIP3   OH265499   1.246   0.561  11.912  0.4603  0.5041 -0.1560
14695TIP3    H165500   1.310   0.621  11.873 -0.9776  1.7960 -0.6313
14695TIP3    H265501   1.161   0.599  11.890 -0.5467 -1.9631 -0.8958
14696TIP3   OH265502   6.365   2.620   0.572  0.3503 -0.0589 -0.1808
14696TIP3    H165503   6.457   2.593   0.571  0.2182 -0.6203 -2.6727
14696TIP3    H265504   6.351   2.661   0.487 -2.1124 -1.4898 -0.5506
14697TIP3   OH265505   2.780   4.929   3.936  0.1816  0.2155  0.2177
14697TIP3    H165506   2.725   4.896   4.007 -2.3069  1.1270 -1.1635
14697TIP3    H265507   2.734   5.006   3.903  2.7760  1.5845 -0.5089
14698TIP3   OH265508   0.184   1.124  14.236 -0.2021  0.0495  0.5033
14698TIP3    H165509   0.247   1.128  14.308  0.3480  1.1869 -0.0283
14698TIP3    H265510   0.224   1.175  14.166 -0.3925 -1.6089 -0.8972
14699TIP3   OH265511   5.955   1.771   3.911 -0.0358  0.5724  0.5655
14699TIP3    H165512   5.978   1.839   3.848  2.4987 -2.0934 -1.6949
14699TIP3    H265513   5.860   1.766   3.907 -0.0097  0.6002 -3.1231
14700TIP3   OH265514   4.114   3.733  11.000  0.3271 -0.1012 -0.1690
14700TIP3    H165515   4.134   3.745  11.093 -0.9576  0.7252  0.0205
14700TIP3    H265516   4.185   3.779  10.954 -0.2845  1.5162  0.4540
14701TIP3   OH265517   2.701   0.243   1.860  0.0271 -0.4297 -0.5085
14701TIP3    H165518   2.774   0.293   1.897 -0.7784 -0.2826  0.9444
14701TIP3    H265519   2.649   0.309   1.813 -0.7318  0.0508  0.9373
14702TIP3   OH265520   5.380   1.299   1.928 -0.1148 -0.3292 -0.0899
14702TIP3    H165521   5.316   1.370   1.929 -0.9061 -1.0402  0.8154
14702TIP3    H265522   5.328   1.219   1.932  0.7970 -0.9433 -0.2394
14703TIP3   OH265523   5.028   5.853  10.582 -0.3116  0.0555 -0.2262
14703TIP3    H165524   5.009   5.928  10.524 -0.9192 -0.3092 -0.5033
14703TIP3    H265525   4.965   5.786  10.556 -1.0538  0.1090  1.3192
14704TIP3   OH265526   4.125   6.493   3.329  0.1821 -0.0090 -0.3607
14704TIP3    H165527   4.179   6.507   3.408  0.2697 -0.9991 -0.2361
14704TIP3    H265528   4.164   6.551   3.263 -0.0090  0.9772  0.3700
14705TIP3   OH265529   1.663   2.842   5.453 -0.2939 -0.3746  0.1098
14705TIP3    H165530   1.705   2.884   5.528 -1.0827 -0.4154  0.5845
14705TIP3    H265531   1.700   2.754   5.451 -0.2870 -0.3807  0.4670
14706TIP3   OH265532   2.020   2.252   5.473 -0.0812 -0.9013 -0.2707
14706TIP3    H165533   1.930   2.271   5.500  0.3679 -0.7563  1.1914
14706TIP3    H265534   2.016   2.161   5.442 -0.8043 -0.7698 -0.5950
14707TIP3   OH265535   3.777   1.202   3.392  0.1334 -0.4819  0.1544
14707TIP3    H165536   3.863   1.224   3.357  0.4326 -2.4815 -0.5167
14707TIP3    H265537   3.716   1.257   3.342  0.9489  0.6147  0.3195
14708TIP3   OH265538   4.668   3.961  13.904 -0.3280  0.1538  0.0589
14708TIP3    H165539   4.629   4.033  13.952 -0.5108  0.3947 -0.4463
14708TIP3    H265540   4.604   3.939  13.836 -0.6500 -1.0353  0.7279
14709TIP3   OH265541   5.658   0.645   5.682  0.3536  0.4651  0.4148
14709TIP3    H165542   5.574   0.690   5.683  0.6958  1.1146  0.6475
14709TIP3    H265543   5.705   0.681   5.757  0.1797 -1.1924  1.3825
14710TIP3   OH265544   0.980   1.514   4.026  0.4414  0.2461 -0.0896
14710TIP3    H165545   0.925   1.522   4.105  0.9927  0.0155  0.3206
14710TIP3    H265546   1.069   1.524   4.058  0.8241 -1.8530 -0.3754
14711TIP3   OH265547   5.647   4.876  13.843  1.2216 -0.7419 -0.2301
14711TIP3    H165548   5.666   4.898  13.934 -1.7234 -0.4928  0.4314
14711TIP3    H265549   5.612   4.958  13.806 -1.7910 -1.9036 -0.2175
14712TIP3   OH265550   4.871   0.083  16.718  0.8940 -0.3251  0.2158
14712TIP3    H165551   4.960   0.048  16.713  0.2686 -2.2646  1.4583
14712TIP3    H265552   4.817   0.007  16.738 -1.5730  0.1227 -3.7425
14713TIP3   OH265553   1.921   4.755  15.737  0.5351  0.2156 -0.1335
14713TIP3    H165554   1.965   4.672  15.755  0.4321  0.4884  1.4880
14713TIP3    H265555   1.882   4.781  15.820 -1.3385  0.7996 -1.1289
14714TIP3   OH265556   4.371   0.863   3.415 -0.3642 -0.0457 -0.5160
14714TIP3    H165557   4.390   0.913   3.495 -0.6154  1.5480 -1.4079
14714TIP3    H265558   4.448   0.808   3.402  0.1882  0.5425  0.1962
14715TIP3   OH265559   0.761   4.992   0.040 -0.1855 -0.2015  0.2159
14715TIP3    H165560   0.716   4.970  -0.041  0.0002 -0.2301  0.1197
14715TIP3    H265561   0.838   5.043   0.012 -1.2911  1.7026  0.5018
14716TIP3   OH265562   3.788   5.979   5.991  1.1005 -0.6721  0.1664
14716TIP3    H165563   3.741   5.934   6.061  1.8140 -1.5632  0.0863
14716TIP3    H265564   3.768   6.072   6.005 -0.0754 -0.9644  0.5650
14717TIP3   OH265565   5.094   1.097  10.837 -0.0969  0.1714  0.5547
14717TIP3    H165566   5.137   1.180  10.813 -2.1916  1.7458  1.8802
14717TIP3    H265567   5.031   1.082  10.767  0.6919 -0.6717  0.0053
14718TIP3   OH265568   5.193   2.546   5.296 -0.4559 -0.1408 -0.2791
14718TIP3    H165569   5.234   2.518   5.377 -1.5006 -0.6525  0.0905
14718TIP3    H265570   5.113   2.590   5.323 -0.8739 -0.4122 -1.0266
14719TIP3   OH265571   5.071   6.728   4.473  0.3848 -0.2266  0.1953
14719TIP3    H165572   5.038   6.711   4.561 -1.3980  0.3769 -0.3188
14719TIP3    H265573   4.992   6.741   4.420  1.3647 -1.5706 -1.7101
14720TIP3   OH265574   4.960   0.256   2.995  0.6813 -0.0036 -0.2249
14720TIP3    H165575   4.934   0.264   3.086  0.4954 -0.9474 -0.1879
14720TIP3    H265576   4.889   0.208   2.953  0.9180  0.1309 -0.7959
14721TIP3   OH265577   0.635   2.035   1.157  0.1277  0.3527  0.1705
14721TIP3    H165578   0.631   1.973   1.229  1.0259  0.2957  0.1869
14721TIP3    H265579   0.678   2.112   1.193  2.3391 -0.3722 -0.7455
14722TIP3   OH265580   1.056   2.275  11.379 -0.1960  0.3909  0.2166
14722TIP3    H165581   1.063   2.288  11.474 -1.0154 -0.9896  0.5046
14722TIP3    H265582   1.056   2.180  11.368 -2.6134  0.4472 -0.9283
14723TIP3   OH265583   0.341   5.985  13.136  0.2714  0.3413 -0.2459
14723TIP3    H165584   0.411   6.022  13.190 -1.7697  0.7557  2.3361
14723TIP3    H265585   0.280   6.057  13.123  0.0259 -0.1472 -1.9681
14724TIP3   OH265586   2.885   3.795  16.663 -0.4499  0.4263 -0.2343
14724TIP3    H165587   2.850   3.706  16.657 -0.6923  0.4724  0.3461
14724TIP3    H265588   2.818   3.843  16.712  1.4867 -0.1055  3.3139
14725TIP3   OH265589   4.864   6.371   1.869  0.2727  0.4944 -0.1007
14725TIP3    H165590   4.929   6.416   1.924 -0.0821  0.5985  0.2339
14725TIP3    H265591   4.797   6.437   1.853  0.9101  0.8080 -1.5784
14726TIP3   OH265592   0.362   2.428   5.725 -0.5833 -0.2645 -0.3695
14726TIP3    H165593   0.330   2.431   5.815  0.6127  0.9050  0.0709
14726TIP3    H265594   0.285   2.414   5.671 -1.5247  0.4622  0.7557
14727TIP3   OH265595   3.550   1.492  16.403  0.2887 -0.3194 -0.6488
14727TIP3    H165596   3.591   1.428  16.345  0.7163 -0.3031 -0.3735
14727TIP3    H265597   3.460   1.500  16.372 -0.2766 -2.2896  0.3205
14728TIP3   OH265598   6.632   5.664  12.862 -0.3086 -0.3798 -0.1605
14728TIP3    H165599   6.596   5.632  12.780 -1.3737 -1.7560  0.7922
14728TIP3    H265600   6.631   5.587  12.920  1.4614  0.2604  0.8119
14729TIP3   OH265601   0.903   0.421  14.799  0.9631  0.2512  0.0489
14729TIP3    H165602   0.943   0.506  14.782  0.9672  0.6639  1.9035
14729TIP3    H265603   0.962   0.357  14.758  0.7164  1.1419 -1.7646
14730TIP3   OH265604   6.710   2.599  16.163 -0.6675 -0.1685  0.5094
14730TIP3    H165605   6.706   2.599  16.259 -1.7806 -0.9423  0.4785
14730TIP3    H265606   6.799   2.570  16.143 -0.2040  0.6558  1.3021
14731TIP3   OH265607   2.771   0.399   5.687  0.5187  0.3864  0.1295
14731TIP3    H165608   2.784   0.485   5.647 -1.2587  0.4725 -0.3754
14731TIP3    H265609   2.677   0.381   5.675  0.8285 -1.6007  0.2477
14732TIP3   OH265610   0.774   5.020  12.755 -0.3257 -0.2670  1.0709
14732TIP3    H165611   0.858   5.031  12.710  0.4544 -1.1528  2.2486
14732TIP3    H265612   0.721   5.093  12.724  0.7860  0.1663  0.0972
14733TIP3   OH265613   4.261   2.850  16.633  0.0692  0.2640 -0.0816
14733TIP3    H165614   4.334   2.796  16.604 -0.8453 -0.5556 -0.9116
14733TIP3    H265615   4.291   2.940  16.621  1.2391 -0.0395  0.3879
14734TIP3   OH265616   6.706   2.262  16.320  0.0742 -0.1301  0.0954
14734TIP3    H165617   6.613   2.248  16.335  0.0446  0.1258  0.1655
14734TIP3    H265618   6.737   2.302  16.402  0.3462 -0.6720  0.2660
14735TIP3   OH265619   1.217   3.306   2.192  0.5945  0.2644 -0.4879
14735TIP3    H165620   1.225   3.387   2.242  1.0847  0.0279 -0.1608
14735TIP3    H265621   1.293   3.254   2.221  0.3078 -0.2865 -0.7226
14736TIP3   OH265622   6.375   2.398   6.374 -0.6121  0.1175  0.2879
14736TIP3    H165623   6.459   2.368   6.408 -1.9112 -1.8082  1.9719
14736TIP3    H265624   6.349   2.468   6.434 -0.8467 -0.2376  0.6022
14737TIP3   OH265625   1.058   3.757  15.410  0.4093  0.0849 -0.3892
14737TIP3    H165626   1.117   3.690  15.444 -0.2118 -1.2118 -1.7294
14737TIP3    H265627   1.100   3.788  15.330  1.1005  1.9681  0.6377
14738TIP3   OH265628   0.151   1.701  11.587  0.0846  0.3649  0.3333
14738TIP3    H165629   0.077   1.677  11.643 -0.0596 -1.4087 -0.5384
14738TIP3    H265630   0.112   1.757  11.519 -0.1760  0.6287  0.6963
14739TIP3   OH265631   4.977   3.799   4.761  0.0801  0.1106 -0.6658
14739TIP3    H165632   4.925   3.763   4.833  0.6285 -0.5874 -0.6052
14739TIP3    H265633   4.929   3.877   4.733 -0.1618  0.3646  0.4244
14740TIP3   OH265634   6.543   5.248  12.149  0.1240  0.4851  0.0446
14740TIP3    H165635   6.499   5.265  12.066  2.0487 -1.5012 -1.5068
14740TIP3    H265636   6.570   5.156  12.143 -0.4093 -0.0087  3.2696
14741TIP3   OH265637   3.973   3.271  14.880 -0.4532 -0.8754  0.1973
14741TIP3    H165638   4.059   3.315  14.884  0.4789 -2.6278  0.3429
14741TIP3    H265639   3.911   3.337  14.911  0.5271  1.1422 -1.8350
14742TIP3   OH265640   6.556   6.518   6.089 -0.0048 -0.7570  0.2388
14742TIP3    H165641   6.518   6.460   6.024  0.6447  1.0171 -1.8145
14742TIP3    H265642   6.491   6.522   6.159 -0.9878 -2.2362 -0.5526
14743TIP3   OH265643   0.214   4.808  16.483  0.1057  0.0392  0.3353
14743TIP3    H165644   0.219   4.729  16.429  0.8959  0.2434  0.0984
14743TIP3    H265645   0.266   4.873  16.436  2.7652 -0.4235  2.4166
14744TIP3   OH265646   4.953   0.936  15.459 -0.6614  0.4199  0.3941
14744TIP3    H165647   5.005   0.948  15.539 -0.8454 -1.0725  0.7703
14744TIP3    H265648   4.863   0.955  15.486 -0.8949 -1.1929  0.8870
14745TIP3   OH265649   1.290   5.294  15.693  0.0694  0.0354  0.8006
14745TIP3    H165650   1.361   5.285  15.629 -0.0231 -2.2125  0.9242
14745TIP3    H265651   1.332   5.276  15.777 -0.3216  0.3834  1.0727
14746TIP3   OH265652   6.403   5.544  14.733 -0.1161 -0.4963 -0.0724
14746TIP3    H165653   6.458   5.479  14.690 -1.8283 -2.6827  0.8090
14746TIP3    H265654   6.459   5.584  14.799  1.8710  1.2494 -2.6653
14747TIP3   OH265655   0.201   0.722   1.471  0.8460  0.1194 -0.4487
14747TIP3    H165656   0.267   0.792   1.472  1.3220 -0.3216 -0.4448
14747TIP3    H265657   0.176   0.712   1.563 -0.5850  1.5301 -0.6383
14748TIP3   OH265658   4.576   6.539   4.413  0.5697 -0.8582  0.0942
14748TIP3    H165659   4.577   6.445   4.431 -0.0669 -1.1191 -1.1218
14748TIP3    H265660   4.651   6.553   4.356  2.9084  0.0547  3.0912
14749TIP3   OH265661   6.017   4.446  10.383 -0.3868 -0.0374 -0.4302
14749TIP3    H165662   5.965   4.382  10.431 -1.6942  0.6853 -0.8232
14749TIP3    H265663   6.101   4.449  10.428 -0.9299 -0.7452  0.6475
14750TIP3   OH265664   2.038   2.778  16.209  0.3635 -0.6505 -0.0283
14750TIP3    H165665   1.983   2.706  16.179  2.4875 -2.6930  0.6484
14750TIP3    H265666   2.035   2.773  16.304 -0.5563  1.1038  0.0688
14751TIP3   OH265667   6.237   6.012   5.826 -0.2927  0.2048  0.4836
14751TIP3    H165668   6.267   6.079   5.887 -0.0196  0.0977  0.4683
14751TIP3    H265669   6.291   6.024   5.748  0.9840 -1.1312  1.1131
14752TIP3   OH265670   2.858   4.990  11.910 -0.2317  0.1200 -0.0665
14752TIP3    H165671   2.854   5.003  12.005 -1.7980  1.6958 -0.2925
14752TIP3    H265672   2.866   4.896  11.899 -1.6610 -0.2624  1.6453
14753TIP3   OH265673   4.112   4.907   2.812  0.1647 -0.1072  0.5658
14753TIP3    H165674   4.097   5.001   2.819  0.5822  0.1485 -1.5272
14753TIP3    H265675   4.026   4.868   2.831 -0.2722  0.7394  0.3836
14754TIP3   OH265676   0.327   3.975  14.534  0.8909  0.2172 -0.5003
14754TIP3    H165677   0.338   4.069  14.548  1.2932  0.0288  0.6294
14754TIP3    H265678   0.400   3.951  14.476 -0.4225  0.9268 -2.5445
14755TIP3   OH265679   3.015   2.286   0.512  0.7361 -0.7631 -0.0779
14755TIP3    H165680   2.981   2.350   0.450 -1.3724 -3.4714 -1.9354
14755TIP3    H265681   3.039   2.211   0.459  3.0551 -1.6510  2.0134
14756TIP3   OH265682   3.464   4.557   3.036 -0.1227  0.5010  0.0928
14756TIP3    H165683   3.560   4.559   3.035 -0.0052 -1.2207  1.8912
14756TIP3    H265684   3.440   4.603   3.116 -0.6130 -1.4625  1.1340
14757TIP3   OH265685   0.586   4.039   0.424  0.2006  0.3020 -0.3093
14757TIP3    H165686   0.526   3.974   0.387 -0.9154 -0.2421  2.2531
14757TIP3    H265687   0.544   4.123   0.405  0.0094  0.0810 -0.8801
14758TIP3   OH265688   1.724   6.499   4.245 -0.1641  0.5274  0.5233
14758TIP3    H165689   1.658   6.492   4.176 -0.5316  0.3604  0.8881
14758TIP3    H265690   1.803   6.528   4.199 -0.6415  1.3004  0.1736
14759TIP3   OH265691   5.517   3.367  15.503 -0.1546  0.2205 -0.1333
14759TIP3    H165692   5.579   3.295  15.492 -1.0411 -0.2974 -2.2293
14759TIP3    H265693   5.518   3.412  15.418 -0.4267  2.0469  0.7810
14760TIP3   OH265694   3.487   1.585   4.855  0.1630  0.1586 -0.4246
14760TIP3    H165695   3.564   1.627   4.819  0.7807 -0.3621  0.2666
14760TIP3    H265696   3.457   1.644   4.924 -0.9800  1.1218 -1.6829
14761TIP3   OH265697   2.778   0.904   2.366  0.0683  0.0750 -0.2350
14761TIP3    H165698   2.762   0.953   2.447 -0.5002 -0.3907 -0.0598
14761TIP3    H265699   2.743   0.817   2.384  0.2940 -0.1466 -0.8484
14762TIP3   OH265700   1.145   5.506   2.373 -0.8437 -0.4302  0.4430
14762TIP3    H165701   1.192   5.506   2.289 -0.3313 -1.3293  0.7119
14762TIP3    H265702   1.191   5.440   2.426 -1.3260 -0.0647  1.3381
14763TIP3   OH265703   6.282   0.859   3.738 -0.5150  0.8385 -0.2906
14763TIP3    H165704   6.216   0.893   3.798  2.4928  2.8569  2.2419
14763TIP3    H265705   6.330   0.937   3.709  2.2083 -0.6238 -0.0578
14764TIP3   OH265706   2.310   1.834  15.579  0.8635 -0.4134  0.3961
14764TIP3    H165707   2.267   1.813  15.496  1.3099  3.5694 -1.0636
14764TIP3    H265708   2.241   1.825  15.645 -0.9417  0.9787 -1.1637
14765TIP3   OH265709   5.679   1.917  15.752 -0.3018  0.1085 -0.3837
14765TIP3    H165710   5.689   1.912  15.847  0.1005 -0.9700 -0.4666
14765TIP3    H265711   5.684   1.826  15.723  2.6173  0.6096 -1.7500
14766TIP3   OH265712   5.457   5.130   2.945  0.6658  0.4453 -0.1761
14766TIP3    H165713   5.436   5.194   2.877 -3.9376 -0.1710  0.4002
14766TIP3    H265714   5.456   5.180   3.027  0.9779  0.2972 -0.0798
14767TIP3   OH265715   0.133   3.712   2.124  0.7301  0.3799  0.6043
14767TIP3    H165716   0.101   3.637   2.174 -1.3877  0.1124 -1.0077
14767TIP3    H265717   0.054   3.758   2.097  1.8488  1.4558 -1.0134
14768TIP3   OH265718   4.117   0.946  12.800 -0.5812 -0.2015 -0.6279
14768TIP3    H165719   4.052   0.975  12.864 -0.7732 -0.3040 -0.7743
14768TIP3    H265720   4.082   0.865  12.765 -1.1156  0.5068 -1.8036
14769TIP3   OH265721   2.945   0.357   0.455  0.2297  0.5222 -1.0267
14769TIP3    H165722   2.973   0.275   0.494  0.0957  0.8975 -0.1023
14769TIP3    H265723   3.021   0.415   0.464 -0.6092  1.4132  1.1097
14770TIP3   OH265724   1.151   5.770  16.049  0.0675 -0.0236 -0.2922
14770TIP3    H165725   1.211   5.787  16.121 -0.1891  0.0131 -0.0853
14770TIP3    H265726   1.140   5.854  16.005  0.2104 -0.0422 -0.3639
14771TIP3   OH265727   2.613   0.198   3.786 -0.0153 -0.2757 -0.1465
14771TIP3    H165728   2.582   0.113   3.755 -0.8309 -0.4647  1.1127
14771TIP3    H265729   2.681   0.224   3.724 -0.0052 -1.6838 -0.7391
14772TIP3   OH265730   4.807   5.433   1.878  0.2359  0.1100  0.2180
14772TIP3    H165731   4.738   5.445   1.813  0.6424  0.0065 -0.2330
14772TIP3    H265732   4.858   5.514   1.875 -0.3880  0.5529  1.1842
14773TIP3   OH265733   4.649   4.155  12.251 -0.4952  0.2279 -0.3170
14773TIP3    H165734   4.635   4.100  12.329  1.1772 -0.8240 -0.7223
14773TIP3    H265735   4.651   4.244  12.285 -1.1678 -0.1061  0.6511
14774TIP3   OH265736   6.027   2.490   0.509  0.3813  0.0833  0.0283
14774TIP3    H165737   6.108   2.456   0.472 -0.4097 -0.4322 -1.2925
14774TIP3    H265738   5.985   2.537   0.437 -1.3838 -1.2708  0.0954
14775TIP3   OH265739   0.123   2.645   3.921  0.3977  0.1698 -0.2071
14775TIP3    H165740   0.185   2.713   3.896  0.9832 -1.1425 -2.6235
14775TIP3    H265741   0.119   2.650   4.017  2.9664  1.3886 -0.0846
14776TIP3   OH265742   5.291   2.260  11.537 -0.5194 -0.3197  0.3132
14776TIP3    H165743   5.266   2.351  11.523 -1.2113 -0.3438  1.3314
14776TIP3    H265744   5.226   2.209  11.488  1.2524 -0.2793 -2.3426
14777TIP3   OH265745   1.578   2.660  14.734  0.2530  0.0146  0.0865
14777TIP3    H165746   1.489   2.647  14.767 -1.4754  4.4128 -1.9787
14777TIP3    H265747   1.629   2.683  14.811 -0.6803 -1.3800  1.1646
14778TIP3   OH265748   1.645   6.450   1.685 -0.2023 -0.1730 -0.1660
14778TIP3    H165749   1.675   6.504   1.758  0.3983 -0.1896 -0.3982
14778TIP3    H265750   1.550   6.442   1.699 -0.5944  2.3090 -1.0236
14779TIP3   OH265751   6.081   0.634   3.090  0.0156 -0.7561  0.4780
14779TIP3    H165752   5.990   0.661   3.105 -0.5785 -0.2199 -3.2004
14779TIP3    H265753   6.085   0.545   3.124 -0.9378  0.1788  3.3962
14780TIP3   OH265754   3.116   0.658  15.353  0.4550 -0.2225 -0.6920
14780TIP3    H165755   3.060   0.592  15.312 -1.4374 -1.0513  2.7978
14780TIP3    H265756   3.055   0.724  15.386  1.9130  0.8179  0.0510
14781TIP3   OH265757   3.207   4.821   1.344  0.2027  0.2402 -0.4154
14781TIP3    H165758   3.183   4.903   1.387 -0.3837  0.8488 -1.8521
14781TIP3    H265759   3.124   4.786   1.311  0.6228 -0.2634 -0.9650
14782TIP3   OH265760   4.668   2.297  11.412 -0.0793  0.6485  0.1705
14782TIP3    H165761   4.751   2.342  11.427 -0.6276  1.1140  2.1326
14782TIP3    H265762   4.688   2.205  11.424  0.5209  0.5729 -1.2687
14783TIP3   OH265763   5.903   4.098   2.581  0.1176  0.0156  0.4923
14783TIP3    H165764   5.945   4.067   2.661  3.5471  1.1265 -0.6881
14783TIP3    H265765   5.902   4.022   2.523 -0.3680 -0.2296  0.8112
14784TIP3   OH265766   3.372   0.780   5.849 -0.1214 -0.0283  0.2261
14784TIP3    H165767   3.293   0.771   5.903  0.6064 -1.4241  1.0954
14784TIP3    H265768   3.444   0.784   5.912  0.6303 -0.2340 -0.6099
14785TIP3   OH265769   3.837   6.321   4.342  0.0330  0.1818 -0.3691
14785TIP3    H165770   3.903   6.291   4.280 -0.6530 -0.8864 -0.6104
14785TIP3    H265771   3.861   6.412   4.361  1.9815 -0.4127  0.1478
14786TIP3   OH265772   5.346   5.843  15.946 -0.3269 -0.1445 -0.3387
14786TIP3    H165773   5.283   5.834  16.017  0.6560  0.1177  0.5937
14786TIP3    H265774   5.430   5.817  15.984  0.0836 -0.8737 -1.6547
14787TIP3   OH265775   3.748   4.105   5.922  0.0637  0.1986  0.5083
14787TIP3    H165776   3.741   4.034   5.858  0.6563 -0.4022  1.1037
14787TIP3    H265777   3.807   4.071   5.989 -0.8967  0.6434  1.6091
14788TIP3   OH265778   1.532   4.963  13.882  0.5063 -0.6068 -0.1300
14788TIP3    H165779   1.492   4.961  13.795 -0.4535  0.4501  0.2702
14788TIP3    H265780   1.606   5.023  13.873  0.2104 -0.2394 -0.1455
14789TIP3   OH265781   4.328   2.632  15.833 -0.0546  0.5896  0.6807
14789TIP3    H165782   4.360   2.683  15.907 -1.6034 -1.0639  2.6372
14789TIP3    H265783   4.237   2.660  15.822 -0.7272 -1.1744  1.3596
14790TIP3   OH265784   6.176   2.772  11.963  0.2314  0.1504 -0.3298
14790TIP3    H165785   6.128   2.774  11.880  0.5316  0.6172 -0.4942
14790TIP3    H265786   6.219   2.857  11.969  0.4997 -0.0103  0.1367
14791TIP3   OH265787   3.026   0.023   4.457 -0.1809  0.0972  0.3818
14791TIP3    H165788   2.966   0.006   4.384  0.5828  1.1215 -0.5096
14791TIP3    H265789   2.973   0.072   4.520 -0.5656  0.0682  0.0842
14792TIP3   OH265790   5.840   5.667  16.503 -0.1452  0.5834 -0.2539
14792TIP3    H165791   5.888   5.679  16.585  0.6830  0.1495 -0.6610
14792TIP3    H265792   5.868   5.740  16.448  0.0956  0.3105 -0.5025
14793TIP3   OH265793   2.117   6.025  13.637  0.0791  0.1341  1.3525
14793TIP3    H165794   2.066   6.106  13.631  1.1720  0.7531 -0.9807
14793TIP3    H265795   2.060   5.958  13.600  0.4570  0.6119 -0.1976
14794TIP3   OH265796   3.033   3.096  14.526  0.0553 -0.1325 -0.2581
14794TIP3    H165797   3.081   3.098  14.444  0.9354 -1.7112  0.1820
14794TIP3    H265798   2.951   3.050  14.506 -0.1554  0.3146 -0.4417
14795TIP3   OH265799   1.626   3.895   4.236  0.0005 -0.0994  0.7297
14795TIP3    H165800   1.702   3.921   4.184 -1.5863  2.2847 -0.6084
14795TIP3    H265801   1.644   3.930   4.324  1.6261 -2.0460  1.2468
14796TIP3   OH265802   4.177   4.223  14.959 -0.3058 -0.2616  0.6779
14796TIP3    H165803   4.153   4.316  14.958  1.4743  0.2410 -0.0290
14796TIP3    H265804   4.196   4.204  15.051 -0.6692  0.0931  0.8268
14797TIP3   OH265805   6.521   6.775   5.132 -0.4922 -0.1821 -0.0254
14797TIP3    H165806   6.566   6.720   5.068 -2.4801 -0.2502 -1.4441
14797TIP3    H265807   6.534   6.730   5.216  0.7791 -0.9628 -0.6121
14798TIP3   OH265808   5.360   4.371   2.581  0.0861 -0.3115  0.5061
14798TIP3    H165809   5.323   4.297   2.532  0.8716  0.8506 -2.0169
14798TIP3    H265810   5.285   4.422   2.609 -0.3864 -0.0234 -1.1878
14799TIP3   OH265811   4.852   2.072  12.405 -0.0936 -0.4453 -0.1429
14799TIP3    H165812   4.830   2.038  12.492 -0.2378 -1.4749 -0.5627
14799TIP3    H265813   4.896   1.998  12.362  1.9783  0.7404 -0.1901
14800TIP3   OH265814   3.491   3.981   3.032 -0.1024  0.9569 -0.3693
14800TIP3    H165815   3.412   4.034   3.044 -0.1023  0.8974 -0.1003
14800TIP3    H265816   3.484   3.946   2.943 -0.5488  0.6703 -0.2213
14801TIP3   OH265817   2.042   2.302  11.924 -0.2590  0.7206 -0.4240
14801TIP3    H165818   2.018   2.240  11.855 -0.2522  1.1508 -0.8189
14801TIP3    H265819   1.997   2.383  11.900 -0.3502  0.8422  0.1418
14802TIP3   OH265820   0.768   4.267   4.179 -0.1192  0.0032 -0.2869
14802TIP3    H165821   0.798   4.182   4.209 -0.7838  0.0528  0.5683
14802TIP3    H265822   0.821   4.330   4.228  1.0235  0.1132 -1.5936
14803TIP3   OH265823   3.888   0.908  13.521  0.4895 -0.5170 -0.3047
14803TIP3    H165824   3.821   0.937  13.459 -0.6352  0.2040  1.1745
14803TIP3    H265825   3.933   0.837  13.476 -0.0216  0.2214 -2.0789
14804TIP3   OH265826   0.494   2.236  14.364  0.1121  0.3040  0.4907
14804TIP3    H165827   0.463   2.192  14.443 -0.1207  1.4264  1.0491
14804TIP3    H265828   0.581   2.269  14.388  0.3964 -0.0727 -0.0056
14805TIP3   OH265829   1.327   4.173  12.860  0.2685 -0.0696  0.1766
14805TIP3    H165830   1.375   4.112  12.805  0.3074 -2.4361  2.6073
14805TIP3    H265831   1.296   4.241  12.800  0.8980 -2.0338 -2.5573
14806TIP3   OH265832   4.555   1.335   2.381 -0.1805  0.0786  0.1593
14806TIP3    H165833   4.580   1.290   2.462  2.2780 -0.9789 -1.0913
14806TIP3    H265834   4.503   1.271   2.332 -0.3993  0.1886  0.2441
14807TIP3   OH265835   4.295   4.847   3.432  0.4774 -0.0790  0.0862
14807TIP3    H165836   4.220   4.823   3.378  0.3277  0.5752 -0.0023
14807TIP3    H265837   4.272   4.820   3.520  0.8934 -1.5438 -0.2311
14808TIP3   OH265838   1.041   4.174   5.956  0.4840 -0.0960  0.0641
14808TIP3    H165839   1.056   4.080   5.967 -1.5981 -0.6129 -0.9522
14808TIP3    H265840   1.090   4.215   6.028  0.2498 -2.0700  1.4243
14809TIP3   OH265841   1.635   0.520  11.934 -0.2465  0.3316  0.1836
14809TIP3    H165842   1.691   0.452  11.895  0.9959  0.2446  2.0204
14809TIP3    H265843   1.578   0.473  11.994 -0.2286  0.7567  0.5396
14810TIP3   OH265844   6.260   2.037  15.814  0.1242  0.4643  0.3851
14810TIP3    H165845   6.331   1.973  15.810 -0.0449  0.0878  2.4098
14810TIP3    H265846   6.289   2.101  15.878 -1.3887  0.2332  1.3468
14811TIP3   OH265847   1.920   3.030  10.572  0.4280 -0.3524 -0.8437
14811TIP3    H165848   1.942   3.020  10.664  1.2243  2.1207 -0.6905
14811TIP3    H265849   1.864   3.108  10.569 -0.5116 -1.0510 -2.3221
14812TIP3   OH265850   0.017   0.330  12.644 -0.3021 -0.8430 -0.5164
14812TIP3    H165851  -0.067   0.365  12.673 -0.8701 -1.4461 -1.4143
14812TIP3    H265852   0.039   0.380  12.566  1.3702  0.9838  1.0089
14813TIP3   OH265853   2.402   3.777   4.410 -0.4988  0.1935 -0.1137
14813TIP3    H165854   2.421   3.820   4.493  2.7835 -1.7312  0.3152
14813TIP3    H265855   2.318   3.735   4.423 -0.8307  1.2735  1.6124
14814TIP3   OH265856   6.598   1.377  14.376  0.5044  0.0982  0.1342
14814TIP3    H165857   6.537   1.330  14.433 -0.2312 -1.2317 -1.6530
14814TIP3    H265858   6.547   1.448  14.339  0.1096 -0.7654 -1.0383
14815TIP3   OH265859   4.114   2.226   0.798 -0.7022  0.1449  0.1560
14815TIP3    H165860   4.185   2.249   0.738 -0.2267  0.8006  0.9479
14815TIP3    H265861   4.049   2.295   0.785 -0.1613  0.8473  1.0898
14816TIP3   OH265862   3.613   6.778  12.634 -0.2732  0.2004  0.2837
14816TIP3    H165863   3.539   6.733  12.673 -0.0573 -1.8606 -1.5429
14816TIP3    H265864   3.590   6.871  12.640 -1.6441 -0.1955  2.3332
14817TIP3   OH265865   2.393   2.125  10.749  0.4603  0.2674 -0.1886
14817TIP3    H165866   2.472   2.120  10.694  0.7764  0.3461  0.2487
14817TIP3    H265867   2.322   2.094  10.693  0.7741  0.3764 -0.6491
14818TIP3   OH265868   2.950   5.803   4.607  0.7608 -0.0074 -0.0493
14818TIP3    H165869   3.043   5.825   4.607  0.2246  2.5736 -0.1499
14818TIP3    H265870   2.911   5.863   4.671 -0.8486 -0.9853 -0.0566
14819TIP3   OH265871   3.912   5.911   0.513  0.2151 -0.2728  0.0087
14819TIP3    H165872   3.956   5.857   0.578  3.3671 -0.5731 -2.1607
14819TIP3    H265873   3.950   5.998   0.523  2.0134 -0.6952 -2.3666
14820TIP3   OH265874   0.246   4.102  12.052 -0.0244  0.1265  0.2703
14820TIP3    H165875   0.271   4.171  12.114 -0.0249  0.3193  0.0607
14820TIP3    H265876   0.329   4.062  12.026  0.0040  0.2730  0.1363
14821TIP3   OH265877   5.288   1.524   2.654 -0.3423  0.3742 -1.1083
14821TIP3    H165878   5.229   1.466   2.703  2.2904 -1.0441  0.6856
14821TIP3    H265879   5.374   1.508   2.693  1.2275  2.4788 -3.3968
14822TIP3   OH265880   4.382   6.395   3.380  0.5919  0.3035  0.1365
14822TIP3    H165881   4.351   6.310   3.349 -1.1137  1.2470 -0.8931
14822TIP3    H265882   4.439   6.427   3.311 -1.4799  1.4430 -1.1422
14823TIP3   OH265883   0.384   0.949  16.726 -0.7329 -0.7835  0.5894
14823TIP3    H165884   0.434   0.899  16.662 -0.9383 -0.8786  0.5001
14823TIP3    H265885   0.330   0.884  16.771 -0.0421 -0.8213  1.3838
14824TIP3   OH265886   1.124   2.576  17.195 -0.6780 -0.0005  0.4313
14824TIP3    H165887   1.111   2.614  17.282 -0.6804  0.3525  0.2813
14824TIP3    H265888   1.214   2.544  17.195 -0.6338  0.1220  0.5204
14825TIP3   OH265889   4.824   6.275  11.952  0.1079 -0.2016  0.2595
14825TIP3    H165890   4.870   6.228  12.022  3.8308 -1.3248 -2.5728
14825TIP3    H265891   4.761   6.211  11.918  1.5067 -1.4108 -0.2249
14826TIP3   OH265892   0.352   3.834   6.472 -0.0061  0.1019 -0.1628
14826TIP3    H165893   0.340   3.899   6.402 -0.0813 -0.0569 -0.2970
14826TIP3    H265894   0.447   3.832   6.486 -0.0649  0.8212  0.3935
14827TIP3   OH265895   2.674   3.442   5.961 -0.0792 -0.2369  1.2032
14827TIP3    H165896   2.694   3.491   6.041 -0.6080 -0.2329  1.3316
14827TIP3    H265897   2.718   3.492   5.891  0.1470 -0.0862  1.4511
14828TIP3   OH265898   6.005   3.852  14.127 -0.5122 -0.0619 -0.3235
14828TIP3    H165899   6.052   3.843  14.210  0.2606  1.5706 -0.5630
14828TIP3    H265900   5.917   3.878  14.153 -0.0025  1.4245 -0.0286
14829TIP3   OH265901   4.723   6.155   6.108 -0.6557  0.1555  0.1368
14829TIP3    H165902   4.728   6.168   6.203 -2.3466 -1.1942  0.4596
14829TIP3    H265903   4.756   6.237   6.071  1.2265  0.2562  1.8390
14830TIP3   OH265904   2.148   1.615   0.449 -0.2483  0.1157  0.1162
14830TIP3    H165905   2.122   1.678   0.381 -1.4082 -0.6224 -0.1554
14830TIP3    H265906   2.137   1.529   0.408 -2.0744 -0.4076  1.5517
14831TIP3   OH265907   2.204   5.614  17.094 -0.8270 -0.2885  0.4094
14831TIP3    H165908   2.299   5.625  17.095 -0.6896 -1.3917  0.3962
14831TIP3    H265909   2.170   5.700  17.069  0.2328 -0.3034 -1.2251
14832TIP3   OH265910   0.394   3.895   6.013  0.0782  0.4487  0.2250
14832TIP3    H165911   0.325   3.830   6.026  1.5273 -1.5585 -1.4112
14832TIP3    H265912   0.378   3.961   6.081 -3.5624  0.2667 -0.2310
14833TIP3   OH265913   6.059   1.002  12.497 -0.2701  0.3359 -0.3939
14833TIP3    H165914   5.982   1.054  12.521  0.7582  2.1992 -0.8677
14833TIP3    H265915   6.067   1.014  12.402  1.9633  2.2876 -0.0504
14834TIP3   OH265916   3.972   2.240  13.838 -0.5036 -0.6032 -0.3998
14834TIP3    H165917   4.034   2.264  13.769  0.0288 -1.0275 -0.0834
14834TIP3    H265918   3.910   2.313  13.842 -1.1187 -1.0098 -1.9750
14835TIP3   OH265919   0.779   5.888  12.882 -0.2927  0.0453  0.8302
14835TIP3    H165920   0.831   5.864  12.806  0.5199  0.7710  1.1466
14835TIP3    H265921   0.729   5.965  12.854  0.0408  0.3408  1.0380
14836TIP3   OH265922   4.137   5.723   0.349 -0.5763 -0.0600 -0.6808
14836TIP3    H165923   4.047   5.699   0.368 -0.6951 -0.2557 -1.4622
14836TIP3    H265924   4.162   5.668   0.275  0.3986 -0.4551 -0.0856
14837TIP3   OH265925   4.257   3.798  14.434 -0.2249 -0.3264  0.7190
14837TIP3    H165926   4.256   3.879  14.486  0.0111 -1.9457  3.4410
14837TIP3    H265927   4.349   3.773  14.430 -0.1919 -0.0309 -0.9062
14838TIP3   OH265928   1.247   0.805   5.379  0.5415 -0.0553 -0.2117
14838TIP3    H165929   1.204   0.798   5.294  1.6111  0.6025 -0.8268
14838TIP3    H265930   1.189   0.861   5.431  0.5457  0.6657 -0.9610
14839TIP3   OH265931   5.187   1.672   4.408  0.0352 -0.1558  0.2281
14839TIP3    H165932   5.281   1.657   4.411  0.4090  1.8461 -0.1786
14839TIP3    H265933   5.168   1.722   4.488 -0.2488  1.3779 -0.7447
14840TIP3   OH265934   3.494   2.875  15.564  0.9718 -0.4875 -0.0010
14840TIP3    H165935   3.450   2.790  15.574  1.3907 -0.5481  1.5439
14840TIP3    H265936   3.543   2.886  15.645 -0.5733  2.1044  0.6921
14841TIP3   OH265937   0.599   6.110  12.840 -0.3148 -0.5126 -0.0804
14841TIP3    H165938   0.550   6.122  12.921 -1.7061  0.6966 -1.0493
14841TIP3    H265939   0.532   6.097  12.773  0.7238  0.3200 -1.3240
14842TIP3   OH265940   0.367   2.254  11.478  0.5016  0.0989  0.6158
14842TIP3    H165941   0.278   2.220  11.471  1.6034 -2.8814 -0.4038
14842TIP3    H265942   0.367   2.303  11.560 -1.7050 -1.0329  1.3748
14843TIP3   OH265943   3.835   5.990   3.393 -0.2288  0.1733  0.1311
14843TIP3    H165944   3.891   5.922   3.431  1.5979  1.3093 -0.4182
14843TIP3    H265945   3.876   6.009   3.308 -0.9853  1.6217  0.0694
14844TIP3   OH265946   6.753   3.869   1.186 -0.3964 -0.0951  0.4378
14844TIP3    H165947   6.779   3.943   1.241  0.3509  0.7359 -0.9597
14844TIP3    H265948   6.662   3.887   1.164  0.0930  1.0731 -0.8160
14845TIP3   OH265949   5.675   5.578  14.631 -0.0785  0.3083  0.6412
14845TIP3    H165950   5.754   5.622  14.666 -0.0270 -0.1854  1.1601
14845TIP3    H265951   5.618   5.569  14.707 -0.1496 -0.3937  0.5058
14846TIP3   OH265952   0.791   6.364   6.432 -0.2557 -0.4755  0.6579
14846TIP3    H165953   0.787   6.445   6.483  0.3427 -0.8396  1.2966
14846TIP3    H265954   0.799   6.295   6.497 -0.8082 -1.0562  0.1155
14847TIP3   OH265955   2.791   5.047  12.929 -0.2595  0.3091 -0.2074
14847TIP3    H165956   2.792   5.120  12.990  1.5981 -0.8158  1.2138
14847TIP3    H265957   2.820   5.084  12.845  3.7264  0.7712  1.1743
14848TIP3   OH265958   3.814   2.610  14.370  1.1315 -0.4175  0.3943
14848TIP3    H165959   3.849   2.699  14.380  0.5096 -0.1795  0.5087
14848TIP3    H265960   3.719   2.622  14.369  0.9461 -0.5493 -4.3481
14849TIP3   OH265961   6.265   3.943  11.909 -0.4414 -0.0355  0.9269
14849TIP3    H165962   6.287   3.985  11.826  0.6536  0.8220  1.6168
14849TIP3    H265963   6.249   3.851  11.886 -0.9984  0.3631 -0.3366
14850TIP3   OH265964   2.264   4.995  16.237  0.3160  0.3025 -0.0218
14850TIP3    H165965   2.258   4.954  16.323 -0.8160 -0.4556 -0.4318
14850TIP3    H265966   2.354   4.978  16.208 -0.3434 -2.8304 -0.5858
14851TIP3   OH265967   0.281   1.615  11.968 -0.1065  0.1868 -0.3266
14851TIP3    H165968   0.295   1.676  11.896  1.1445 -1.6507 -1.7471
14851TIP3    H265969   0.364   1.568  11.977 -0.4929 -0.2370  1.7787
14852TIP3   OH265970   1.108   5.701  16.910  0.3661  0.2459 -0.1799
14852TIP3    H165971   1.100   5.794  16.887  0.6821  0.2391 -0.3235
14852TIP3    H265972   1.019   5.668  16.909  0.1619  0.7251  0.6205
14853TIP3   OH265973   0.189   2.740   4.729  0.3224 -0.5333 -0.2777
14853TIP3    H165974   0.230   2.793   4.797  0.2358 -0.4127 -0.3176
14853TIP3    H265975   0.119   2.692   4.774 -0.6094  0.5430 -0.5111
14854TIP3   OH265976   6.222   5.543  16.455  0.1676  0.2827 -0.5894
14854TIP3    H165977   6.234   5.448  16.463  0.1281  0.3204 -0.0535
14854TIP3    H265978   6.271   5.580  16.529 -2.5312  0.4987  1.2170
14855TIP3   OH265979   5.901   5.774   2.041  0.1675 -0.3526  0.1461
14855TIP3    H165980   5.979   5.719   2.039 -0.5391 -1.3532 -1.1178
14855TIP3    H265981   5.833   5.722   1.998 -1.2087  0.4959  1.2100
14856TIP3   OH265982   5.547   3.890   0.648 -0.6923  0.3021  0.3590
14856TIP3    H165983   5.584   3.976   0.669 -2.9204  1.2398  0.7318
14856TIP3    H265984   5.523   3.897   0.555 -1.1563  0.2025  0.4700
14857TIP3   OH265985   4.761   0.397   3.542  0.3666 -0.0442 -0.2995
14857TIP3    H165986   4.782   0.402   3.449  0.4604  0.4270 -0.2543
14857TIP3    H265987   4.675   0.355   3.545  0.9540 -1.2962 -0.5214
14858TIP3   OH265988   6.735   3.268  15.659 -0.0693 -0.2923  0.6225
14858TIP3    H165989   6.721   3.314  15.742 -4.9864  1.7842 -0.9918
14858TIP3    H265990   6.735   3.337  15.593  1.8862 -2.0273 -1.3324
14859TIP3   OH265991   5.035   6.266   6.317  0.5298 -0.2703  0.4061
14859TIP3    H165992   4.997   6.334   6.373 -0.1788 -0.1138 -0.2512
14859TIP3    H265993   5.026   6.185   6.367  0.8900  0.0259  0.9647
14860TIP3   OH265994   3.743   1.968  14.840 -0.4608 -0.1331  0.5831
14860TIP3    H165995   3.664   2.015  14.815 -0.0181 -0.3376 -1.4038
14860TIP3    H265996   3.812   2.034  14.839  0.0847 -0.6436 -1.7831
14861TIP3   OH265997   2.283   6.046   2.140 -0.8431  0.2385  0.8360
14861TIP3    H165998   2.262   6.114   2.077 -1.1152 -0.8074 -0.2379
14861TIP3    H265999   2.199   6.015   2.172 -0.7523 -0.1821  0.6727
14862TIP3   OH266000   5.110   3.103   2.788 -0.4810 -0.3648 -0.0406
14862TIP3    H166001   5.105   3.184   2.838  2.1122 -0.1143 -0.0719
14862TIP3    H266002   5.018   3.080   2.771 -1.3273  1.5494  1.5297
14863TIP3   OH266003   5.451   4.127  12.199 -0.0021 -0.6301 -0.2758
14863TIP3    H166004   5.420   4.099  12.286 -1.5559 -1.2814 -1.0037
14863TIP3    H266005   5.374   4.120  12.143  0.8953  0.1116 -1.6519
14864TIP3   OH266006   5.974   4.217   5.990 -0.4027 -0.1901  0.3637
14864TIP3    H166007   5.896   4.271   6.004 -1.2722 -1.6208  1.2973
14864TIP3    H266008   6.017   4.214   6.075  0.7995  0.7174 -0.1831
14865TIP3   OH266009   2.926   2.771   1.277  0.1487 -0.0710 -0.5737
14865TIP3    H166010   2.997   2.771   1.342  0.7526 -0.9211 -1.2047
14865TIP3    H266011   2.882   2.687   1.289  0.2208 -0.2074 -1.1958
14866TIP3   OH266012   5.368   2.434  14.663  0.0906 -0.3465  0.1916
14866TIP3    H166013   5.415   2.361  14.704  1.1702  0.8251  1.1219
14866TIP3    H266014   5.353   2.496  14.735 -2.2308 -0.3180 -0.2446
14867TIP3   OH266015   3.681   5.940  11.690 -0.0689 -0.4012 -0.2563
14867TIP3    H166016   3.667   6.029  11.658 -0.1080 -0.3798 -0.1822
14867TIP3    H266017   3.640   5.884  11.625 -0.7873 -0.3269  0.1182
14868TIP3   OH266018   2.712   6.116   1.970  0.4558 -0.3316  0.4075
14868TIP3    H166019   2.672   6.032   1.990  0.1368 -1.1629 -3.1801
14868TIP3    H266020   2.806   6.099   1.968  0.4518 -0.3744  0.5798
14869TIP3   OH266021   3.518   1.407   5.299  0.4211  0.1086 -0.0098
14869TIP3    H166022   3.498   1.354   5.221  1.1697 -1.6495  0.9174
14869TIP3    H266023   3.468   1.487   5.287 -1.7694 -1.2952 -0.9590
14870TIP3   OH266024   4.299   3.460  16.768 -0.2461 -0.5688 -0.2311
14870TIP3    H166025   4.263   3.395  16.708 -1.1861 -0.9758  0.7512
14870TIP3    H266026   4.353   3.409  16.829  1.0434 -0.1114 -0.9383
14871TIP3   OH266027   2.431   3.531  10.967  0.5814  0.4375  0.4112
14871TIP3    H166028   2.510   3.497  10.924  0.5750  1.3035 -0.3168
14871TIP3    H266029   2.430   3.488  11.052  0.7222 -1.1688 -0.3532
14872TIP3   OH266030   4.323   5.403   1.665 -0.2960 -0.0079  0.4517
14872TIP3    H166031   4.259   5.338   1.695 -0.0021  0.6282  2.6239
14872TIP3    H266032   4.280   5.487   1.679  0.3487  0.3588  0.2754
14873TIP3   OH266033   3.975   5.124  13.089 -0.7162 -0.0054  0.0012
14873TIP3    H166034   3.909   5.169  13.143 -1.2013 -0.0472 -0.5461
14873TIP3    H266035   3.954   5.151  13.000 -1.1745 -1.5252 -0.3653
14874TIP3   OH266036   0.990   6.631   5.520 -0.3958  0.0930 -0.3873
14874TIP3    H166037   1.007   6.656   5.610 -0.1398 -0.2914 -0.3247
14874TIP3    H266038   1.044   6.553   5.506 -2.3606 -1.4009 -0.0707
14875TIP3   OH266039   6.697   5.892   5.313 -0.3157 -0.1329  0.5322
14875TIP3    H166040   6.649   5.975   5.307  0.3639  0.1933 -0.9150
14875TIP3    H266041   6.768   5.910   5.374  3.5280  2.4489 -3.9678
14876TIP3   OH266042   3.236   0.738  17.176 -0.1876  0.1605  0.1041
14876TIP3    H166043   3.321   0.777  17.160 -0.0750  0.2799  0.9187
14876TIP3    H266044   3.241   0.708  17.267 -0.7182 -0.5910 -0.1082
14877TIP3   OH266045   3.103   4.713  15.929  0.7322  0.3066 -0.6664
14877TIP3    H166046   3.111   4.781  15.996  2.0918  0.2900 -0.8019
14877TIP3    H266047   3.152   4.639  15.963  0.9680  0.1025 -1.4251
14878TIP3   OH266048   2.754   5.359   3.209 -0.0106  0.6280 -0.4781
14878TIP3    H166049   2.668   5.381   3.173 -0.0119 -0.4563 -1.1694
14878TIP3    H266050   2.782   5.283   3.159  1.6281  1.3287 -0.6803
14879TIP3   OH266051   5.530   6.189   2.816 -0.0107 -0.0235  0.2630
14879TIP3    H166052   5.554   6.263   2.761 -0.1669 -0.8776 -0.9953
14879TIP3    H266053   5.613   6.150   2.842  0.0612 -0.4478 -0.5574
14880TIP3   OH266054   0.807   6.251   5.453 -0.1906  0.2151  0.1419
14880TIP3    H166055   0.796   6.346   5.464 -1.1741  0.1309 -0.0246
14880TIP3    H266056   0.796   6.215   5.541 -0.3938  0.2027  0.1106
14881TIP3   OH266057   0.127   5.871  16.441 -0.5304 -0.2246  0.2849
14881TIP3    H166058   0.144   5.789  16.394 -0.2270 -1.0209  1.7205
14881TIP3    H266059   0.151   5.939  16.378  0.2569 -1.2377 -0.5693
14882TIP3   OH266060   3.161   4.613   5.127 -0.1168 -0.0058 -0.1188
14882TIP3    H166061   3.069   4.639   5.131  0.0591  0.4738  1.2616
14882TIP3    H266062   3.210   4.695   5.138  0.5350  0.0057 -2.4300
14883TIP3   OH266063   1.204   0.420   3.826 -0.2637  0.3551 -0.4956
14883TIP3    H166064   1.138   0.482   3.858 -0.6285  1.0186 -2.3918
14883TIP3    H266065   1.286   0.452   3.862 -0.9412 -0.6830  2.1991
14884TIP3   OH266066   5.691   1.742   3.983  0.3785 -0.5871  0.5522
14884TIP3    H166067   5.615   1.683   3.983 -1.3322  1.4613 -0.6820
14884TIP3    H266068   5.657   1.825   3.949  3.5044  0.0193 -1.5771
14885TIP3   OH266069   5.187   4.909  11.198 -0.2304 -0.0860  0.7442
14885TIP3    H166070   5.138   4.848  11.142  0.7041  0.3165 -0.5547
14885TIP3    H266071   5.279   4.892  11.178  0.0776  1.0499  1.1131
14886TIP3   OH266072   3.243   3.887   2.290 -0.8210  0.0886  0.3725
14886TIP3    H166073   3.206   3.930   2.213 -1.1887 -0.3200  0.3173
14886TIP3    H266074   3.258   3.958   2.352  2.8490  1.0465 -1.3258
14887TIP3   OH266075   1.053   5.498  15.450 -0.4003  0.3375  0.3735
14887TIP3    H166076   0.983   5.455  15.501 -0.4969 -0.4539 -0.3920
14887TIP3    H266077   1.015   5.581  15.423 -1.1458 -0.1796 -0.2190
14888TIP3   OH266078   3.300   5.300  11.845  0.6920 -0.3304  0.9604
14888TIP3    H166079   3.311   5.346  11.762  2.0498 -1.0119  0.7320
14888TIP3    H266080   3.220   5.249  11.833  1.3623 -1.1395 -0.3062
14889TIP3   OH266081   4.213   6.196   2.256  0.0430  0.2462 -0.0682
14889TIP3    H166082   4.148   6.261   2.283  1.2593  1.2504  0.5340
14889TIP3    H266083   4.192   6.119   2.308 -2.2771 -0.3733 -1.7844
14890TIP3   OH266084   4.359   5.703   5.326 -0.1553 -0.2120 -0.2919
14890TIP3    H166085   4.440   5.753   5.338 -0.0327 -0.2875 -0.7791
14890TIP3    H266086   4.289   5.766   5.341 -0.0392 -0.4962  1.6913
14891TIP3   OH266087   1.442   6.280  11.859  0.3590 -1.1074 -0.0248
14891TIP3    H166088   1.531   6.263  11.828 -0.0408 -0.0343 -1.9322
14891TIP3    H266089   1.390   6.288  11.778 -0.9373  1.0456  0.9385
14892TIP3   OH266090   5.571   4.264  11.842  0.1486 -0.1856  0.2302
14892TIP3    H166091   5.633   4.292  11.775 -0.3509 -0.0436 -0.1823
14892TIP3    H266092   5.577   4.168  11.842  0.7457 -0.1499  0.5633
14893TIP3   OH266093   4.139   0.041  15.388  0.2129  0.4131 -0.1571
14893TIP3    H166094   4.163   0.000  15.305  0.2721  1.4992 -0.6834
14893TIP3    H266095   4.066  -0.012  15.420  0.9120 -0.7050 -0.3206
14894TIP3   OH266096   6.424   4.363  12.997  0.3934  0.4528 -0.6377
14894TIP3    H166097   6.517   4.373  13.016  0.8866 -0.5327 -2.3055
14894TIP3    H266098   6.411   4.411  12.915 -0.3686 -0.1531 -0.8811
14895TIP3   OH266099   0.697   6.024   5.299 -0.1765 -0.0052 -0.2624
14895TIP3    H166100   0.691   5.998   5.391 -1.9922 -1.0506 -0.6260
14895TIP3    H266101   0.742   6.109   5.301  2.4803 -1.2951  1.3075
14896TIP3   OH266102   1.355   1.464  14.375 -0.0438  0.2831 -0.4328
14896TIP3    H166103   1.412   1.389  14.358  1.1223  1.0906 -0.2091
14896TIP3    H266104   1.371   1.523  14.301  0.2036  0.9798  0.1651
14897TIP3   OH266105   4.458   2.883   1.389  0.2310 -0.1501  0.0835
14897TIP3    H166106   4.417   2.796   1.393 -0.7336  0.3447  2.5870
14897TIP3    H266107   4.387   2.944   1.404  1.0044  1.1083 -1.1052
14898TIP3   OH266108   2.262   2.762   6.183  0.4572  0.5379 -0.0915
14898TIP3    H166109   2.276   2.856   6.188 -0.3310  0.9431 -3.2045
14898TIP3    H266110   2.350   2.725   6.175  0.7540  1.0087  0.8555
14899TIP3   OH266111   5.914   3.398   4.979 -0.3607  0.8186  0.7911
14899TIP3    H166112   5.908   3.447   5.061 -2.9403  1.5643  0.2279
14899TIP3    H266113   5.852   3.326   4.990 -0.9718  1.1032 -0.5832
14900TIP3   OH266114   0.581   3.858  15.951  0.2329 -0.1315  0.0633
14900TIP3    H166115   0.607   3.769  15.976  0.8741  0.1034  0.2599
14900TIP3    H266116   0.653   3.889  15.896 -0.8046 -0.3720 -1.5127
14901TIP3   OH266117   2.892   1.034   3.605  0.3341  0.3387  0.4559
14901TIP3    H166118   2.899   1.122   3.643 -1.1302 -0.7830  3.7577
14901TIP3    H266119   2.802   1.007   3.624  0.6818 -1.8193 -0.6210
14902TIP3   OH266120   2.637   0.214   1.025 -0.6029  0.1247 -0.0126
14902TIP3    H166121   2.570   0.281   1.036 -0.1472  0.4090  1.2432
14902TIP3    H266122   2.670   0.198   1.114  1.4308  0.4528 -0.6458
14903TIP3   OH266123   0.646   5.096   4.211 -0.2860 -0.2419 -0.1939
14903TIP3    H166124   0.617   5.005   4.201  1.3750 -1.0060  1.3478
14903TIP3    H266125   0.595   5.129   4.285 -0.3772 -0.1438 -0.3002
14904TIP3   OH266126   2.344   0.780  10.771  0.9714  0.3092  0.0641
14904TIP3    H166127   2.309   0.855  10.821  1.8402 -0.3854  1.8091
14904TIP3    H266128   2.438   0.781  10.790  0.9549 -1.3821  0.3670
14905TIP3   OH266129   0.461   0.869   0.203  0.6782 -0.2335 -0.0835
14905TIP3    H166130   0.399   0.907   0.140  0.8377  0.4210  0.1451
14905TIP3    H266131   0.510   0.944   0.237 -0.9001 -0.2416  2.5006
14906TIP3   OH266132   3.362   1.441   0.948  0.2652 -0.0193 -0.5262
14906TIP3    H166133   3.426   1.492   0.998  1.1099 -1.0322 -0.5479
14906TIP3    H266134   3.315   1.506   0.896 -0.5170  1.0565  1.4123
14907TIP3   OH266135   4.332   6.561   3.040  0.3929 -0.5254 -0.0179
14907TIP3    H166136   4.325   6.590   2.949  2.3113  0.1641  0.0208
14907TIP3    H266137   4.265   6.492   3.048 -1.5238  1.0848 -1.2202
14908TIP3   OH266138   2.200   2.065   4.183 -0.4272 -0.3321 -0.6342
14908TIP3    H166139   2.271   2.007   4.210  0.5303  0.9333 -0.3164
14908TIP3    H266140   2.131   2.007   4.154  0.5893 -1.6187 -0.5633
14909TIP3   OH266141   2.424   1.568  15.034 -0.0638  0.4365 -0.1959
14909TIP3    H166142   2.422   1.661  15.011  1.2531  1.1007  1.9950
14909TIP3    H266143   2.340   1.533  15.003 -0.6374  2.3792 -0.9535
14910TIP3   OH266144   1.782   3.575  14.282  0.4673  0.3078  0.2010
14910TIP3    H166145   1.693   3.574  14.318  0.2223  1.1445 -0.3519
14910TIP3    H266146   1.806   3.482  14.275  0.3794  0.1014  2.1229
14911TIP3   OH266147   6.359   0.775  14.927 -0.5664 -0.0959 -0.2794
14911TIP3    H166148   6.337   0.702  14.985  3.7846 -0.4368  1.2968
14911TIP3    H266149   6.295   0.843  14.950 -0.6047 -1.1029  3.2250
14912TIP3   OH266150   3.668   4.170   2.457 -0.1671 -0.1747  0.4198
14912TIP3    H166151   3.676   4.242   2.394 -0.1464 -0.3848  0.1818
14912TIP3    H266152   3.750   4.172   2.507  1.5302 -2.3068 -1.9837
14913TIP3   OH266153   5.609   6.540  14.671  0.2254  0.0788  0.0481
14913TIP3    H166154   5.696   6.552  14.633  0.2578  0.9988  0.4020
14913TIP3    H266155   5.588   6.448  14.651  0.8436  0.1220 -0.9246
14914TIP3   OH266156   4.057   5.979  16.634 -0.1777 -0.7529  0.0610
14914TIP3    H166157   4.007   5.961  16.555  0.3087  2.8860 -1.2657
14914TIP3    H266158   4.105   5.899  16.651 -1.6196 -2.2318 -2.3045
14915TIP3   OH266159   0.958   0.690  12.124 -0.7323  0.0650  0.0380
14915TIP3    H166160   1.003   0.671  12.042  0.0822  0.7062  0.3325
14915TIP3    H266161   0.898   0.762  12.102  0.3846  1.0932  0.2830
14916TIP3   OH266162   5.232   2.177   0.908 -0.6385  0.3989  0.3665
14916TIP3    H166163   5.137   2.180   0.900 -0.7083  0.8920  1.1748
14916TIP3    H266164   5.253   2.084   0.914 -1.2756  0.3256  2.1007
14917TIP3   OH266165   1.387   1.761  13.168  0.4309  0.0051 -0.1922
14917TIP3    H166166   1.354   1.701  13.235 -1.2046 -0.7515 -1.5807
14917TIP3    H266167   1.422   1.703  13.100  0.3283  0.6771 -0.8277
14918TIP3   OH266168   3.907   6.691  15.620  0.3005  0.3131 -0.1459
14918TIP3    H166169   3.916   6.644  15.537 -1.1709  0.8201 -0.6376
14918TIP3    H266170   3.834   6.752  15.604  1.8454  2.4662  0.5810
14919TIP3   OH266171   3.549   0.872  15.738 -0.9052  0.2775  0.2125
14919TIP3    H166172   3.481   0.805  15.732 -2.8725  2.0419  1.5250
14919TIP3    H266173   3.553   0.910  15.650 -0.3612 -0.9658 -0.3197
14920TIP3   OH266174   0.335   0.141  16.075  0.6075  0.4562  0.0564
14920TIP3    H166175   0.381   0.224  16.084  0.2838  0.5322  1.1247
14920TIP3    H266176   0.256   0.152  16.128  1.8762 -1.4883  2.4968
14921TIP3   OH266177   0.179   3.676   6.784 -0.2246 -0.2642  0.1502
14921TIP3    H166178   0.218   3.603   6.831  0.6017  0.6235  0.8950
14921TIP3    H266179   0.092   3.645   6.758  0.1132 -1.4936  0.4413
14922TIP3   OH266180   6.350   3.848  10.883 -0.4405  0.3535 -0.4714
14922TIP3    H166181   6.403   3.797  10.822 -1.1008 -1.3041  0.2797
14922TIP3    H266182   6.271   3.796  10.896 -0.6208  0.9947  1.2600
14923TIP3   OH266183   2.189   3.650   4.978 -0.5637 -0.7350 -0.2485
14923TIP3    H166184   2.223   3.625   4.893 -0.5169  1.9416 -1.1157
14923TIP3    H266185   2.267   3.665   5.032 -0.4143  0.8238 -0.8214
14924TIP3   OH266186   4.619   3.540  16.539  0.2414 -0.3065 -0.0112
14924TIP3    H166187   4.559   3.591  16.594 -0.2452 -2.2803  1.3613
14924TIP3    H266188   4.562   3.499  16.474  0.5479  0.2831 -0.6694
14925TIP3   OH266189   0.487   6.088  15.709 -0.0883  0.2968 -0.1183
14925TIP3    H166190   0.571   6.097  15.664  0.9186 -0.4616  1.4849
14925TIP3    H266191   0.479   6.168  15.760 -0.4240  0.4427 -0.4008
14926TIP3   OH266192   3.864   3.947  12.936  0.3044  0.1210  0.2289
14926TIP3    H166193   3.946   3.981  12.900 -0.7904  0.8133 -1.8129
14926TIP3    H266194   3.854   3.860  12.897 -0.2496  0.3192 -0.0839
14927TIP3   OH266195   4.945   0.580   3.662  0.1931 -0.1893 -0.1426
14927TIP3    H166196   4.901   0.501   3.632 -0.9853  0.6281 -0.6563
14927TIP3    H266197   4.907   0.599   3.748  0.1354  0.0643 -0.2219
14928TIP3   OH266198   0.510   6.720  16.938  0.2194  0.2284  0.1714
14928TIP3    H166199   0.519   6.807  16.901 -1.5177  0.2694 -0.2340
14928TIP3    H266200   0.567   6.720  17.015  2.2263  0.8426 -1.2591
14929TIP3   OH266201   4.190   1.122  11.648 -0.2169  0.2390 -0.1827
14929TIP3    H166202   4.271   1.078  11.623  0.1529  1.2447 -0.8339
14929TIP3    H266203   4.208   1.215  11.634 -0.9143  0.6293  1.3073
14930TIP3   OH266204   2.507   1.118  16.608 -0.4450 -0.4423  0.1753
14930TIP3    H166205   2.416   1.093  16.593 -1.4640  2.2398  1.1907
14930TIP3    H266206   2.514   1.206  16.571  1.1087  0.2435  1.9072
14931TIP3   OH266207   4.023   5.519   2.167  0.0152  0.4088 -0.0182
14931TIP3    H166208   4.011   5.464   2.089 -0.6762 -0.5363  0.7287
14931TIP3    H266209   4.106   5.489   2.205  0.4862  1.0486 -0.5079
14932TIP3   OH266210   3.476   2.167   1.200  0.1660 -0.3210 -0.1876
14932TIP3    H166211   3.540   2.159   1.129  2.2626  0.2286  1.5088
14932TIP3    H266212   3.421   2.090   1.193 -0.1831  0.0923 -2.8209
14933TIP3   OH266213   6.217   6.271  13.596  0.7138 -0.0964  0.0195
14933TIP3    H166214   6.260   6.210  13.536 -1.3939 -1.0778 -0.6042
14933TIP3    H266215   6.279   6.343  13.607  1.8486 -0.6966 -2.0172
14934TIP3   OH266216   2.693   2.740   4.639  0.5604 -0.1756 -0.0579
14934TIP3    H166217   2.750   2.783   4.702  0.0124  0.7608 -0.1802
14934TIP3    H266218   2.607   2.780   4.652 -0.1327 -1.7058  0.2630
14935TIP3   OH266219   0.704   0.253  10.797 -0.1582 -0.6624  0.3665
14935TIP3    H166220   0.752   0.171  10.809 -2.0833 -1.6382  1.9378
14935TIP3    H266221   0.708   0.296  10.883 -1.5635 -0.5011  0.3733
14936TIP3   OH266222   4.833   5.823  16.306  1.0060  0.4580 -0.1137
14936TIP3    H166223   4.844   5.749  16.245  1.0691 -0.4081  0.9131
14936TIP3    H266224   4.836   5.782  16.392  0.6604  1.6354  0.4654
14937TIP3   OH266225   4.702   2.226  16.923 -0.5164 -0.1402 -0.5748
14937TIP3    H166226   4.707   2.156  16.988  0.7782 -0.7150 -1.2407
14937TIP3    H266227   4.701   2.307  16.974  0.8583 -0.5681  0.1781
14938TIP3   OH266228   0.193   3.233  16.597  0.5266 -0.1566  0.1979
14938TIP3    H166229   0.105   3.200  16.615  0.1748  0.7322  0.1785
14938TIP3    H266230   0.242   3.215  16.677  0.4724 -1.0994  0.0317
14939TIP3   OH266231   3.542   5.594  16.947 -0.4940  0.0353 -0.0089
14939TIP3    H166232   3.457   5.565  16.982  0.1207 -0.4484  1.1532
14939TIP3    H266233   3.565   5.670  17.002 -0.2647  0.2871 -0.4521
14940TIP3   OH266234   0.582   3.068  13.441 -0.6103  0.0317  0.8764
14940TIP3    H166235   0.620   3.154  13.421 -0.4543  0.5145  3.0031
14940TIP3    H266236   0.580   3.022  13.357  2.0353  1.0306  0.1761
14941TIP3   OH266237   1.214   3.974   4.800  0.6608  0.2572 -0.0572
14941TIP3    H166238   1.302   3.951   4.829  0.1228 -0.8845  0.7232
14941TIP3    H266239   1.161   3.897   4.819 -0.5297  0.9512 -0.4502
14942TIP3   OH266240   6.659   3.677  14.149 -0.0713 -0.0591 -0.6608
14942TIP3    H166241   6.615   3.671  14.234 -0.1636  1.2667 -0.5932
14942TIP3    H266242   6.589   3.665  14.085 -0.4847  1.4738 -0.5478
14943TIP3   OH266243   0.887   5.455   2.135 -0.0955  0.0710  0.2358
14943TIP3    H166244   0.900   5.447   2.041  0.8762 -0.4738  0.3993
14943TIP3    H266245   0.935   5.535   2.159 -0.8671  0.5539  0.1784
14944TIP3   OH266246   6.224   3.197   4.710 -0.6879  0.5014 -0.3966
14944TIP3    H166247   6.228   3.292   4.704  1.9498  0.3693 -2.1517
14944TIP3    H266248   6.315   3.169   4.722 -1.4557 -1.7931  0.6923
14945TIP3   OH266249   2.914   3.962   6.725  0.1538  0.2594  0.3897
14945TIP3    H166250   2.970   3.983   6.800 -0.2450 -0.7111  0.9712
14945TIP3    H266251   2.933   4.032   6.661 -1.5719  2.7799  2.4280
14946TIP3   OH266252   0.398   5.309  16.744  0.5800 -0.1888  0.1195
14946TIP3    H166253   0.343   5.317  16.822  1.8912  1.3571  0.9347
14946TIP3    H266254   0.411   5.215  16.734 -0.8270 -0.4939  0.8783
14947TIP3   OH266255   5.002   1.134  15.031  0.1948  0.2589 -0.4240
14947TIP3    H166256   5.002   1.133  15.126 -0.5716  0.1980 -0.4196
14947TIP3    H266257   4.939   1.202  15.008  0.4223  0.3186 -0.8895
14948TIP3   OH266258   2.705   1.734  16.073 -0.2227 -0.0373 -0.1881
14948TIP3    H166259   2.665   1.656  16.034  1.0425 -0.1625 -1.3181
14948TIP3    H266260   2.755   1.701  16.147 -0.8496 -0.0942  0.2194
14949TIP3   OH266261   3.495   5.165  13.145  0.3250  0.2064 -0.5646
14949TIP3    H166262   3.440   5.167  13.067 -1.3596 -1.1323  0.5386
14949TIP3    H266263   3.546   5.085  13.136 -1.0708 -0.8338  0.4495
14950TIP3   OH266264   4.107   0.746   3.511 -0.1359 -0.6455  0.0960
14950TIP3    H166265   4.044   0.752   3.439 -2.8313 -0.7745  2.2520
14950TIP3    H266266   4.188   0.782   3.476 -1.4327 -0.3079 -2.8268
14951TIP3   OH266267   1.207   5.067  14.214  0.1747 -0.2608 -0.5232
14951TIP3    H166268   1.186   5.158  14.236  1.3407 -0.2071  0.4849
14951TIP3    H266269   1.167   5.016  14.284  1.1314 -0.3578 -0.0338
14952TIP3   OH266270   3.379   4.546  14.588  0.0527  0.1510  0.4814
14952TIP3    H166271   3.312   4.577  14.650 -1.1434  1.7268 -1.4521
14952TIP3    H266272   3.377   4.451  14.596 -1.6550  0.2153  1.2885
14953TIP3   OH266273   4.549   1.911   5.568  0.1153 -0.6659 -0.0719
14953TIP3    H166274   4.514   2.000   5.572  1.2873 -0.1916  0.2904
14953TIP3    H266275   4.555   1.884   5.659  0.3325 -0.8743 -0.1468
14954TIP3   OH266276   2.017   2.069   0.579 -0.6173  0.1556  0.0320
14954TIP3    H166277   2.095   2.076   0.523 -0.7154  0.3223 -0.0868
14954TIP3    H266278   1.992   1.977   0.572  0.2383 -0.1702  0.9917
14955TIP3   OH266279   3.259   4.118   3.034  0.0851  0.6331 -0.2245
14955TIP3    H166280   3.175   4.100   2.993  0.0325 -0.7153  0.4023
14955TIP3    H266281   3.270   4.212   3.027 -1.4748  0.8343 -0.3210
14956TIP3   OH266282   1.116   2.433  16.282 -0.1281  0.0730 -0.0864
14956TIP3    H166283   1.118   2.344  16.318 -1.1592 -0.0657 -0.3376
14956TIP3    H266284   1.040   2.474  16.324 -0.2962  0.4855 -0.7745
14957TIP3   OH266285   3.733   6.460   2.149 -0.3604 -0.9304 -0.0878
14957TIP3    H166286   3.665   6.461   2.082 -1.7767 -0.1099  1.2703
14957TIP3    H266287   3.796   6.526   2.122 -1.4786  0.1764 -0.1154
14958TIP3   OH266288   2.706   3.802  11.762  0.0719  0.4521  0.4765
14958TIP3    H166289   2.730   3.893  11.782  2.2534  0.6238 -2.3453
14958TIP3    H266290   2.765   3.749  11.815  1.7166  0.7969 -0.9416
14959TIP3   OH266291   0.164   3.716   0.353  0.3261  0.8791 -0.2285
14959TIP3    H166292   0.098   3.682   0.414  2.1329 -1.0722  0.7853
14959TIP3    H266293   0.190   3.800   0.390 -0.5526  0.9801  0.1706
14960TIP3   OH266294   0.200   2.527  16.009 -0.0245 -0.0926 -0.1810
14960TIP3    H166295   0.229   2.441  16.037 -0.7751  0.0856  1.2464
14960TIP3    H266296   0.279   2.581  16.008  0.4133 -0.7458 -0.8958
14961TIP3   OH266297   5.312   5.226  11.129  0.3747 -0.1201  0.1793
14961TIP3    H166298   5.404   5.249  11.119  0.2555  0.5649  0.5445
14961TIP3    H266299   5.290   5.179  11.049  1.1676 -0.7402  0.3115
14962TIP3   OH266300   4.972   6.709  12.280  0.0404 -0.5166 -0.4581
14962TIP3    H166301   4.966   6.614  12.272  0.7339 -0.7419  1.2172
14962TIP3    H266302   4.906   6.732  12.346 -1.9939  0.5420 -2.7183
14963TIP3   OH266303   3.690   1.993   4.906 -0.7625 -0.1529 -0.4926
14963TIP3    H166304   3.647   1.912   4.876 -1.2439 -0.1574  0.1976
14963TIP3    H266305   3.633   2.027   4.974  0.3492 -0.1742  0.4766
14964TIP3   OH266306   1.376   3.132  17.053  0.5257  0.0513  0.2092
14964TIP3    H166307   1.350   3.223  17.067  0.0743 -0.3276  2.0367
14964TIP3    H266308   1.301   3.093  17.007  0.8520  0.6574 -0.8614
14965TIP3   OH266309   6.266   3.299  13.591 -0.3361 -0.3743 -0.4754
14965TIP3    H166310   6.290   3.225  13.535 -1.8776  0.1222 -1.9101
14965TIP3    H266311   6.328   3.368  13.568 -2.2923  0.6102 -3.4778
14966TIP3   OH266312   2.531   1.312   0.175 -0.2285  0.0357  0.2189
14966TIP3    H166313   2.606   1.255   0.190  0.8668  0.2283 -3.6020
14966TIP3    H266314   2.549   1.390   0.227  1.4444 -0.5200  0.5211
14967TIP3   OH266315   3.823   6.002  16.053  0.0886  0.7383 -0.3078
14967TIP3    H166316   3.866   6.071  16.002  0.0815  1.8577  1.1340
14967TIP3    H266317   3.732   6.030  16.059 -0.2233 -0.1133 -0.8491
14968TIP3   OH266318   2.920   1.614  10.987  0.0176 -0.1472 -0.2918
14968TIP3    H166319   2.853   1.619  11.055  1.9074  0.7619  1.5843
14968TIP3    H266320   3.001   1.642  11.029  1.7673 -1.7729 -2.2957
14969TIP3   OH266321   2.341   5.803   6.088 -0.4505 -0.0588 -0.2653
14969TIP3    H166322   2.361   5.829   6.178  0.9467 -1.9560  0.0226
14969TIP3    H266323   2.267   5.742   6.097 -1.1828  0.7526 -0.5724
14970TIP3   OH266324   2.334   5.503   0.897  0.2596  0.6246  0.3915
14970TIP3    H166325   2.362   5.582   0.941 -2.2894  1.6222  0.3840
14970TIP3    H266326   2.318   5.440   0.967  1.6980  0.2672  0.4342
14971TIP3   OH266327   3.042   2.919   4.827 -0.3393  0.4592 -0.6812
14971TIP3    H166328   3.033   2.880   4.914 -0.0207  2.6934  0.4362
14971TIP3    H266329   3.010   2.852   4.767  0.7113 -1.6873  1.0204
14972TIP3   OH266330   3.336   3.952  13.690 -0.2300 -0.7235 -0.4376
14972TIP3    H166331   3.367   3.921  13.775  1.0839  1.4301 -0.0454
14972TIP3    H266332   3.407   3.930  13.629 -0.1556 -0.2572 -0.5234
14973TIP3   OH266333   6.548   6.137   5.323 -0.6308 -0.8162  0.3892
14973TIP3    H166334   6.453   6.130   5.312 -0.6184 -0.5523  0.1344
14973TIP3    H266335   6.559   6.203   5.391 -0.5215  2.2839 -2.4023
14974TIP3   OH266336   2.821   4.983   2.515 -0.1820  0.2545 -0.6236
14974TIP3    H166337   2.830   4.996   2.421 -1.4265  1.6006 -0.5763
14974TIP3    H266338   2.727   4.976   2.530  0.0430 -0.9603  0.4113
14975TIP3   OH266339   0.315   4.131   2.715  0.1252  0.4354 -0.0108
14975TIP3    H166340   0.362   4.088   2.787 -1.2335  0.7159  1.0927
14975TIP3    H266341   0.231   4.085   2.710 -0.4917  1.5390 -0.2469
14976TIP3   OH266342   4.052   4.790   3.332 -0.0718 -0.2508  0.6606
14976TIP3    H166343   4.033   4.697   3.345 -0.5264 -0.3954 -0.9019
14976TIP3    H266344   3.972   4.835   3.357 -0.0297 -0.3152  0.9140
14977TIP3   OH266345   1.167   4.570  12.543 -0.4498 -0.2384 -0.5028
14977TIP3    H166346   1.199   4.597  12.457  1.1832  2.5099  0.7880
14977TIP3    H266347   1.096   4.632  12.563  1.7041  1.7988  1.5429
14978TIP3   OH266348   2.107   0.027  16.183 -0.0034 -0.5263  0.2794
14978TIP3    H166349   2.083   0.117  16.207 -1.2678 -1.1786  1.5485
14978TIP3    H266350   2.115   0.030  16.087 -1.6870  0.5787  0.1317
14979TIP3   OH266351   5.006   6.057  12.106 -0.1562 -0.7307 -0.5504
14979TIP3    H166352   5.028   6.103  12.025  3.4603 -2.9472 -0.9971
14979TIP3    H266353   5.041   6.113  12.175 -1.7299  0.3077 -0.5187
14980TIP3   OH266354   4.639   3.234  12.227  0.1581  0.4875  0.2246
14980TIP3    H166355   4.645   3.193  12.141  1.6203 -0.2225  0.6339
14980TIP3    H266356   4.676   3.322  12.214  0.5899  0.2987  0.1740
14981TIP3   OH266357   5.064   2.461   3.554 -0.4170 -0.5189  0.0666
14981TIP3    H166358   4.996   2.411   3.508  0.6399 -1.2983 -0.6901
14981TIP3    H266359   5.120   2.395   3.593 -1.3204  0.1096  2.6440
14982TIP3   OH266360   2.441   3.867   4.688  0.0772 -0.2736 -0.2771
14982TIP3    H166361   2.445   3.908   4.774  2.8478  2.3057 -1.4419
14982TIP3    H266362   2.524   3.820   4.680 -0.9889 -2.1573 -0.8697
14983TIP3   OH266363   0.206   2.194   3.605  0.4381  0.8424 -0.5392
14983TIP3    H166364   0.136   2.252   3.635  1.2046  1.4142  0.1885
14983TIP3    H266365   0.286   2.247   3.611  1.1109 -0.1802 -0.1489
14984TIP3   OH266366   1.264   4.661   6.263  0.2581  0.1722 -0.2114
14984TIP3    H166367   1.322   4.687   6.191 -0.3928 -0.0274 -0.8161
14984TIP3    H266368   1.267   4.735   6.324  1.4456  0.0039 -0.0415
14985TIP3   OH266369   0.740   2.316   5.520  0.3101  0.2523  0.1417
14985TIP3    H166370   0.728   2.410   5.509  0.1629  0.5529  2.3110
14985TIP3    H266371   0.732   2.302   5.615 -0.5986 -2.0757 -0.2030
14986TIP3   OH266372   1.112   1.296  13.042  0.0191  0.4954  0.3135
14986TIP3    H166373   1.054   1.242  13.096 -2.2538  0.1772 -2.2385
14986TIP3    H266374   1.087   1.386  13.062 -2.8033  0.3654 -1.9776
14987TIP3   OH266375   5.542   1.325  12.882 -0.1894  0.4302  0.1391
14987TIP3    H166376   5.492   1.281  12.814 -1.9629  2.2885  0.1216
14987TIP3    H266377   5.511   1.286  12.964  0.1563 -0.1322  0.0009
14988TIP3   OH266378   3.650   6.267  16.470  0.0408 -0.9467  0.1771
14988TIP3    H166379   3.717   6.238  16.531 -0.2473 -1.8294  0.0861
14988TIP3    H266380   3.593   6.324  16.521  0.4786 -0.7205  0.4177
14989TIP3   OH266381   3.005   5.907   4.098  0.6096 -0.7554 -0.5047
14989TIP3    H166382   2.968   5.877   4.014  1.7661 -0.9390 -0.9709
14989TIP3    H266383   3.075   5.967   4.073  1.3342 -1.2373  0.3137
14990TIP3   OH266384   0.411   2.062  15.986 -0.4229 -0.4936  0.0593
14990TIP3    H166385   0.480   2.119  15.952 -0.4026  0.3030  1.3782
14990TIP3    H266386   0.453   2.015  16.059 -0.3999 -2.3142 -1.0768
14991TIP3   OH266387   3.894   4.262  13.334  0.0964 -0.8149 -0.1775
14991TIP3    H166388   3.807   4.273  13.296  0.3958 -0.3936 -0.7662
14991TIP3    H266389   3.878   4.241  13.426 -0.5945  1.3261  0.2374
14992TIP3   OH266390   2.500   6.110   4.221 -0.1259  0.1545  0.4495
14992TIP3    H166391   2.417   6.066   4.205  0.9626 -1.0362 -2.8419
14992TIP3    H266392   2.564   6.039   4.228  0.8580  1.0824  1.2735
14993TIP3   OH266393   6.268   2.243  12.487 -0.1178  0.2479 -0.4775
14993TIP3    H166394   6.182   2.221  12.524 -1.1851  1.4621 -2.0998
14993TIP3    H266395   6.292   2.166  12.436 -1.0296  0.5009 -1.3229
14994TIP3   OH266396   1.746   3.173   2.903  0.2529 -0.1849  0.5396
14994TIP3    H166397   1.752   3.161   2.997  1.1997 -0.2985  0.4782
14994TIP3    H266398   1.705   3.092   2.871  2.2329 -1.2968  0.6190
14995TIP3   OH266399   1.962   0.869  13.576  0.4131  0.0118  0.0776
14995TIP3    H166400   1.968   0.797  13.639 -0.9364 -1.1575 -1.0549
14995TIP3    H266401   1.962   0.826  13.491  0.1961  1.4218 -0.6623
14996TIP3   OH266402   4.336   0.359   5.604  0.1240  0.0129  0.4465
14996TIP3    H166403   4.348   0.266   5.621 -0.6653 -0.4223 -1.1423
14996TIP3    H266404   4.402   0.380   5.538  0.3696  0.6218  0.8742
14997TIP3   OH266405   0.820   5.299   5.948 -0.5152 -0.7174 -0.1372
14997TIP3    H166406   0.807   5.220   6.001  0.7097 -1.6808 -1.2107
14997TIP3    H266407   0.833   5.266   5.859 -3.8804  0.9118 -1.3859
14998TIP3   OH266408   4.956   1.687   1.594  0.1506 -0.4976  0.4961
14998TIP3    H166409   5.039   1.709   1.637  0.4471 -0.4703 -0.0758
14998TIP3    H266410   4.982   1.634   1.518 -0.2878  0.1453 -0.1192
14999TIP3   OH266411   3.750   5.580  13.304  0.2463 -0.0014  0.4454
14999TIP3    H166412   3.840   5.613  13.300  0.7945 -1.5277 -0.5255
14999TIP3    H266413   3.707   5.619  13.228  0.1631  0.5000  0.7467
15000TIP3   OH266414   3.713   6.159  13.731  0.2314 -0.4129  0.0654
15000TIP3    H166415   3.667   6.092  13.679 -0.9474 -1.6511  2.5047
15000TIP3    H266416   3.805   6.132  13.728 -0.0700 -1.5152  0.0514
15001TIP3   OH266417   5.972   1.610   4.520  0.0437 -0.1531  0.0468
15001TIP3    H166418   5.965   1.558   4.600 -1.9878 -3.1216 -1.8475
15001TIP3    H266419   5.913   1.684   4.533 -2.9370 -2.3789  0.1863
15002TIP3   OH266420   1.437   3.104   3.764  0.0216  0.2654  0.2427
15002TIP3    H166421   1.475   3.092   3.850  0.3712 -0.4947 -0.0071
15002TIP3    H266422   1.447   3.197   3.745  2.3221  0.0185 -0.0617
15003TIP3   OH266423   5.883   5.468  12.851 -0.1622 -0.7191 -0.5929
15003TIP3    H166424   5.837   5.533  12.904  2.1479 -0.1192  0.8179
15003TIP3    H266425   5.870   5.385  12.898  0.0450 -0.5934 -0.3164
15004TIP3   OH266426   3.649   4.076  13.070  0.0917 -0.2694 -0.1615
15004TIP3    H166427   3.726   4.028  13.038 -0.7194 -0.7914 -1.4174
15004TIP3    H266428   3.575   4.022  13.044 -0.7787  0.9582 -0.3135
15005TIP3   OH266429   2.589   3.701  16.092  0.2404 -0.2096 -0.5712
15005TIP3    H166430   2.499   3.726  16.112  1.1223  1.4863  1.9261
15005TIP3    H266431   2.615   3.759  16.021 -0.5127 -0.4490 -1.0505
15006TIP3   OH266432   2.190   2.209   1.953  0.3497 -0.0503  0.3799
15006TIP3    H166433   2.172   2.287   1.900  0.6170  0.8343  1.5393
15006TIP3    H266434   2.104   2.176   1.977  0.2295  0.4562  0.6655
15007TIP3   OH266435   3.698   6.766   1.495 -0.3833  0.4406 -0.1302
15007TIP3    H166436   3.629   6.770   1.428  0.5121 -2.8948 -1.4467
15007TIP3    H266437   3.770   6.721   1.453  2.1872  2.5240  1.6695
15008TIP3   OH266438   1.772   5.074   5.432 -0.7610 -0.4730  0.0227
15008TIP3    H166439   1.750   5.138   5.500  0.1854 -0.1036  0.0048
15008TIP3    H266440   1.690   5.060   5.385 -1.0907  0.4058  0.2997
15009TIP3   OH266441   0.440   1.652   2.295 -0.0548  0.1046  0.2662
15009TIP3    H166442   0.518   1.707   2.287  0.2025 -0.2061  0.6244
15009TIP3    H266443   0.461   1.590   2.364 -0.5417 -0.1180  0.2196
15010TIP3   OH266444   6.370   3.318  13.004 -0.4935 -0.2964 -0.1697
15010TIP3    H166445   6.375   3.236  12.955 -0.1812 -0.1327 -0.4142
15010TIP3    H266446   6.276   3.336  13.011 -0.5992  1.5797 -3.9321
15011TIP3   OH266447   2.391   1.233  16.949 -0.0547 -0.0961  0.2305
15011TIP3    H166448   2.460   1.167  16.952 -0.9050 -0.9472  1.7686
15011TIP3    H266449   2.343   1.214  16.868  0.4695 -0.5441  0.0162
15012TIP3   OH266450   5.338   0.678  16.088  0.2059  0.4978 -0.6447
15012TIP3    H166451   5.380   0.661  16.172 -1.7707  1.3119  0.5590
15012TIP3    H266452   5.410   0.674  16.025  2.1275  1.8790  1.3102
15013TIP3   OH266453   2.020   1.416   4.594 -0.8477 -0.3998 -0.7406
15013TIP3    H166454   2.037   1.419   4.500 -0.5780  0.4815 -0.6701
15013TIP3    H266455   1.928   1.389   4.601 -1.4405  1.3402 -1.3262
15014TIP3   OH266456   4.386   4.973  16.987 -0.2188  0.3283 -0.0291
15014TIP3    H166457   4.372   4.922  17.067  1.3942  1.5176  1.0887
15014TIP3    H266458   4.383   5.064  17.016  2.4133  0.7752 -0.8898
15015TIP3   OH266459   2.940   2.176  15.784 -0.5898  0.2631 -0.1704
15015TIP3    H166460   2.847   2.161  15.765 -0.7485 -1.5409  1.7186
15015TIP3    H266461   2.986   2.132  15.712 -1.0450  3.7674 -2.8976
15016TIP3   OH266462   0.971   4.188  14.472 -0.4690  0.3234  0.6276
15016TIP3    H166463   0.974   4.137  14.553 -1.6784 -0.2030  0.3514
15016TIP3    H266464   0.926   4.132  14.409  0.7929  0.5688 -0.5426
15017TIP3   OH266465   3.596   6.194  14.445 -0.5473  0.7842 -0.7180
15017TIP3    H166466   3.590   6.246  14.526 -0.0180  0.0814 -0.2116
15017TIP3    H266467   3.607   6.104  14.476 -0.9981  0.4241 -1.5833
15018TIP3   OH266468   5.584   5.996   3.274  0.6296 -0.4459 -0.1183
15018TIP3    H166469   5.551   5.995   3.184  1.1392  0.1172 -0.3159
15018TIP3    H266470   5.594   6.088   3.295  2.9785 -0.5665 -0.4129
15019TIP3   OH266471   4.298   2.222  12.972  0.1168 -0.6769  0.3898
15019TIP3    H166472   4.261   2.279  12.905  0.7524 -0.6773  0.0315
15019TIP3    H266473   4.362   2.277  13.018 -0.4117 -0.6329  1.0891
15020TIP3   OH266474   1.628   1.712  16.480 -0.3008 -0.2492  0.2981
15020TIP3    H166475   1.680   1.665  16.545  0.8489 -0.3502 -0.6462
15020TIP3    H266476   1.591   1.643  16.425  0.4167 -0.1075 -0.3752
15021TIP3   OH266477   1.431   5.238   5.449 -0.2279  0.3735 -0.1759
15021TIP3    H166478   1.470   5.188   5.377  0.3726 -0.6602  0.8285
15021TIP3    H266479   1.413   5.324   5.411 -0.2277 -0.2381 -1.6451
15022TIP3   OH266480   2.747   3.488  13.306  0.7846 -0.1280  0.1904
15022TIP3    H166481   2.732   3.483  13.400  1.4239  1.3255  0.4020
15022TIP3    H266482   2.688   3.557  13.275  1.8225  0.6370 -0.1535
15023TIP3   OH266483   1.114   2.053   4.256 -0.0166 -0.1237  0.0789
15023TIP3    H166484   1.114   2.076   4.163 -0.8172  0.2606  0.1677
15023TIP3    H266485   1.181   1.986   4.263  0.8000  0.5860 -0.5911
15024TIP3   OH266486   5.213   5.363  14.714 -1.0469 -0.2296  0.2486
15024TIP3    H166487   5.167   5.445  14.693  0.3272  0.3884 -0.4460
15024TIP3    H266488   5.227   5.368  14.809 -1.7950 -0.1100  0.3615
15025TIP3   OH266489   5.399   1.942   1.244  0.3705  0.0430  0.6474
15025TIP3    H166490   5.465   1.999   1.207 -0.1098  0.3150  0.1924
15025TIP3    H266491   5.316   1.989   1.231  0.1056 -0.1840  1.4030
15026TIP3   OH266492   4.165   4.994  17.193 -0.0935  0.2792  0.4485
15026TIP3    H166493   4.081   5.030  17.164  0.2216  1.7355  1.2213
15026TIP3    H266494   4.175   4.913  17.143 -1.5631  0.4946 -0.2627
15027TIP3   OH266495   1.522   3.501   0.051 -0.5659  0.0151 -0.4873
15027TIP3    H166496   1.489   3.590   0.037 -2.0534 -0.2139  1.2211
15027TIP3    H266497   1.592   3.512   0.116  1.9142  0.3071 -2.9940
15028TIP3   OH266498   5.014   6.007  16.371 -0.3681  0.2270 -0.1029
15028TIP3    H166499   4.985   6.007  16.462  0.0463 -1.8883  0.0902
15028TIP3    H266500   4.953   5.947  16.327  0.7270 -0.4719 -0.7190
15029TIP3   OH266501   2.478   6.302  17.026 -0.1279  1.0768  0.6161
15029TIP3    H166502   2.398   6.252  17.039  0.2386  0.2772 -0.0672
15029TIP3    H266503   2.536   6.272  17.096 -0.1684  1.1082  0.6642
15030TIP3   OH266504   2.260   4.550  15.202 -0.3452  0.3994  0.1761
15030TIP3    H166505   2.227   4.553  15.112 -0.6742 -0.0538  0.2772
15030TIP3    H266506   2.226   4.629  15.243 -1.1008  0.0619  0.2078
15031TIP3   OH266507   0.544   4.567  11.955 -0.1156 -0.2418 -0.3111
15031TIP3    H166508   0.608   4.638  11.950  0.2649 -0.6371 -1.2219
15031TIP3    H266509   0.597   4.487  11.957 -0.5617 -0.5533 -0.6377
15032TIP3   OH266510   1.659   1.075   3.157 -0.2692  0.5744  0.1701
15032TIP3    H166511   1.673   1.164   3.126  1.1820  0.9582  1.7975
15032TIP3    H266512   1.581   1.045   3.110 -0.3717  2.4298 -0.9255
15033TIP3   OH266513   4.779   2.734  15.057 -0.1268 -0.4881  0.0952
15033TIP3    H166514   4.702   2.698  15.012 -0.8320  1.2832 -0.2089
15033TIP3    H266515   4.769   2.706  15.148 -1.5975  0.3662  0.2401
15034TIP3   OH266516   5.822   2.624   3.119 -0.0163  0.1919 -0.1843
15034TIP3    H166517   5.811   2.554   3.055  1.7358  0.8143 -1.2701
15034TIP3    H266518   5.917   2.631   3.131 -0.1913  1.6701  0.6800
15035TIP3   OH266519   4.019   2.612   0.827  0.0072 -0.3404  0.0675
15035TIP3    H166520   3.941   2.628   0.774 -0.0100 -0.3139  0.1004
15035TIP3    H266521   4.085   2.670   0.791 -0.1112 -0.0521  0.3095
15036TIP3   OH266522   2.037   5.939   3.451  0.4024  0.8086 -0.1985
15036TIP3    H166523   1.987   6.011   3.488  1.2365  1.7492 -0.8353
15036TIP3    H266524   2.082   5.978   3.375  2.6412  0.2249  0.7423
15037TIP3   OH266525   1.230   6.088   3.281  0.0228  0.8967 -0.2849
15037TIP3    H166526   1.185   6.072   3.364 -0.9627 -0.2886 -1.0206
15037TIP3    H266527   1.306   6.030   3.284 -0.1966  0.6014 -0.3438
15038TIP3   OH266528   6.756   5.743   2.398 -0.2428 -0.1170  0.0257
15038TIP3    H166529   6.776   5.661   2.352  1.2137 -0.4758  1.2203
15038TIP3    H266530   6.824   5.750   2.464 -1.4429  1.1044  1.1889
15039TIP3   OH266531   1.035   4.755  15.441  0.3792 -0.2508 -0.1832
15039TIP3    H166532   1.062   4.839  15.404  1.0042  0.5631  1.9516
15039TIP3    H266533   1.115   4.719  15.480 -0.1750 -1.2006  0.1043
15040TIP3   OH266534   3.051   4.389  11.509  0.0179  0.5158 -0.5155
15040TIP3    H166535   2.967   4.397  11.465 -0.1294 -1.1446 -0.5669
15040TIP3    H266536   3.095   4.316  11.465 -0.0516 -1.0891  1.8842
15041TIP3   OH266537   6.078   2.321  15.360  0.1027  0.2088  0.2326
15041TIP3    H166538   6.134   2.398  15.346  0.2545 -0.0363 -0.5883
15041TIP3    H266539   6.086   2.302  15.453  2.0213 -0.3049  0.0065
15042TIP3   OH266540   4.051   5.302  15.363  0.5562 -0.3141 -0.2036
15042TIP3    H166541   4.140   5.330  15.379  0.5937  0.1861 -1.1912
15042TIP3    H266542   4.052   5.207  15.378  0.2887  0.1292  3.7503
15043TIP3   OH266543   4.166   1.936   4.437  0.1120  0.0965 -0.2081
15043TIP3    H166544   4.084   1.984   4.430 -0.4447 -0.9650 -1.3308
15043TIP3    H266545   4.160   1.867   4.371  2.4851  0.8105 -1.2980
15044TIP3   OH266546   6.002   0.171  14.088 -0.5013 -0.0541  0.7874
15044TIP3    H166547   5.984   0.117  14.011  0.8713 -1.3358  1.3135
15044TIP3    H266548   5.939   0.141  14.154 -0.7442  0.0669  0.6128
15045TIP3   OH266549   4.992   5.014   5.389 -0.1513 -0.5095 -0.1061
15045TIP3    H166550   4.910   4.973   5.418  0.4593 -0.6682  1.4873
15045TIP3    H266551   5.053   5.000   5.462  1.1099  0.1709 -0.9971
15046TIP3   OH266552   3.874   2.592   0.597  0.9923 -0.1664 -0.1164
15046TIP3    H166553   3.914   2.638   0.524 -0.6640  0.5064 -0.6562
15046TIP3    H266554   3.790   2.560   0.563 -0.8904  2.0771  1.9838
15047TIP3   OH266555   2.697   5.485  14.989  0.0350  0.4136 -0.2746
15047TIP3    H166556   2.730   5.552  14.928  1.7640 -0.4078 -0.3196
15047TIP3    H266557   2.657   5.534  15.060  0.4611  1.4743 -0.7445
15048TIP3   OH266558   6.708   1.774   3.212 -0.4637  0.0018  0.2292
15048TIP3    H166559   6.669   1.861   3.221 -2.2575 -0.7077 -0.2297
15048TIP3    H266560   6.732   1.749   3.302 -0.7557  0.6124  0.4812
15049TIP3   OH266561   3.716   2.045   1.946 -0.4725 -0.5146 -0.1671
15049TIP3    H166562   3.800   2.009   1.917 -0.9154 -1.7397  0.0176
15049TIP3    H266563   3.726   2.058   2.040 -0.7009 -1.3203 -0.0207
15050TIP3   OH266564   0.656   1.363   0.840  0.0263 -0.5237  0.6067
15050TIP3    H166565   0.663   1.344   0.747  0.1173 -1.7809  0.8495
15050TIP3    H266566   0.741   1.338   0.876  0.3155  0.8257  0.8940
15051TIP3   OH266567   3.205   6.034   3.687 -0.3435  0.5175  0.1787
15051TIP3    H166568   3.207   6.086   3.607 -0.2851 -0.1811 -0.2875
15051TIP3    H266569   3.156   6.087   3.749 -2.0897  0.2633 -0.9083
15052TIP3   OH266570   3.220   4.363  11.773  0.0611 -0.3471  0.1180
15052TIP3    H166571   3.225   4.268  11.773 -1.6730 -0.4755 -0.8389
15052TIP3    H266572   3.203   4.387  11.682 -0.9909  0.7527  0.5630
15053TIP3   OH266573   3.707   6.210   3.972  0.2445 -0.1668  0.4322
15053TIP3    H166574   3.735   6.300   3.989 -0.9668  0.1810  0.6148
15053TIP3    H266575   3.651   6.216   3.894  0.5774 -0.8500  0.1229
15054TIP3   OH266576   4.076   6.782   5.983 -0.1169  0.1782  1.0542
15054TIP3    H166577   4.159   6.736   5.969 -0.7419 -1.0189  1.1518
15054TIP3    H266578   4.073   6.847   5.913  0.5489 -0.2910  0.5724
15055TIP3   OH266579   2.418   3.972   4.965 -0.1430  0.0097 -0.3282
15055TIP3    H166580   2.336   3.978   5.014 -0.3282 -1.1260 -0.4764
15055TIP3    H266581   2.439   4.063   4.943 -0.4139  0.4859  1.2435
15056TIP3   OH266582   4.845   5.589  16.906 -0.9388  0.3428  0.0076
15056TIP3    H166583   4.932   5.628  16.904 -0.5830 -0.4327 -0.4097
15056TIP3    H266584   4.785   5.663  16.904 -0.3421  1.0223  2.9083
15057TIP3   OH266585   1.437   1.087   2.911  0.3230  0.5809 -0.0921
15057TIP3    H166586   1.363   1.145   2.927 -0.9088 -1.2290  1.2031
15057TIP3    H266587   1.408   1.029   2.840  1.1966  0.9490 -0.7759
15058TIP3   OH266588   6.586   4.282  14.067  0.0665 -0.2522  0.2041
15058TIP3    H166589   6.605   4.203  14.118  0.3439 -1.0590 -1.0979
15058TIP3    H266590   6.637   4.272  13.986 -0.4814  0.9023 -0.3144
15059TIP3   OH266591   4.145   1.169   3.087 -0.1449  0.0131 -0.0137
15059TIP3    H166592   4.168   1.228   3.015 -0.9957  1.0252  0.5189
15059TIP3    H266593   4.203   1.094   3.075  0.3969  0.5818 -1.1930
15060TIP3   OH266594   4.763   6.006   4.515  0.0811  0.3978 -0.7828
15060TIP3    H166595   4.780   5.912   4.504  1.9385  0.8084 -1.8357
15060TIP3    H266596   4.811   6.029   4.595 -2.9085 -0.0789  1.2928
15061TIP3   OH266597   2.477   0.977   5.138 -0.1780  0.3144 -0.5427
15061TIP3    H166598   2.462   1.062   5.179 -2.2600 -0.0017 -0.5607
15061TIP3    H266599   2.502   0.919   5.210 -0.7598  0.4697 -0.2173
15062TIP3   OH266600   2.857   5.389  14.763 -0.6505 -0.3538  0.5969
15062TIP3    H166601   2.864   5.417  14.854 -2.2680  1.3603  0.2716
15062TIP3    H266602   2.777   5.336  14.760 -0.9203  0.0638  0.1115
15063TIP3   OH266603   0.525   2.980  13.187  0.6310  0.2288 -0.6009
15063TIP3    H166604   0.452   2.919  13.196  0.2657  0.5546 -1.2852
15063TIP3    H266605   0.570   2.952  13.107 -0.0991  1.4113 -1.4619
15064TIP3   OH266606   2.587   3.421   5.409 -0.2128 -0.3373  0.3150
15064TIP3    H166607   2.618   3.480   5.340 -0.2203 -0.0220  0.5833
15064TIP3    H266608   2.645   3.345   5.402 -0.7702 -0.6974 -0.6237
15065TIP3   OH266609   3.305   1.973  15.702  0.2505  0.0761 -0.3331
15065TIP3    H166610   3.343   2.033  15.767  0.4865  0.2093 -0.5930
15065TIP3    H266611   3.247   2.027  15.650 -0.1281 -0.0832 -0.0793
15066TIP3   OH266612   2.713   4.357   5.008 -0.2795 -0.6728  0.2869
15066TIP3    H166613   2.737   4.449   4.997  0.6938 -0.9965 -0.3901
15066TIP3    H266614   2.747   4.333   5.094 -1.9117 -0.0038  1.1822
15067TIP3   OH266615   3.712   1.487   0.960 -0.1203  0.1729 -0.2773
15067TIP3    H166616   3.657   1.551   1.004  0.8669  0.2616  0.8813
15067TIP3    H266617   3.783   1.538   0.920  0.4973 -0.1448  0.3839
15068TIP3   OH266618   1.019   5.626   3.781  0.5747  1.0747  0.7227
15068TIP3    H166619   0.981   5.577   3.855 -2.0691  0.4543 -0.9084
15068TIP3    H266620   1.057   5.704   3.821 -1.8416  1.3800  2.6939
15069TIP3   OH266621   2.254   1.227  11.167 -0.1301 -0.2102 -0.4422
15069TIP3    H166622   2.264   1.131  11.163 -1.4074 -0.3851  0.1383
15069TIP3    H266623   2.163   1.240  11.192  0.3509  1.1503  0.6934
15070TIP3   OH266624   5.245   5.309  12.473 -0.4127 -0.8959  0.2541
15070TIP3    H166625   5.166   5.277  12.429 -1.2207 -0.6292  1.4607
15070TIP3    H266626   5.224   5.398  12.499 -0.0972 -1.1528  1.4615
15071TIP3   OH266627   4.735   5.686  14.600 -0.4194 -0.2647  0.4388
15071TIP3    H166628   4.782   5.743  14.661 -2.1674  0.2233  1.4092
15071TIP3    H266629   4.739   5.600  14.641 -1.3935  0.0180  1.1854
15072TIP3   OH266630   3.578   5.493  12.063  0.0578 -0.1147  0.9421
15072TIP3    H166631   3.532   5.487  12.146 -1.8142  0.0360 -0.0270
15072TIP3    H266632   3.551   5.577  12.026  0.1911 -0.5381 -0.1639
15073TIP3   OH266633   4.480   6.422  16.160 -0.2992 -0.0545  0.4423
15073TIP3    H166634   4.498   6.452  16.071 -0.4092 -2.0401 -0.2866
15073TIP3    H266635   4.567   6.414  16.200 -0.0385 -1.5818 -0.3492
15074TIP3   OH266636   5.100   4.053  16.368  0.3462  0.3369  0.0705
15074TIP3    H166637   5.045   4.114  16.318  0.3334 -1.3898 -2.1830
15074TIP3    H266638   5.039   3.986  16.398  0.9145 -0.7741 -1.1350
15075TIP3   OH266639   3.286   6.098  15.599  0.2336 -0.5136 -0.0038
15075TIP3    H166640   3.313   6.174  15.649 -1.6860  0.6657 -0.6529
15075TIP3    H266641   3.246   6.040  15.664 -0.5281  0.1533  0.1361
15076TIP3   OH266642   3.120   6.226   3.507  0.2108  0.0207 -0.8524
15076TIP3    H166643   3.061   6.292   3.545  0.6481  0.0380 -0.1854
15076TIP3    H266644   3.061   6.159   3.473 -0.2211 -0.6378  1.0300
15077TIP3   OH266645   5.735   1.635  10.692 -0.8348  0.4129  0.2125
15077TIP3    H166646   5.808   1.630  10.753 -1.6344  2.8255  1.4991
15077TIP3    H266647   5.662   1.595  10.739 -0.9692  0.3881 -0.0158
15078TIP3   OH266648   2.978   4.760   4.409 -0.1919 -0.1064 -0.1126
15078TIP3    H166649   2.945   4.849   4.394 -1.8789 -0.8508 -1.2359
15078TIP3    H266650   2.953   4.713   4.330  0.9925 -1.5057  0.3176
15079TIP3   OH266651   1.324   4.872   0.615 -0.1314  0.0059  0.1876
15079TIP3    H166652   1.409   4.907   0.590 -0.6684  1.6421  0.5809
15079TIP3    H266653   1.291   4.932   0.682 -0.8568 -1.5538  1.2990
15080TIP3   OH266654   1.948   1.658  15.584  0.0867  0.3946  0.4945
15080TIP3    H166655   1.929   1.679  15.493 -0.8444  0.2774  0.6524
15080TIP3    H266656   2.035   1.696  15.600  0.2237  0.4686 -0.4167
15081TIP3   OH266657   3.507   0.467   3.599 -0.3977  0.2390 -0.1992
15081TIP3    H166658   3.484   0.557   3.621 -0.8440  0.4480 -1.4780
15081TIP3    H266659   3.588   0.475   3.548 -1.3385  0.0875 -1.7871
15082TIP3   OH266660   0.576   3.796  16.716  0.3053  0.2131  0.2249
15082TIP3    H166661   0.484   3.818  16.701  0.0385 -0.7770  0.3729
15082TIP3    H266662   0.574   3.727  16.782  1.1226 -0.2700 -0.2436
15083TIP3   OH266663   5.877   3.625  12.789 -0.0541 -0.0260  0.0552
15083TIP3    H166664   5.929   3.553  12.823 -0.8040 -0.8794 -0.5639
15083TIP3    H266665   5.922   3.653  12.710  0.7062  0.7748  0.7484
15084TIP3   OH266666   6.626   3.398   5.285 -0.4684 -0.3685  0.2691
15084TIP3    H166667   6.535   3.405   5.254 -0.4785  0.3066  0.4305
15084TIP3    H266668   6.678   3.397   5.205 -0.4367  2.2142  0.1661
15085TIP3   OH266669   2.619   6.213  14.146  0.0853 -0.1358  0.0122
15085TIP3    H166670   2.584   6.205  14.057  2.9463  1.3271 -1.3970
15085TIP3    H266671   2.610   6.306  14.166 -0.0547 -0.3670  1.0366
15086TIP3   OH266672   5.972   6.636   2.647  0.1026 -0.2415  0.4486
15086TIP3    H166673   5.994   6.634   2.553  2.0439 -0.6252  0.8716
15086TIP3    H266674   5.877   6.649   2.649  0.0382 -0.0824 -1.5690
15087TIP3   OH266675   2.811   6.657  13.906  0.5308 -0.3218  0.3391
15087TIP3    H166676   2.890   6.691  13.948  0.2468  0.2170  0.4484
15087TIP3    H266677   2.841   6.626  13.821  0.8500 -0.0602  0.3532
15088TIP3   OH266678   3.887   4.296  10.738  0.2712 -0.0999  0.3352
15088TIP3    H166679   3.824   4.346  10.687  1.5865  1.7315  0.4268
15088TIP3    H266680   3.834   4.232  10.786 -1.5550  1.5542  0.6245
15089TIP3   OH266681   0.309   3.504   2.690 -0.3746  0.5536 -0.1679
15089TIP3    H166682   0.380   3.566   2.675  1.5106 -1.6806 -1.0395
15089TIP3    H266683   0.302   3.497   2.786  1.4280 -0.0468 -0.0484
15090TIP3   OH266684   3.317   0.141  16.330 -0.1979  0.1413  0.0733
15090TIP3    H166685   3.361   0.225  16.327 -0.8902  0.5018 -0.3297
15090TIP3    H266686   3.236   0.155  16.281 -0.2719 -0.7842 -0.0875
15091TIP3   OH266687   2.186   0.772  15.013 -0.4471 -1.0387 -0.5210
15091TIP3    H166688   2.223   0.840  15.069  0.1147 -1.6024 -0.1879
15091TIP3    H266689   2.227   0.786  14.928 -0.5248 -0.8104 -0.5221
15092TIP3   OH266690   0.354   1.518  17.096  0.4935 -0.3245  0.0133
15092TIP3    H166691   0.329   1.511  17.004  2.8741  0.9791 -0.8217
15092TIP3    H266692   0.384   1.608  17.106  2.1412 -0.9788  1.5314
15093TIP3   OH266693   4.221   3.640  12.525  0.2095  0.5887  0.2366
15093TIP3    H166694   4.158   3.606  12.589  0.1344  1.1380  0.4592
15093TIP3    H266695   4.173   3.645  12.443  0.1542  0.3916  0.2562
15094TIP3   OH266696   5.213   1.926  11.376  0.1269 -0.0542 -0.3644
15094TIP3    H166697   5.165   1.877  11.309 -0.6228  1.3640 -0.9229
15094TIP3    H266698   5.163   2.007  11.386  1.4234  0.6897  0.3672
15095TIP3   OH266699   0.251   4.275  11.854  0.4116 -0.6535  0.4438
15095TIP3    H166700   0.259   4.194  11.904 -1.8330 -1.3204 -0.1584
15095TIP3    H266701   0.235   4.246  11.764 -0.9725  0.4093  0.3130
15096TIP3   OH266702   4.806   5.000   3.020  0.2370 -0.5784 -0.3326
15096TIP3    H166703   4.766   4.985   3.106 -0.5155 -3.0741 -1.0146
15096TIP3    H266704   4.761   5.076   2.985 -2.3439 -1.8974 -0.1036
15097TIP3   OH266705   2.186   5.536   6.694  0.2623  0.7700 -0.2783
15097TIP3    H166706   2.122   5.600   6.725  0.7635  1.8165 -1.2843
15097TIP3    H266707   2.271   5.576   6.715  0.5841  0.5836 -1.1677
15098TIP3   OH266708   1.400   4.300  16.535 -0.1734 -0.1428 -0.3794
15098TIP3    H166709   1.313   4.337  16.555  0.1839  2.1039 -2.4802
15098TIP3    H266710   1.388   4.205  16.544 -2.4651  0.1683  0.7159
15099TIP3   OH266711   1.741   2.218   6.279  0.8361  0.1912 -0.3487
15099TIP3    H166712   1.650   2.238   6.259  1.2682  1.2991 -1.4097
15099TIP3    H266713   1.745   2.123   6.286 -0.6449  0.2114  1.1153
15100TIP3   OH266714   4.897   3.399   6.574 -0.8134  0.4895 -0.0115
15100TIP3    H166715   4.955   3.472   6.595  0.1317 -0.2794  0.1428
15100TIP3    H266716   4.954   3.335   6.531 -1.2438 -0.8502  1.3401
15101TIP3   OH266717   0.335   2.314  12.772  0.1414 -0.1517 -0.3010
15101TIP3    H166718   0.311   2.331  12.681  2.0770  1.4085 -0.5957
15101TIP3    H266719   0.430   2.329  12.775  0.5560 -2.4993  1.4764
15102TIP3   OH266720   1.423   6.613  11.183 -0.0863  0.6666  0.0914
15102TIP3    H166721   1.443   6.528  11.223 -2.4006  1.3395  3.0723
15102TIP3    H266722   1.504   6.664  11.192  0.6753 -0.5394  0.2356
15103TIP3   OH266723   5.361   3.622  11.343  0.5466 -0.0172  0.1185
15103TIP3    H166724   5.329   3.673  11.417 -0.5766 -1.8440  0.9808
15103TIP3    H266725   5.407   3.685  11.287 -1.1982  1.9944  0.8361
15104TIP3   OH266726   0.161   4.963   4.942 -0.2499  0.3014 -0.0415
15104TIP3    H166727   0.109   5.043   4.949  0.2929  0.6101  0.5043
15104TIP3    H266728   0.215   4.962   5.021 -0.0294 -0.4470 -0.1941
15105TIP3   OH266729   4.940   0.376   2.021 -0.1265 -0.4415  0.1540
15105TIP3    H166730   4.976   0.311   1.961 -1.7656 -2.1892  0.9619
15105TIP3    H266731   4.972   0.349   2.107 -0.2228  0.2890  0.4317
15106TIP3   OH266732   5.997   4.763   3.946 -0.8067  0.3653 -0.0109
15106TIP3    H166733   6.037   4.686   3.904 -1.1801  0.4935 -0.6028
15106TIP3    H266734   6.014   4.835   3.884 -0.8305  0.6758  0.3444
15107TIP3   OH266735   1.953   2.393   2.036 -0.0130  0.5801  0.0698
15107TIP3    H166736   1.893   2.395   1.962 -0.5718  0.4392  0.5115
15107TIP3    H266737   1.922   2.321   2.091  1.1222 -0.1147 -0.1470
15108TIP3   OH266738   0.036   0.500   0.910  0.4067  0.2032 -0.3766
15108TIP3    H166739  -0.016   0.426   0.881  1.0250 -0.3134 -0.2039
15108TIP3    H266740  -0.016   0.577   0.887  1.0491 -0.1254 -3.3054
15109TIP3   OH266741   3.042   3.145   4.074 -0.2775  0.0519  0.0455
15109TIP3    H166742   3.049   3.160   3.979  0.5413  0.2734  0.1364
15109TIP3    H266743   2.962   3.093   4.084  0.2451 -0.9658 -0.8865
15110TIP3   OH266744   2.333   5.014   5.586  0.2492  0.2649 -0.0854
15110TIP3    H166745   2.396   5.074   5.626 -1.3509  1.4212  0.7962
15110TIP3    H266746   2.281   4.981   5.659  0.7674 -1.8793 -0.6101
15111TIP3   OH266747   5.815   1.991   2.286  0.0578 -0.1514 -0.1587
15111TIP3    H166748   5.911   1.989   2.276 -0.1229  0.5953 -2.6931
15111TIP3    H266749   5.800   2.059   2.352  1.2713 -0.2324  0.2360
15112TIP3   OH266750   1.512   6.133   2.790  0.1007  0.2887  0.2754
15112TIP3    H166751   1.536   6.049   2.829  2.7034  0.8518  0.1043
15112TIP3    H266752   1.526   6.196   2.861 -1.8247  0.6291  0.4027
15113TIP3   OH266753   1.926   3.188   1.545 -0.1797 -0.2349  0.7534
15113TIP3    H166754   1.892   3.256   1.487  0.1486 -0.6024  0.1182
15113TIP3    H266755   1.905   3.219   1.633  3.2379  2.6428  0.7927
15114TIP3   OH266756   4.836   1.931  16.052 -0.2772 -0.6022  0.4686
15114TIP3    H166757   4.762   1.948  16.110  0.7660 -0.1785  1.7118
15114TIP3    H266758   4.798   1.886  15.977 -1.8641  0.0399  0.8572
15115TIP3   OH266759   1.678   2.190  12.122  0.2395  0.5911 -0.3321
15115TIP3    H166760   1.770   2.168  12.108 -0.2020 -1.1814 -0.6113
15115TIP3    H266761   1.647   2.218  12.035 -0.2735 -1.9636 -1.0397
15116TIP3   OH266762   1.758   1.710  11.021 -0.1207 -0.1169  0.1876
15116TIP3    H166763   1.691   1.649  10.991  0.0280  0.0458 -0.5028
15116TIP3    H266764   1.751   1.784  10.961  0.3931  0.0820  0.3709
15117TIP3   OH266765   3.247   5.427   2.323 -0.2579  0.1447  0.6941
15117TIP3    H166766   3.285   5.364   2.261 -1.2285 -0.9405  1.1703
15117TIP3    H266767   3.319   5.449   2.382 -0.0730 -1.0771  0.9450
15118TIP3   OH266768   4.789   4.198   3.469  0.5332 -0.3951  0.0838
15118TIP3    H166769   4.712   4.225   3.419 -0.5188 -3.0357  0.1068
15118TIP3    H266770   4.798   4.265   3.537  0.5666  1.9781 -2.1362
15119TIP3   OH266771   3.626   4.327   5.578  0.1569 -0.8052  0.2888
15119TIP3    H166772   3.659   4.247   5.536  0.4621  0.1569 -1.3807
15119TIP3    H266773   3.700   4.387   5.578 -1.1328  1.0063 -2.5289
15120TIP3   OH266774   3.059   6.368  13.336  0.6210  0.4478 -0.2898
15120TIP3    H166775   2.972   6.334  13.355  0.5156  1.0069  0.2639
15120TIP3    H266776   3.044   6.459  13.310  0.8017 -0.1375 -2.6822
15121TIP3   OH266777   1.305   4.215  12.454 -0.1525  0.2291 -0.0090
15121TIP3    H166778   1.323   4.124  12.477  2.4320  0.6508 -0.0720
15121TIP3    H266779   1.231   4.240  12.508 -0.4289 -1.6921  0.5443
15122TIP3   OH266780   6.356   4.150   1.462  0.3920  0.1288  0.1649
15122TIP3    H166781   6.325   4.129   1.550  1.4035 -1.2317  0.2403
15122TIP3    H266782   6.450   4.165   1.473  0.3674  0.8640 -0.5488
15123TIP3   OH266783   3.399   6.491   2.587 -0.0290  0.1422  0.0836
15123TIP3    H166784   3.447   6.412   2.560  2.2289  1.0320  1.2073
15123TIP3    H266785   3.346   6.514   2.510  1.6767 -0.6982 -1.4278
15124TIP3   OH266786   0.998   1.639  14.691 -0.5513  0.2518  0.6268
15124TIP3    H166787   0.934   1.623  14.622 -0.5215  1.8779  0.1751
15124TIP3    H266788   1.080   1.654  14.643 -0.0920 -0.5514  1.1362
15125TIP3   OH266789   0.520   1.285  11.169 -0.7690  0.2165  0.4062
15125TIP3    H166790   0.563   1.263  11.087 -2.0047 -1.6371  0.2072
15125TIP3    H266791   0.583   1.261  11.237 -0.3895  0.2123  0.0537
15126TIP3   OH266792   1.760   3.031   0.650  0.6949 -0.2609 -0.2887
15126TIP3    H166793   1.732   3.123   0.651  1.8157  0.0898 -0.1176
15126TIP3    H266794   1.841   3.030   0.700 -1.0257 -1.9625  2.7537
15127TIP3   OH266795   3.634   2.475   5.396 -0.4866 -0.4536  0.4798
15127TIP3    H166796   3.633   2.546   5.461  0.1343 -0.8616  0.9393
15127TIP3    H266797   3.722   2.439   5.401 -1.1075 -1.9902  1.0491
15128TIP3   OH266798   1.997   1.157  11.617  0.4116 -0.1233  0.1249
15128TIP3    H166799   1.939   1.179  11.690  0.0634  0.5716 -0.3513
15128TIP3    H266800   1.964   1.073  11.585  0.3776 -0.2842  0.5716
15129TIP3   OH266801   2.009   0.673  12.515  0.4594 -0.5928 -0.4595
15129TIP3    H166802   2.049   0.723  12.586  0.1362 -0.7219 -0.1827
15129TIP3    H266803   2.084   0.642  12.462  0.8761 -2.3155  1.0346
15130TIP3   OH266804   4.117   4.290  15.971  0.0299  0.4165  0.3033
15130TIP3    H166805   4.105   4.203  16.006 -3.5629  0.9818  0.8565
15130TIP3    H266806   4.159   4.340  16.041 -1.5059  0.0443  1.5254
15131TIP3   OH266807   5.349   0.441  13.513 -0.2192  0.0244 -1.2141
15131TIP3    H166808   5.339   0.507  13.581 -1.0045  0.0773 -1.3636
15131TIP3    H266809   5.274   0.382  13.525  1.4147 -1.9468  0.0854
15132TIP3   OH266810   5.819   6.409  14.899 -0.0700 -0.3568  0.4955
15132TIP3    H166811   5.849   6.319  14.913 -1.4462 -0.5606  2.5431
15132TIP3    H266812   5.724   6.404  14.905 -0.3782  0.8749 -1.9846
15133TIP3   OH266813   2.239   1.746   2.526  0.6005 -0.2122 -0.1694
15133TIP3    H166814   2.210   1.659   2.552  0.5378 -0.3030 -0.5407
15133TIP3    H266815   2.334   1.745   2.541  0.6350 -0.4235 -0.3918
15134TIP3   OH266816   6.688   6.097   3.790  0.7102 -0.0579 -0.2673
15134TIP3    H166817   6.759   6.062   3.843 -0.0253 -1.5013 -0.1914
15134TIP3    H266818   6.732   6.137   3.715  1.6373 -0.0603  0.2565
15135TIP3   OH266819   0.890   4.438   4.377  0.1737  0.0167  0.1355
15135TIP3    H166820   0.953   4.389   4.429  2.1372  1.8463 -0.3558
15135TIP3    H266821   0.822   4.464   4.439 -1.0152 -3.2701  0.3845
15136TIP3   OH266822   3.030   5.474   3.375  0.3757  0.7396 -0.1751
15136TIP3    H166823   3.043   5.533   3.301 -0.9650  2.2290  0.7152
15136TIP3    H266824   3.108   5.418   3.375  1.2848  1.9370 -1.5749
15137TIP3   OH266825   5.967   5.204  15.465 -0.3430 -0.5381 -0.2394
15137TIP3    H166826   6.058   5.218  15.492 -0.4175 -0.6547  0.0791
15137TIP3    H266827   5.960   5.109  15.455 -0.5635 -0.5782  0.2346
15138TIP3   OH266828   1.550   4.920   1.006 -0.0193 -0.4627  0.3935
15138TIP3    H166829   1.495   4.891   1.079  0.4456  0.3367  1.0785
15138TIP3    H266830   1.577   4.839   0.963 -1.6026 -0.8796  0.1285
15139TIP3   OH266831   0.384   4.613  15.398  0.4001 -0.5469 -0.0747
15139TIP3    H166832   0.410   4.639  15.309 -0.3527 -1.1224 -0.4742
15139TIP3    H266833   0.314   4.674  15.420  1.6976  0.6921  0.8140
15140TIP3   OH266834   2.604   1.090  16.868 -0.2511 -0.3905  0.0672
15140TIP3    H166835   2.684   1.039  16.856  0.2426  0.2708  0.4031
15140TIP3    H266836   2.576   1.114  16.780  0.2798 -0.1133 -0.0316
15141TIP3   OH266837   2.953   3.525   3.101 -0.4008  0.4349  0.3237
15141TIP3    H166838   2.859   3.514   3.085 -1.1111 -2.2292  4.7307
15141TIP3    H266839   2.960   3.614   3.136 -1.4346  0.4045  0.6484
15142TIP3   OH266840   2.386   4.528  14.547 -0.4443  0.4353  0.3103
15142TIP3    H166841   2.293   4.540  14.564 -0.5683 -1.3717  1.1582
15142TIP3    H266842   2.429   4.574  14.619 -0.6018  2.1075 -0.6086
15143TIP3   OH266843   6.129   6.643  16.178 -0.0987 -0.0306  0.4953
15143TIP3    H166844   6.093   6.589  16.248 -0.0863 -0.0086  0.5177
15143TIP3    H266845   6.127   6.586  16.101 -0.3049  0.0126  0.4663
15144TIP3   OH266846   6.302   1.450  11.890  0.3763  0.5295 -0.2400
15144TIP3    H166847   6.307   1.483  11.979 -0.9371  1.6542 -0.5466
15144TIP3    H266848   6.282   1.527  11.836  0.4992 -0.2296 -1.4204
15145TIP3   OH266849   6.630   1.945   3.750  0.5291  0.0880  0.0528
15145TIP3    H166850   6.632   1.865   3.803  1.4498  0.2897  0.3429
15145TIP3    H266851   6.716   1.948   3.709  0.0856  0.3316 -0.8679
15146TIP3   OH266852   1.155   0.546   4.077 -0.4092  0.3343 -0.0597
15146TIP3    H166853   1.068   0.546   4.116 -0.1817  0.5911  0.4581
15146TIP3    H266854   1.207   0.603   4.133  0.1854 -0.0896 -0.1600
15147TIP3   OH266855   2.884   1.656   1.220 -0.1156  0.1751 -0.0628
15147TIP3    H166856   2.925   1.723   1.165 -1.7943 -0.5127 -2.2677
15147TIP3    H266857   2.923   1.573   1.191 -0.0783 -0.0985  0.7233
15148TIP3   OH266858   0.979   3.749   6.229  0.9101  0.3250 -0.0452
15148TIP3    H166859   0.977   3.844   6.216  1.6351  0.5235  1.0738
15148TIP3    H266860   0.956   3.712   6.144  1.0686  1.5003 -0.6210
15149TIP3   OH266861   5.511   5.491  14.842  0.2275  0.3854  0.0423
15149TIP3    H166862   5.417   5.511  14.837 -0.0823 -1.1742 -3.3994
15149TIP3    H266863   5.518   5.425  14.910 -1.2301  0.2711  0.1246
15150TIP3   OH266864   1.499   0.775  11.357  0.0740 -0.0952  0.2900
15150TIP3    H166865   1.545   0.706  11.405  2.2918  0.7095 -0.5389
15150TIP3    H266866   1.466   0.833  11.426 -1.0878 -1.4852  0.9632
15151TIP3   OH266867   1.305   2.462   0.592  0.1372  0.8695 -0.6031
15151TIP3    H166868   1.335   2.546   0.558  1.7605  0.8707  0.7064
15151TIP3    H266869   1.252   2.485   0.668  0.7512  0.7316 -0.1216
15152TIP3   OH266870   0.696   4.088  15.704  0.4357  0.0882  0.4548
15152TIP3    H166871   0.673   4.133  15.785  0.7550  1.2153 -0.0641
15152TIP3    H266872   0.788   4.111  15.689 -0.0378  1.1324 -0.9998
15153TIP3   OH266873   2.860   2.238   2.135  0.3944 -0.2256 -0.0906
15153TIP3    H166874   2.933   2.226   2.196  1.3551 -1.8580 -1.4862
15153TIP3    H266875   2.820   2.152   2.127 -0.2901  0.1623 -1.0586
15154TIP3   OH266876   6.334   1.444   4.936 -0.5822 -0.0558 -0.5945
15154TIP3    H166877   6.336   1.540   4.937 -0.4177 -0.0528 -0.9891
15154TIP3    H266878   6.399   1.418   5.001  0.2152  0.1014 -1.3143
15155TIP3   OH266879   0.472   2.757   1.697  0.1144 -0.8628 -0.0633
15155TIP3    H166880   0.526   2.829   1.730 -0.7354 -1.1795  2.2294
15155TIP3    H266881   0.528   2.712   1.634  1.1471  0.9783 -0.5414
15156TIP3   OH266882   0.971   2.461   5.811  0.1988 -0.0014  0.5697
15156TIP3    H166883   1.033   2.394   5.782 -1.5845 -1.8135  0.7495
15156TIP3    H266884   0.972   2.456   5.907  0.9123  1.0896  0.6414
15157TIP3   OH266885   1.555   1.494   1.863 -0.0792 -0.1945  0.4722
15157TIP3    H166886   1.563   1.556   1.936  0.1313  1.0532 -0.5939
15157TIP3    H266887   1.461   1.486   1.849 -0.1741 -1.1726  1.4565
15158TIP3   OH266888   1.983   1.529  11.460  0.4734 -0.1556  0.0264
15158TIP3    H166889   1.942   1.608  11.496  1.4742 -0.7548  2.6325
15158TIP3    H266890   2.003   1.553  11.369 -1.7105  1.6081 -0.0716
15159TIP3   OH266891   4.089   5.208   6.635 -0.4579 -0.0755 -0.1360
15159TIP3    H166892   4.110   5.256   6.554 -0.2565 -0.2540 -0.1886
15159TIP3    H266893   4.059   5.276   6.695  1.6374  0.4165  0.4273
15160TIP3   OH266894   3.356   3.824   0.805  0.3733 -0.3394  0.7111
15160TIP3    H166895   3.335   3.737   0.841  0.9476 -0.6488  0.3044
15160TIP3    H266896   3.311   3.885   0.863 -0.3882 -0.9283  0.7597
15161TIP3   OH266897   3.764   1.417   5.704 -0.3095 -0.2121 -0.3376
15161TIP3    H166898   3.802   1.329   5.695 -0.6647 -0.4091  0.0755
15161TIP3    H266899   3.815   1.470   5.643 -1.8150 -1.2441 -2.6275
15162TIP3   OH266900   3.361   5.359  15.026  0.0891  0.2671 -0.3054
15162TIP3    H166901   3.294   5.395  15.083  0.1563 -1.2822  0.8250
15162TIP3    H266902   3.443   5.395  15.061 -0.0138  0.9073 -0.7016
15163TIP3   OH266903   0.456   4.978   1.380  0.2146  0.3825 -0.5667
15163TIP3    H166904   0.436   4.988   1.287 -0.9166 -0.2355 -0.4170
15163TIP3    H266905   0.404   5.046   1.423 -0.7956 -0.5491 -0.2524
15164TIP3   OH266906   0.770   5.500  14.109 -0.4776 -0.0215  0.4878
15164TIP3    H166907   0.830   5.444  14.060  1.4678  0.5571  2.1193
15164TIP3    H266908   0.709   5.439  14.151 -2.3711 -0.5335 -2.6707
15165TIP3   OH266909   5.701   3.238   0.051 -0.2294 -0.0093 -0.6435
15165TIP3    H166910   5.624   3.279   0.012 -0.2532  0.0355 -0.5514
15165TIP3    H266911   5.718   3.161  -0.003 -0.7275 -0.3846 -0.2850
15166TIP3   OH266912   2.323   4.376  14.965  0.0943 -0.1288  0.0305
15166TIP3    H166913   2.245   4.428  14.948 -0.1383  0.2087  1.8821
15166TIP3    H266914   2.393   4.441  14.977  0.4200 -0.3799 -0.4483
15167TIP3   OH266915   6.493   2.085   5.208  0.1202  0.0798 -0.1124
15167TIP3    H166916   6.481   2.179   5.198 -0.0516 -0.0252 -0.9682
15167TIP3    H266917   6.588   2.073   5.211  0.1311  0.3655  0.9894
15168TIP3   OH266918   0.598   6.247  11.785  0.0099 -0.5340 -0.0521
15168TIP3    H166919   0.684   6.267  11.747  0.7226 -0.0941  1.6898
15168TIP3    H266920   0.538   6.307  11.742  0.2561 -1.8451 -2.3882
15169TIP3   OH266921   2.897   6.112  14.150  0.3129 -0.0908 -0.4581
15169TIP3    H166922   2.809   6.114  14.185  0.4430  1.5627 -0.1454
15169TIP3    H266923   2.943   6.184  14.194  2.0713 -1.4157  0.0051
15170TIP3   OH266924   2.891   0.140  10.695  0.0309  0.1292  0.3562
15170TIP3    H166925   2.821   0.078  10.672  0.8130 -0.7890  0.3976
15170TIP3    H266926   2.845   0.223  10.708 -0.9931 -0.3364 -0.1107
15171TIP3   OH266927   5.305   3.064   1.780  0.2215  0.2789 -0.4496
15171TIP3    H166928   5.280   3.119   1.706  1.7691  3.1297  0.9768
15171TIP3    H266929   5.384   3.019   1.751 -0.3970 -0.3066 -1.2511
15172TIP3   OH266930   1.459   0.969   1.930 -0.5751 -0.0119 -0.5548
15172TIP3    H166931   1.492   1.059   1.933 -1.8264  0.4807 -0.6757
15172TIP3    H266932   1.476   0.940   1.841 -0.0903  0.0740 -0.4914
15173TIP3   OH266933   5.705   1.676   2.453 -0.5150  0.3034 -0.1962
15173TIP3    H166934   5.676   1.585   2.453  0.8304 -0.1734 -2.2781
15173TIP3    H266935   5.714   1.699   2.361  0.9492  1.9683  0.2975
15174TIP3   OH266936   3.105   1.266  17.115 -0.1343 -0.1026  0.5673
15174TIP3    H166937   3.193   1.278  17.078 -0.5065 -1.4211 -0.8707
15174TIP3    H266938   3.051   1.329  17.068 -0.0475  0.4242  1.1616
15175TIP3   OH266939   3.500   4.477  16.347 -0.0113  0.3714  0.1016
15175TIP3    H166940   3.500   4.419  16.423  1.3301  2.4818  1.8352
15175TIP3    H266941   3.586   4.519  16.348 -0.9451  2.5153 -0.9045
15176TIP3   OH266942   5.238   2.862   0.190 -0.0940 -0.0668  0.4177
15176TIP3    H166943   5.240   2.958   0.191  0.6319 -0.0811  0.5024
15176TIP3    H266944   5.305   2.837   0.127 -0.4027 -0.5180  0.2645
15177TIP3   OH266945   5.622   0.488  12.047  0.7093  0.9989 -0.4659
15177TIP3    H166946   5.621   0.399  12.084 -0.4808  1.2118  0.0737
15177TIP3    H266947   5.597   0.476  11.956 -0.7915  0.8715 -0.0756
15178TIP3   OH266948   6.651   1.541   0.339 -0.1545  0.4456  0.0931
15178TIP3    H166949   6.628   1.477   0.406  0.5449  2.3609  2.3015
15178TIP3    H266950   6.743   1.522   0.319  0.0858  0.7659  0.8304
15179TIP3   OH266951   5.805   3.854  12.893  0.1908  0.6298 -0.2436
15179TIP3    H166952   5.880   3.888  12.942  1.5911  1.8682 -3.0436
15179TIP3    H266953   5.842   3.785  12.838 -0.4583  1.9158 -2.3919
15180TIP3   OH266954   2.790   5.243  15.059 -0.2697 -0.9224 -0.1361
15180TIP3    H166955   2.735   5.319  15.042  0.5593 -0.8072 -2.7402
15180TIP3    H266956   2.857   5.275  15.121 -1.7352 -0.4647  1.2737
15181TIP3   OH266957   4.659   1.240  11.902  0.1665 -0.0479 -0.5221
15181TIP3    H166958   4.747   1.268  11.928  0.3016 -0.2969 -0.7067
15181TIP3    H266959   4.671   1.199  11.816 -0.4231  1.6271 -1.4385
15182TIP3   OH266960   0.154   5.620  16.727  0.0057  0.3234  0.0384
15182TIP3    H166961   0.130   5.564  16.800 -1.1162  1.9157  0.9543
15182TIP3    H266962   0.137   5.566  16.649 -2.3118 -0.2131  0.8241
15183TIP3   OH266963   6.145   3.658   6.713  0.1480 -0.4203 -0.1464
15183TIP3    H166964   6.100   3.574   6.725 -1.8833  0.5029 -0.8837
15183TIP3    H266965   6.203   3.665   6.789 -3.0489 -0.4309  2.5138
15184TIP3   OH266966   6.454   3.609  11.575  0.0924  0.0123  0.2759
15184TIP3    H166967   6.395   3.564  11.514  1.6224 -1.7197 -0.0203
15184TIP3    H266968   6.504   3.538  11.616  1.9072  1.3866  0.5575
15185TIP3   OH266969   3.763   4.410  11.263  0.3128 -0.0285 -0.3818
15185TIP3    H166970   3.804   4.485  11.306  4.4837 -2.3220  0.1803
15185TIP3    H266971   3.798   4.412  11.174 -1.2919 -0.1986 -1.0581
15186TIP3   OH266972   4.954   0.143   6.074  0.3582 -0.0662 -0.2340
15186TIP3    H166973   5.032   0.175   6.119  0.5257 -0.0865 -0.5061
15186TIP3    H266974   4.970   0.049   6.064  0.8780  0.1295 -1.4168
15187TIP3   OH266975   6.644   3.208   0.129  0.1450  0.4649  0.3556
15187TIP3    H166976   6.628   3.228   0.222 -0.2190  0.4070  0.3038
15187TIP3    H266977   6.653   3.113   0.126  2.3284  0.6088  0.6742
15188TIP3   OH266978   6.635   2.239  13.880 -0.1634  0.1046  0.2682
15188TIP3    H166979   6.700   2.176  13.910  0.0679  1.1646  2.1225
15188TIP3    H266980   6.676   2.283  13.806  0.0394 -1.2181 -0.4443
15189TIP3   OH266981   1.695   1.369   3.152 -0.1870  0.6972 -0.0840
15189TIP3    H166982   1.760   1.401   3.214  0.3689  0.0201 -0.3085
15189TIP3    H266983   1.612   1.370   3.201  0.1622  0.6137  0.5169
15190TIP3   OH266984   2.187   3.600  14.355 -0.3550  0.4456 -0.1287
15190TIP3    H166985   2.266   3.612  14.407  0.5535 -1.6657 -0.8979
15190TIP3    H266986   2.202   3.651  14.275  0.2306  0.0690 -0.2608
15191TIP3   OH266987   5.919   6.138   6.622 -0.1134 -1.0820  0.4863
15191TIP3    H166988   5.935   6.051   6.585 -1.1261 -1.5593  1.1271
15191TIP3    H266989   5.832   6.131   6.662 -0.1563  0.1951  0.6458
15192TIP3   OH266990   0.071   0.059  14.801 -0.0430 -0.1062 -0.2434
15192TIP3    H166991   0.107   0.022  14.721  2.0438  0.7358  0.2408
15192TIP3    H266992   0.086  -0.007  14.868 -2.4991 -1.1494 -0.5994
15193TIP3   OH266993   3.770   1.503  16.127  0.0884  0.4359  0.2213
15193TIP3    H166994   3.861   1.528  16.109  0.8037 -2.2933 -0.3320
15193TIP3    H266995   3.777   1.430  16.188 -1.6643 -0.4877 -0.6258
15194TIP3   OH266996   4.119   4.667  16.377  0.0493 -0.2611  0.1360
15194TIP3    H166997   4.132   4.721  16.455  0.0871  1.3321 -0.9231
15194TIP3    H266998   4.205   4.628  16.361  1.8490  3.9879 -2.2992
15195TIP3   OH266999   4.812   4.617  13.793  0.3597  0.0805 -0.5613
15195TIP3    H167000   4.725   4.592  13.826  0.1945 -0.5687 -1.4534
15195TIP3    H267001   4.807   4.712  13.784  0.5193  0.3475  1.5293
15196TIP3   OH267002   4.254   3.168  16.658 -0.0905  0.7344  0.0458
15196TIP3    H167003   4.283   3.146  16.747  0.0497  1.3367  0.1544
15196TIP3    H267004   4.158   3.166  16.664 -0.0995 -0.6461 -0.1585
15197TIP3   OH267005   4.250   0.687  13.234  0.4848 -0.2626 -0.0924
15197TIP3    H167006   4.197   0.608  13.239  0.4168 -0.1622  1.0276
15197TIP3    H267007   4.334   0.662  13.274  0.6858  0.0597 -0.3027
15198TIP3   OH267008   1.739   4.787  15.531  0.8652 -0.5010  0.3596
15198TIP3    H167009   1.742   4.874  15.492 -1.0845 -0.2845  0.6128
15198TIP3    H267010   1.813   4.785  15.592  0.0891  1.5186  1.4487
15199TIP3   OH267011   1.034   5.504   0.471 -0.0232 -0.2413  0.4069
15199TIP3    H167012   1.047   5.551   0.553 -1.2077  0.2772  0.3202
15199TIP3    H267013   1.111   5.448   0.463  0.7973  0.7256  1.1704
15200TIP3   OH267014   1.912   3.956   0.833  0.2722  0.1314  0.3394
15200TIP3    H167015   1.856   4.023   0.870  0.9885  1.0452 -0.1859
15200TIP3    H267016   1.967   4.003   0.770 -0.6581 -1.2768 -1.6321
15201TIP3   OH267017   6.418   0.617   3.777  0.4759  0.5371 -0.7432
15201TIP3    H167018   6.333   0.574   3.785  1.1393 -0.4851  1.2884
15201TIP3    H267019   6.398   0.700   3.733 -2.0433  1.6570  2.1499
15202TIP3   OH267020   3.559   1.663   3.396 -0.6726 -0.0001 -0.1412
15202TIP3    H167021   3.493   1.689   3.460 -1.9603  0.6658 -1.6619
15202TIP3    H267022   3.574   1.742   3.343  0.7347 -0.3813 -0.3582
15203TIP3   OH267023   6.701   5.322  15.640 -0.5856 -0.1224  0.6753
15203TIP3    H167024   6.726   5.345  15.729 -0.9150  0.4719  0.6218
15203TIP3    H267025   6.714   5.403  15.590 -1.4929 -0.1215  0.4210
15204TIP3   OH267026   0.991   6.211  13.330 -0.1823 -0.0532 -0.2200
15204TIP3    H167027   0.999   6.237  13.422  0.6285 -0.6814 -0.1081
15204TIP3    H267028   0.906   6.166  13.325 -0.9109  1.2638 -0.1035
15205TIP3   OH267029   2.053   5.271  15.998  0.1429  0.1691  0.1514
15205TIP3    H167030   2.019   5.360  16.004 -0.8639 -0.2989  2.2957
15205TIP3    H267031   2.146   5.280  16.016  0.4401  0.9662 -1.5610
15206TIP3   OH267032   2.994   3.521  16.294 -0.7181  0.0329  0.1225
15206TIP3    H167033   2.937   3.491  16.365 -0.8425  0.0795  0.0423
15206TIP3    H267034   3.059   3.577  16.338  0.3942 -1.4682  0.4920
15207TIP3   OH267035   5.676   6.043  11.663  0.7351  0.0240  0.7756
15207TIP3    H167036   5.750   5.988  11.639  1.0387  1.1084 -0.9465
15207TIP3    H267037   5.622   6.047  11.584 -0.7881 -0.1150  1.7598
15208TIP3   OH267038   3.934   2.478   2.370  0.8662  0.0545 -0.0234
15208TIP3    H167039   3.947   2.494   2.463  0.9859  0.9854 -0.1893
15208TIP3    H267040   3.906   2.386   2.364 -1.6159  0.6576  1.1450
15209TIP3   OH267041   3.138   4.393  14.636  0.1328 -0.0589  0.5732
15209TIP3    H167042   3.139   4.412  14.729  1.4972  0.0801  0.5502
15209TIP3    H267043   3.137   4.478  14.593  0.9992 -0.0895  0.4724
15210TIP3   OH267044   3.192   3.942   4.227  0.6576  0.3102  0.1979
15210TIP3    H167045   3.245   3.906   4.298  2.0807 -0.3723 -1.1333
15210TIP3    H267046   3.161   3.865   4.179  0.8559  0.7775 -0.7001
15211TIP3   OH267047   0.709   6.368  13.413 -0.4674  0.1744  0.5231
15211TIP3    H167048   0.779   6.315  13.374 -0.7474  0.0838  0.1355
15211TIP3    H267049   0.681   6.427  13.343  0.5699  1.6000  1.2580
15212TIP3   OH267050   5.179   5.199   0.753  0.6290  0.4128 -0.1071
15212TIP3    H167051   5.115   5.200   0.683  1.5420 -1.1637 -1.0322
15212TIP3    H267052   5.132   5.232   0.830 -0.4424  1.9865 -1.3775
15213TIP3   OH267053   2.913   4.377  15.913  0.0663  0.2165  0.0672
15213TIP3    H167054   2.818   4.376  15.910 -0.0808  0.2157  2.7022
15213TIP3    H267055   2.940   4.322  15.840 -1.7864  2.6555 -2.6903
15214TIP3   OH267056   6.685   2.574   5.168  0.0612  0.6633  0.2079
15214TIP3    H167057   6.651   2.637   5.232 -2.6151  0.8079 -1.2091
15214TIP3    H267058   6.647   2.490   5.195  0.5253  0.3558 -0.0804
15215TIP3   OH267059   3.002   0.554  16.614 -0.4241  0.2608  0.0795
15215TIP3    H167060   3.020   0.533  16.523 -0.1653 -1.5802  0.5064
15215TIP3    H267061   3.050   0.635  16.630  2.2052 -1.0505 -0.6015
15216TIP3   OH267062   6.223   1.379   1.800  0.4796  0.1924  0.0103
15216TIP3    H167063   6.192   1.401   1.888 -1.0734  0.7723 -0.6347
15216TIP3    H267064   6.234   1.284   1.801  0.8908  0.2434  0.9516
15217TIP3   OH267065   5.832   6.571  13.874  0.5098 -0.1747  0.0928
15217TIP3    H167066   5.887   6.619  13.813 -0.4323 -0.4201 -0.9780
15217TIP3    H267067   5.792   6.502  13.822 -0.8070 -0.0157  0.8414
15218TIP3   OH267068   5.543   0.038   0.470 -0.0515  0.2834  0.4635
15218TIP3    H167069   5.592   0.001   0.396  1.7317 -1.0755  2.2204
15218TIP3    H267070   5.551  -0.027   0.539 -1.8788  1.4009  1.8098
15219TIP3   OH267071   0.886   6.572  13.839  0.6226 -0.3224  0.2335
15219TIP3    H167072   0.931   6.504  13.889  0.5222  0.6215  1.6799
15219TIP3    H267073   0.919   6.654  13.876 -1.4790  0.4097  0.6128
15220TIP3   OH267074   4.427   3.841  12.607  0.0883 -0.0443  0.5894
15220TIP3    H167075   4.437   3.890  12.526 -3.6142 -0.1320 -0.1050
15220TIP3    H267076   4.368   3.769  12.584 -0.9704 -0.1587  3.2613
15221TIP3   OH267077   4.987   5.782   0.443  0.7418  0.3344  0.2332
15221TIP3    H167078   5.017   5.839   0.372 -0.6432  1.8913  0.8486
15221TIP3    H267079   5.023   5.696   0.421  2.6584  1.3407 -0.8854
15222TIP3   OH267080   4.401   1.822   1.385  0.3135  0.3226  0.2381
15222TIP3    H167081   4.438   1.892   1.438  1.1333  0.6619 -0.7348
15222TIP3    H267082   4.476   1.768   1.360 -0.0925 -0.0227 -0.2818
15223TIP3   OH267083   3.518   3.931  13.918 -0.7780  0.0549  0.2102
15223TIP3    H167084   3.513   3.853  13.972 -0.7116  0.7459  1.2313
15223TIP3    H267085   3.507   4.004  13.979  2.2184  0.9903 -0.1898
15224TIP3   OH267086   2.984   4.537   2.888 -0.2010 -0.3229 -0.5568
15224TIP3    H167087   3.025   4.557   2.803  1.1134  1.0135  0.3482
15224TIP3    H267088   2.902   4.587   2.888  0.2011  0.3466 -0.7121
15225TIP3   OH267089   5.333   4.819   6.388  0.5759  0.1119 -0.0025
15225TIP3    H167090   5.360   4.851   6.302 -0.4507 -0.7136 -0.6562
15225TIP3    H267091   5.329   4.898   6.443  1.4352  0.6169 -0.6503
15226TIP3   OH267092   5.005   3.541   1.666 -0.1228  0.1858  0.2021
15226TIP3    H167093   4.963   3.560   1.582 -1.2292  0.3866  0.7771
15226TIP3    H267094   4.992   3.447   1.678  1.5959 -0.2084 -0.6472
15227TIP3   OH267095   1.074   1.116  11.948 -0.1526  0.5456  0.6269
15227TIP3    H167096   1.082   1.201  11.905  0.2936  0.2228  0.0532
15227TIP3    H267097   1.095   1.052  11.879  0.4611  0.0108  1.2935
15228TIP3   OH267098   2.560   4.035  16.340 -0.5907  0.1692 -0.2998
15228TIP3    H167099   2.542   4.057  16.431 -1.6617 -0.1775 -0.4244
15228TIP3    H267100   2.620   3.961  16.344  0.0417  0.6897  0.1129
15229TIP3   OH267101   2.251   3.033  12.493  0.3367 -0.2100  0.9878
15229TIP3    H167102   2.287   3.035  12.404  0.3845  0.1650  1.0143
15229TIP3    H267103   2.171   3.085  12.487  0.4173 -0.0615  1.1974
15230TIP3   OH267104   0.859   3.722   4.345  0.1652  0.2268 -0.4018
15230TIP3    H167105   0.935   3.763   4.303  1.6084 -3.1072 -1.4329
15230TIP3    H267106   0.816   3.674   4.274 -1.8043  0.4637  0.5701
15231TIP3   OH267107   5.651   4.128   0.004 -0.1452  0.2034 -0.3875
15231TIP3    H167108   5.619   4.045  -0.033 -0.6703  0.1185  0.2387
15231TIP3    H267109   5.575   4.185   0.005  0.6732  1.5135 -2.9066
15232TIP3   OH267110   0.243   4.270   4.992  0.4457 -0.5390  0.4011
15232TIP3    H167111   0.313   4.217   4.954  1.2861  0.9643 -0.1926
15232TIP3    H267112   0.288   4.337   5.043 -0.5758  0.1845  0.3880
15233TIP3   OH267113   2.706   3.160   5.413  0.0539 -0.0122 -0.4242
15233TIP3    H167114   2.624   3.111   5.422  0.0055  0.1310 -0.0614
15233TIP3    H267115   2.765   3.119   5.477  0.1001  0.2167 -0.3185
15234TIP3   OH267116   5.104   3.670   0.434  0.1905 -0.0319 -0.4321
15234TIP3    H167117   5.112   3.671   0.530 -1.5952 -0.9937 -0.2309
15234TIP3    H267118   5.108   3.577   0.411 -4.5358 -0.4157 -0.6641
15235TIP3   OH267119   2.771   4.633  14.432 -0.0643 -0.6021  0.7183
15235TIP3    H167120   2.705   4.599  14.371 -0.4591  0.6583  0.4031
15235TIP3    H267121   2.854   4.626  14.384 -0.2000 -0.7201  0.5015
15236TIP3   OH267122   0.993   0.305  16.351  0.5473  0.1067  0.1856
15236TIP3    H167123   0.971   0.393  16.319 -0.1462 -0.5476 -1.2131
15236TIP3    H267124   1.086   0.295  16.331  0.6409  0.5352  0.3931
15237TIP3   OH267125   5.058   3.808   1.415  0.0769 -0.0258 -0.3251
15237TIP3    H167126   5.078   3.830   1.324  0.3301 -1.0138 -0.5226
15237TIP3    H267127   5.072   3.889   1.463  0.4316  0.3814 -1.0973
15238TIP3   OH267128   5.361   2.813  17.151  0.1114 -0.0397 -0.3448
15238TIP3    H167129   5.299   2.764  17.096  1.1219 -1.8164  0.0249
15238TIP3    H267130   5.445   2.804  17.107  0.9226 -1.3831  1.3658
15239TIP3   OH267131   4.698   0.909  10.655  0.0436  0.3584  0.8249
15239TIP3    H167132   4.650   0.858  10.720 -0.6924 -0.2105 -0.1500
15239TIP3    H267133   4.651   0.896  10.573  1.7422 -0.0727 -0.1424
15240TIP3   OH267134   5.030   2.216  14.823  0.0014 -1.0067  0.0340
15240TIP3    H167135   5.054   2.215  14.730  2.0496  2.5658  0.3105
15240TIP3    H267136   5.082   2.146  14.862 -0.7666 -2.4551 -1.4412
15241TIP3   OH267137   3.923   6.404  17.224 -0.1949 -0.4413  0.3041
15241TIP3    H167138   3.951   6.403  17.133 -1.2517 -1.9643 -0.0313
15241TIP3    H267139   4.005   6.404  17.274  0.3952 -0.5326 -0.6377
15242TIP3   OH267140   4.509   1.586   4.164  0.0217 -0.1713  0.4129
15242TIP3    H167141   4.517   1.668   4.212 -0.5981 -0.0050  0.2311
15242TIP3    H267142   4.552   1.604   4.080 -0.1350 -0.0279  0.3637
15243TIP3   OH267143   2.700   4.624   4.928  0.0510 -0.4004  0.4778
15243TIP3    H167144   2.629   4.657   4.983  1.0748  0.5718  1.2788
15243TIP3    H267145   2.742   4.703   4.893  0.0526 -0.9754 -0.9089
15244TIP3   OH267146   4.232   2.787  13.818  0.3297 -0.2957  0.3229
15244TIP3    H167147   4.196   2.733  13.747  1.4245 -1.5357  0.6659
15244TIP3    H267148   4.244   2.726  13.891  2.2617  0.2408  0.5092
15245TIP3   OH267149   5.956   2.375  11.365  0.1547 -0.4097  0.0510
15245TIP3    H167150   6.003   2.338  11.290  1.7539 -0.2845  0.9572
15245TIP3    H267151   5.865   2.377  11.337  0.8442  0.9068 -2.4617
15246TIP3   OH267152   2.808   3.146  15.434 -0.1645 -0.4927 -0.1776
15246TIP3    H167153   2.747   3.107  15.371 -1.9807 -0.6885  1.6033
15246TIP3    H267154   2.888   3.160  15.384 -2.5046  2.6816 -3.5864
15247TIP3   OH267155   3.019   2.382   2.806 -0.0962  0.0485 -0.1850
15247TIP3    H167156   2.973   2.464   2.789 -0.3824 -0.1980 -0.5999
15247TIP3    H267157   2.976   2.346   2.884  0.1439  0.3712  0.1033
15248TIP3   OH267158   4.683   3.905  11.140  0.0101 -0.3658 -0.0054
15248TIP3    H167159   4.592   3.933  11.130 -0.6895 -2.2719  0.6252
15248TIP3    H267160   4.716   3.902  11.050 -0.3318  0.9531 -0.1947
15249TIP3   OH267161   0.329   0.143  16.726 -0.6243 -0.2588 -0.2428
15249TIP3    H167162   0.388   0.193  16.782 -0.0587  0.1886 -1.2036
15249TIP3    H267163   0.368   0.150  16.639 -2.1883  0.1641 -0.9292
15250TIP3   OH267164   4.600   5.860  12.328 -0.0605 -0.1668 -0.5490
15250TIP3    H167165   4.568   5.840  12.416  0.3442 -1.2315 -0.6339
15250TIP3    H267166   4.656   5.786  12.305  0.7916  0.6628 -1.2333
15251TIP3   OH267167   3.238   0.483   5.958  0.1539 -0.6161  0.0332
15251TIP3    H167168   3.161   0.537   5.942  1.0407  0.0690 -2.2344
15251TIP3    H267169   3.211   0.395   5.933  0.4753 -0.1300 -2.2440
15252TIP3   OH267170   2.998   4.654  12.199  0.2980 -0.2508 -0.3417
15252TIP3    H167171   2.910   4.638  12.235  0.2823  0.3230 -0.1130
15252TIP3    H267172   3.013   4.581  12.139  1.1963 -2.4622  2.3633
15253TIP3   OH267173   4.286   1.613  11.501  0.3005  0.1398 -0.1776
15253TIP3    H167174   4.252   1.660  11.576  0.4670  0.6162 -0.3963
15253TIP3    H267175   4.375   1.646  11.490  0.0724  0.5217 -0.9453
15254TIP3   OH267176   4.205   5.168  13.331 -0.6330  0.6421  0.5220
15254TIP3    H167177   4.207   5.189  13.238 -1.4485  1.1006  0.6061
15254TIP3    H267178   4.120   5.198  13.361 -0.4682  0.2857  1.3719
15255TIP3   OH267179   3.714   2.363  13.691  0.0134 -0.0145 -0.1805
15255TIP3    H167180   3.735   2.384  13.600 -0.1739  0.9548 -0.0138
15255TIP3    H267181   3.623   2.391  13.702 -0.3383 -1.1738  0.0006
15256TIP3   OH267182   6.330   4.094  13.101  0.0231 -0.1746 -0.2894
15256TIP3    H167183   6.355   4.033  13.031  3.5414 -0.8033  1.2748
15256TIP3    H267184   6.348   4.181  13.065  1.7007 -0.4864 -0.2684
15257TIP3   OH267185   6.287   4.556  14.760 -0.1566  0.1651  0.6058
15257TIP3    H167186   6.367   4.545  14.707 -1.9241 -0.6899 -2.1221
15257TIP3    H267187   6.258   4.645  14.742 -0.5321  0.0185  0.4694
15258TIP3   OH267188   3.982   4.569   3.026  0.2965  0.2531  0.3928
15258TIP3    H167189   3.976   4.579   2.931  1.4156 -0.5061  0.2168
15258TIP3    H267190   4.072   4.594   3.047 -0.2388  1.4217  1.4042
15259TIP3   OH267191   2.119   4.752   0.051  0.3948 -0.1723 -0.8342
15259TIP3    H167192   2.049   4.793   0.102 -0.2307 -0.2038 -1.6434
15259TIP3    H267193   2.178   4.824   0.028 -0.3088  0.1726 -1.6266
15260TIP3   OH267194   6.611   5.501  16.054  0.1708  0.1174  0.1781
15260TIP3    H167195   6.532   5.457  16.087  0.0475 -0.5211 -0.9283
15260TIP3    H267196   6.627   5.571  16.117 -3.3108  2.5238 -1.3058
15261TIP3   OH267197   1.486   1.967   1.823 -0.0971  0.3986 -0.2108
15261TIP3    H167198   1.486   2.057   1.853  1.7899  0.6407 -0.8062
15261TIP3    H267199   1.559   1.926   1.870  0.1734 -0.3333 -1.2276
15262TIP3   OH267200   6.541   1.686  14.958 -0.3792  0.0868  0.5938
15262TIP3    H167201   6.621   1.637  14.975 -0.2371  0.8034  2.1505
15262TIP3    H267202   6.534   1.748  15.031 -2.4154 -0.0371  0.5694
15263TIP3   OH267203   1.910   5.914   3.107  1.0868 -0.0212  0.1723
15263TIP3    H167204   1.857   5.890   3.183  1.6744 -0.8832  0.3198
15263TIP3    H267205   1.854   5.972   3.056  0.6243  0.4338  1.1803
15264TIP3   OH267206   2.820   0.510  16.844 -1.3220 -0.5059 -0.1192
15264TIP3    H167207   2.853   0.507  16.754 -0.8088  1.1764 -0.0250
15264TIP3    H267208   2.814   0.418  16.870  1.5537 -0.9795 -0.7911
15265TIP3   OH267209   1.080   5.862   0.603  0.6164 -0.2713  0.0655
15265TIP3    H167210   1.045   5.775   0.621 -0.1610  0.0085 -0.0491
15265TIP3    H267211   1.104   5.860   0.511  2.4003 -0.9622  0.5196
15266TIP3   OH267212   2.112   2.774  10.638 -0.3461  0.4587  0.3152
15266TIP3    H167213   2.035   2.827  10.657  0.7376  3.4126 -2.5702
15266TIP3    H267214   2.098   2.741  10.550  1.2307  0.1692  0.1350
15267TIP3   OH267215   5.033   5.259   2.955 -0.1098  0.8933  0.4669
15267TIP3    H167216   5.014   5.255   3.049  1.0402  1.8468  0.7641
15267TIP3    H267217   5.074   5.344   2.943  0.1800  0.5832 -0.8357
15268TIP3   OH267218   6.628   6.663   5.362 -0.0251  0.1486 -0.0970
15268TIP3    H167219   6.565   6.617   5.419  1.0558  0.0378  1.0553
15268TIP3    H267220   6.652   6.598   5.296  0.5685 -0.5841  0.8053
15269TIP3   OH267221   0.841   6.238  14.156 -0.1360  0.1616 -0.1360
15269TIP3    H167222   0.838   6.333  14.158  0.2575  0.1601  1.0430
15269TIP3    H267223   0.763   6.210  14.204 -0.1937 -0.1162 -0.3849
15270TIP3   OH267224   5.204   1.143  16.757 -0.0687 -0.1221  0.3447
15270TIP3    H167225   5.254   1.072  16.797 -1.1625 -1.3353 -0.3597
15270TIP3    H267226   5.270   1.198  16.715  0.8757 -0.2106  1.6387
15271TIP3   OH267227   6.333   5.914  13.898 -0.4697  0.7630  0.3803
15271TIP3    H167228   6.310   5.936  13.988  1.2886 -1.9957  1.6417
15271TIP3    H267229   6.429   5.918  13.896 -0.2782 -2.0491 -0.4492
15272TIP3   OH267230   5.935   2.790  16.778  0.3704  0.9432 -1.0024
15272TIP3    H167231   5.988   2.820  16.852 -0.5799 -1.5897  0.8802
15272TIP3    H267232   5.999   2.768  16.710  1.5784  0.4944  0.2113
15273TIP3   OH267233   4.133   2.734   4.612 -0.3282 -0.4601 -0.1053
15273TIP3    H167234   4.202   2.670   4.629 -0.3339 -0.0711  1.4787
15273TIP3    H267235   4.173   2.819   4.629 -0.7927 -0.1246 -0.6125
15274TIP3   OH267236   6.604   3.922   2.718 -0.2879 -0.5469 -0.7365
15274TIP3    H167237   6.671   3.952   2.655 -2.7283  2.6268 -2.0737
15274TIP3    H267238   6.636   3.953   2.803 -0.4335  1.8514 -1.4845
15275TIP3   OH267239   5.186   1.102   4.289  0.3775  0.6237  0.1309
15275TIP3    H167240   5.109   1.114   4.344  0.5429 -0.8882  0.7422
15275TIP3    H267241   5.207   1.009   4.298  0.6019  0.3856 -2.2264
15276TIP3   OH267242   0.856   4.500   5.666 -0.1839 -0.1335 -0.2286
15276TIP3    H167243   0.932   4.513   5.609  0.9263 -1.1688  0.9318
15276TIP3    H267244   0.843   4.585   5.708  2.6179 -0.7307  2.1591
15277TIP3   OH267245   0.876   4.024   4.263  0.3357  0.0226  0.1087
15277TIP3    H167246   0.935   3.949   4.265 -0.1195 -0.3164  1.1013
15277TIP3    H267247   0.896   4.073   4.342 -0.0980  0.3772  0.0054
15278TIP3   OH267248   1.257   0.025   3.251  0.4400  0.2205  0.3864
15278TIP3    H167249   1.285  -0.007   3.165 -1.4327  1.2656 -0.6880
15278TIP3    H267250   1.283   0.117   3.253 -1.2318  0.7488  0.0550
15279TIP3   OH267251   6.118   3.598  14.028  0.4591 -0.0129 -0.1016
15279TIP3    H167252   6.043   3.577  13.972  1.6924  0.1147 -1.8540
15279TIP3    H267253   6.111   3.692  14.043 -1.0439 -0.3509  1.7982
15280TIP3   OH267254   1.854   5.297   1.234  0.3405 -0.1610  0.3991
15280TIP3    H167255   1.785   5.288   1.300  3.3345 -1.8551  3.6673
15280TIP3    H267256   1.899   5.378   1.257  1.1541 -0.5339  0.1805
15281TIP3   OH267257   3.930   1.148   2.266  0.0996  0.1259  0.8265
15281TIP3    H167258   3.869   1.222   2.264 -1.4666 -1.1187 -1.3747
15281TIP3    H267259   4.009   1.182   2.224 -1.2845  0.1262 -2.0461
15282TIP3   OH267260   6.127   5.744  15.688  0.1821 -0.1455 -0.3433
15282TIP3    H167261   6.074   5.759  15.766 -0.3848 -0.3799 -0.6687
15282TIP3    H267262   6.078   5.679  15.638 -0.3693  1.2241 -1.7045
15283TIP3   OH267263   4.627   3.781   1.277  0.3233  0.2660 -0.0330
15283TIP3    H167264   4.588   3.857   1.233  1.6026 -0.1231 -1.9654
15283TIP3    H267265   4.688   3.745   1.212  0.1104 -2.1317  1.0248
15284TIP3   OH267266   6.604   3.828  14.992 -0.3613  0.2166  0.1160
15284TIP3    H167267   6.571   3.870  15.071 -0.0546 -0.4708  0.6092
15284TIP3    H267268   6.662   3.894  14.953 -0.0534  0.3416  0.7720
15285TIP3   OH267269   1.532   0.370   4.112  0.2240  0.3945 -0.8302
15285TIP3    H167270   1.611   0.317   4.128  0.0624  0.7099  1.2566
15285TIP3    H267271   1.540   0.444   4.172 -0.6628  1.5807 -2.0991
15286TIP3   OH267272   2.505   4.518  12.125 -0.0804  0.3031  0.4449
15286TIP3    H167273   2.470   4.540  12.211  0.9363  1.1507  0.6554
15286TIP3    H267274   2.448   4.448  12.094 -1.8284  1.4737  0.8580
15287TIP3   OH267275   1.712   5.753   3.748 -0.1657  0.6532 -0.6828
15287TIP3    H167276   1.715   5.715   3.836  0.7745  1.3859 -0.3806
15287TIP3    H267277   1.800   5.737   3.713 -1.1003 -1.3374 -2.2411
15288TIP3   OH267278   1.201   3.075  13.678 -0.1430 -0.2145 -0.1014
15288TIP3    H167279   1.141   3.052  13.607  0.2018  0.9343 -0.7950
15288TIP3    H267280   1.287   3.080  13.636  0.1772 -0.1874  0.5449
15289TIP3   OH267281   0.446   4.508  14.280  1.0677  0.1758 -0.2153
15289TIP3    H167282   0.499   4.444  14.326  0.8475  1.1335  1.4346
15289TIP3    H267283   0.398   4.555  14.348 -0.0484  0.9817 -1.4839
15290TIP3   OH267284   4.022   3.956   3.172 -0.1947  0.0157 -0.3679
15290TIP3    H167285   3.936   3.997   3.183 -0.1642  0.1678 -0.6785
15290TIP3    H267286   4.009   3.865   3.200 -0.8557 -0.3856 -1.8651
15291TIP3   OH267287   2.286   6.122  12.609 -0.1415 -0.8531 -0.7412
15291TIP3    H167288   2.281   6.102  12.703  0.4715 -0.7626 -0.6827
15291TIP3    H267289   2.195   6.129  12.581 -0.3331 -0.5704 -0.0823
15292TIP3   OH267290   1.782   3.659   4.705 -0.1383 -0.4250 -0.0523
15292TIP3    H167291   1.759   3.665   4.612  0.8805 -0.4213 -0.3175
15292TIP3    H267292   1.841   3.583   4.709 -2.0859 -1.9724  1.0006
15293TIP3   OH267293   4.434   5.670  16.439 -0.1915 -0.3216 -0.3530
15293TIP3    H167294   4.382   5.705  16.512  0.7584 -0.2838  0.3242
15293TIP3    H267295   4.410   5.577  16.435 -0.3363 -0.2990 -0.0617
15294TIP3   OH267296   5.449   5.649   2.558  0.5546 -0.2508  0.0202
15294TIP3    H167297   5.366   5.609   2.535  0.7507  0.5756 -2.4015
15294TIP3    H267298   5.510   5.576   2.569  0.3825 -0.7611 -2.0736
15295TIP3   OH267299   1.153   0.741  10.307 -0.4975 -0.3176 -0.2237
15295TIP3    H167300   1.182   0.762  10.218  0.6053 -1.5240 -0.1781
15295TIP3    H267301   1.062   0.714  10.297 -0.5558  0.1151 -0.8954
15296TIP3   OH267302   1.793   2.826  10.426  0.1242  0.0619 -0.9383
15296TIP3    H167303   1.773   2.781  10.508  0.3415 -0.3069 -1.0802
15296TIP3    H267304   1.805   2.917  10.450  0.1347 -0.0372 -0.5658
15297TIP3   OH267305   6.128   2.929   0.521  0.1450  0.1320  0.8835
15297TIP3    H167306   6.156   2.928   0.613  0.9519  1.7669  0.6946
15297TIP3    H267307   6.079   3.010   0.511  1.2903  0.7187 -0.4382
15298TIP3   OH267308   6.027   2.781  15.367  0.0479 -0.2991  0.2896
15298TIP3    H167309   5.996   2.792  15.277 -0.6383  1.2414  0.6831
15298TIP3    H267310   6.117   2.750  15.359  0.2481  0.5685 -0.9383
15299TIP3   OH267311   2.861   3.327  11.454 -0.1228  0.1063 -0.0338
15299TIP3    H167312   2.938   3.370  11.419  0.5070 -1.3089 -0.4321
15299TIP3    H267313   2.833   3.266  11.386 -1.6905  0.6945  0.0397
15300TIP3   OH267314   1.883   5.813   4.696  0.5154 -0.1650  0.0077
15300TIP3    H167315   1.959   5.761   4.671 -0.4736 -1.2610 -0.8414
15300TIP3    H267316   1.840   5.834   4.613 -1.2424 -1.3764  0.5616
15301TIP3   OH267317   6.139   4.838  16.207 -0.3433 -0.2446 -0.1553
15301TIP3    H167318   6.222   4.792  16.205  0.6837  1.5203 -0.0778
15301TIP3    H267319   6.147   4.906  16.140 -1.0909  0.9524  0.9148
15302TIP3   OH267320   6.346   0.999   0.662  0.5134 -1.1108  0.4289
15302TIP3    H167321   6.388   0.944   0.596  1.8519  0.1967  0.1544
15302TIP3    H267322   6.286   1.055   0.613  1.3922 -0.2486  0.3071
15303TIP3   OH267323   0.432   6.140   3.045  0.3456 -0.4179 -0.1659
15303TIP3    H167324   0.527   6.133   3.033  0.1152 -0.5376 -2.3296
15303TIP3    H267325   0.407   6.217   2.993 -0.8214 -0.8168 -0.2195
15304TIP3   OH267326   4.618   4.423   5.597  0.1957  0.1307  0.4978
15304TIP3    H167327   4.656   4.426   5.685  0.1278  1.2642  0.5144
15304TIP3    H267328   4.666   4.354   5.552  0.8935  0.1842  1.1396
15305TIP3   OH267329   3.313   1.330   3.348 -0.4049  0.2343  0.4143
15305TIP3    H167330   3.268   1.412   3.328  0.6610  0.6223 -0.4743
15305TIP3    H267331   3.318   1.284   3.264  0.2925 -0.0767  0.6191
15306TIP3   OH267332   0.266   1.198  11.526  0.4750 -0.3382 -0.5304
15306TIP3    H167333   0.339   1.230  11.579  1.3003 -0.4150 -1.5796
15306TIP3    H267334   0.259   1.262  11.455 -0.7090 -0.1563 -0.2664
15307TIP3   OH267335   4.551   3.193   5.513  0.0896 -0.2702  0.0005
15307TIP3    H167336   4.567   3.108   5.473 -1.6218 -0.1091 -1.1701
15307TIP3    H267337   4.603   3.254   5.461  0.8031 -0.5052  0.4265
15308TIP3   OH267338   4.019   2.140  14.304 -0.1923 -0.3701  0.1417
15308TIP3    H167339   3.973   2.138  14.388  1.9160 -0.2014  1.4029
15308TIP3    H267340   4.110   2.121  14.327  0.6501  0.7381 -1.9815
15309TIP3   OH267341   1.946   6.012  12.259 -0.0920  0.0104 -0.3297
15309TIP3    H167342   1.944   5.976  12.171 -1.0372  3.1614 -1.7182
15309TIP3    H267343   2.015   6.078  12.257 -0.0126  0.0343  1.3954
15310TIP3   OH267344   6.079   5.555  10.879 -0.2951 -0.8721 -0.5365
15310TIP3    H167345   6.068   5.585  10.789 -2.6400 -2.4748 -0.8621
15310TIP3    H267346   6.100   5.462  10.871 -0.7785 -1.0927  0.5661
15311TIP3   OH267347   1.108   1.975  16.662  0.1707  0.3344  0.0007
15311TIP3    H167348   1.179   2.037  16.676  2.7258 -2.6791  1.7373
15311TIP3    H267349   1.063   1.970  16.746  0.6396 -0.7821  0.2118
15312TIP3   OH267350   6.538   2.156  15.471 -1.0577 -0.5298 -0.3841
15312TIP3    H167351   6.503   2.239  15.504 -2.6479 -0.7979 -1.3134
15312TIP3    H267352   6.485   2.136  15.394  0.0015 -1.8882 -0.8090
15313TIP3   OH267353   2.850   4.883  11.060 -0.0931 -0.3333  0.2957
15313TIP3    H167354   2.856   4.960  11.117  1.3397  0.0942 -0.3987
15313TIP3    H267355   2.940   4.861  11.039 -0.5393 -1.3715 -0.6275
15314TIP3   OH267356   6.652   4.246  14.886 -0.2487 -0.2654  0.1114
15314TIP3    H167357   6.720   4.243  14.953 -0.4155 -0.6023  0.2650
15314TIP3    H267358   6.578   4.288  14.930 -0.8931 -1.8833  0.6198
15315TIP3   OH267359   3.882   3.609  14.222 -0.1804 -0.0586  0.6791
15315TIP3    H167360   3.955   3.647  14.271  0.7897  0.1741 -0.8697
15315TIP3    H267361   3.913   3.606  14.131 -1.8749 -0.5314  0.0750
15316TIP3   OH267362   2.054   0.671   3.496 -0.2598  0.1785 -0.4391
15316TIP3    H167363   1.986   0.605   3.512 -0.5362 -0.1110 -2.4244
15316TIP3    H267364   2.027   0.747   3.547 -0.2446 -1.0365  1.4530
15317TIP3   OH267365   5.898   0.792  15.630 -0.7389  0.1612 -0.3683
15317TIP3    H167366   5.855   0.722  15.582 -0.3298  0.3238 -0.9765
15317TIP3    H267367   5.990   0.786  15.606 -0.7317  1.0476 -0.6181
15318TIP3   OH267368   1.956   4.079   0.331 -0.3578 -0.0435  0.1325
15318TIP3    H167369   1.961   3.992   0.291 -1.1281 -0.0125 -0.0590
15318TIP3    H267370   1.862   4.096   0.338 -0.3414 -0.6837  3.3494
15319TIP3   OH267371   6.629   3.160   3.010  0.1855  0.2072  0.3583
15319TIP3    H167372   6.572   3.211   2.953  0.2694  0.5599  0.5850
15319TIP3    H267373   6.634   3.211   3.091 -1.5909 -1.2746  1.4762
15320TIP3   OH267374   2.949   4.761  15.147  0.4130 -0.1122  0.0304
15320TIP3    H167375   2.896   4.725  15.219  1.1034 -1.8182 -0.2712
15320TIP3    H267376   2.917   4.717  15.069  1.7767 -0.6322 -0.2563
15321TIP3   OH267377   0.461   2.715   5.539  0.3513 -0.0587  0.9173
15321TIP3    H167378   0.419   2.646   5.488 -0.1999 -0.9828  2.5404
15321TIP3    H267379   0.403   2.727   5.615  2.2527 -0.3541  2.4946
15322TIP3   OH267380   6.761   3.553   2.271 -0.6338  0.1613  0.7688
15322TIP3    H167381   6.820   3.527   2.341 -0.9416 -1.4806  0.4633
15322TIP3    H267382   6.678   3.570   2.314 -0.1192  1.8837  1.1242
15323TIP3   OH267383   5.389   2.169   4.972 -0.6706  0.1518 -0.1139
15323TIP3    H167384   5.327   2.200   5.038 -0.2514 -0.3331  0.5152
15323TIP3    H267385   5.333   2.128   4.906 -1.0995  0.7246 -0.1199
15324TIP3   OH267386   0.141   3.424   3.846 -0.2040 -0.4110  0.4566
15324TIP3    H167387   0.233   3.400   3.859 -0.3261 -0.3888  1.4157
15324TIP3    H267388   0.107   3.438   3.934 -1.0111  0.0396  0.0836
15325TIP3   OH267389   4.229   4.353  13.816 -0.5180  0.0980  0.2810
15325TIP3    H167390   4.229   4.333  13.910 -0.4212  0.1624  0.2952
15325TIP3    H267391   4.245   4.447  13.811 -1.6216  0.2932  0.2317
15326TIP3   OH267392   1.365   1.572   1.516 -0.0973  0.0240 -0.1998
15326TIP3    H167393   1.350   1.618   1.599 -0.8019 -0.3211 -0.1279
15326TIP3    H267394   1.301   1.501   1.516  0.5608 -0.5908 -0.5938
15327TIP3   OH267395   5.259   1.607  14.171 -0.1963 -0.4010 -1.0034
15327TIP3    H167396   5.200   1.659  14.117  1.8803  1.0262 -2.0307
15327TIP3    H267397   5.288   1.667  14.240 -1.5441 -1.7193  0.7965
15328TIP3   OH267398   6.401   2.402  13.648  0.7291  0.3068 -0.5450
15328TIP3    H167399   6.431   2.493  13.651  1.3343  0.0975  1.7107
15328TIP3    H267400   6.482   2.350  13.654  0.3641 -0.3737 -1.4590
15329TIP3   OH267401   3.950   0.420   0.109 -0.0109  0.5171 -0.4575
15329TIP3    H167402   3.948   0.420   0.013 -1.2335 -0.2134 -0.4536
15329TIP3    H267403   3.878   0.361   0.134  0.8719 -0.0304  0.8904
15330TIP3   OH267404   2.651   5.916  12.227  0.0276  0.4707  0.0973
15330TIP3    H167405   2.703   5.905  12.147 -0.6318  1.0098 -0.4123
15330TIP3    H267406   2.626   6.008  12.226 -0.7447  0.2641  0.4654
15331TIP3   OH267407   5.548   5.309  14.221 -0.4845  0.1405 -1.0207
15331TIP3    H167408   5.590   5.390  14.190  0.9977  0.4337  1.4537
15331TIP3    H267409   5.617   5.264  14.269 -2.2176 -0.9318  0.5686
15332TIP3   OH267410   5.298   5.045   6.533  0.2562 -0.3683 -0.2385
15332TIP3    H167411   5.242   5.122   6.523 -0.8790 -0.9998  0.9271
15332TIP3    H267412   5.314   5.040   6.627  1.5135 -0.7519 -0.4599
15333TIP3   OH267413   2.987   4.733  14.561 -0.0087  0.5010  0.0417
15333TIP3    H167414   2.910   4.676  14.557  0.3117 -0.0087  0.9709
15333TIP3    H267415   2.950   4.822  14.560 -0.5942  0.2663  0.1985
15334TIP3   OH267416   2.344   3.974   0.669 -0.9417 -0.0617 -0.1440
15334TIP3    H167417   2.410   3.906   0.654 -0.9848  0.1675 -1.4577
15334TIP3    H267418   2.287   3.970   0.592 -2.0948  0.1759  0.6747
15335TIP3   OH267419   4.446   3.732   0.801 -0.5313 -0.3231 -0.8898
15335TIP3    H167420   4.451   3.637   0.814 -0.8551 -0.2427 -0.0979
15335TIP3    H267421   4.421   3.743   0.710 -0.2680 -0.9972 -1.0438
15336TIP3   OH267422   2.684   5.362   2.001 -0.1051 -0.2893  0.2959
15336TIP3    H167423   2.727   5.365   2.086 -2.5146  1.9813  1.5709
15336TIP3    H267424   2.630   5.282   2.004  0.7393 -0.8740  0.3519
15337TIP3   OH267425   5.407   5.335   3.740  0.0559 -0.5418 -0.2754
15337TIP3    H167426   5.431   5.386   3.817 -1.6695 -1.3352  0.8582
15337TIP3    H267427   5.416   5.395   3.667  0.0245  0.7721  0.7689
15338TIP3   OH267428   3.993   3.004   1.448  0.0963  0.1008 -0.1855
15338TIP3    H167429   3.913   2.956   1.426  0.5188 -0.2620 -0.9922
15338TIP3    H267430   3.992   3.080   1.390 -0.5162  1.0216  1.0164
15339TIP3   OH267431   1.740   6.581   1.469  0.4758 -0.9020 -0.1837
15339TIP3    H167432   1.708   6.533   1.393 -2.2570  0.9755 -0.3801
15339TIP3    H267433   1.709   6.529   1.544  1.3002 -1.6352 -0.3379
15340TIP3   OH267434   1.472   3.623   0.461  0.3174  0.2210  0.0918
15340TIP3    H167435   1.421   3.704   0.453  1.9165  1.2667  0.1065
15340TIP3    H267436   1.528   3.637   0.537  1.2515 -0.5176 -0.4374
15341TIP3   OH267437   6.453   2.707   0.117 -0.0567 -0.9013  0.1255
15341TIP3    H167438   6.444   2.731   0.209  0.8667  0.5343 -0.1311
15341TIP3    H267439   6.370   2.664   0.095 -1.3306  0.9823  0.9803
15342TIP3   OH267440   4.740   6.206  13.744 -0.1632 -0.4285  0.3136
15342TIP3    H167441   4.705   6.119  13.725 -1.9301  0.3036  0.0051
15342TIP3    H267442   4.696   6.233  13.825 -0.4716  0.5927 -0.1724
15343TIP3   OH267443   0.398   3.488   5.444 -0.2040 -0.1344 -0.5318
15343TIP3    H167444   0.381   3.397   5.420  2.4567 -0.6383 -0.8351
15343TIP3    H267445   0.447   3.481   5.526 -3.4715  1.2832  1.7522
15344TIP3   OH267446   3.532   1.775  13.852 -0.0049  0.5364 -0.0464
15344TIP3    H167447   3.460   1.838  13.852 -1.5401 -1.0914 -0.9461
15344TIP3    H267448   3.572   1.783  13.938 -1.0735  1.7427  0.3680
15345TIP3   OH267449   0.968   4.940   1.533 -0.4194 -0.0332  0.3834
15345TIP3    H167450   0.896   4.988   1.492  0.2898  0.4522 -0.3333
15345TIP3    H267451   0.972   4.857   1.485 -0.9625 -0.3747  0.9148
15346TIP3   OH267452   0.193   6.310  15.964 -0.3352  0.0211 -0.4223
15346TIP3    H167453   0.160   6.225  15.935  1.1576 -1.0229  0.7383
15346TIP3    H267454   0.285   6.311  15.935 -0.0252  0.7414  0.5272
15347TIP3   OH267455   4.254   3.862   1.205 -0.1572 -0.1151 -0.0185
15347TIP3    H167456   4.246   3.822   1.292 -0.1031 -0.8139 -0.3341
15347TIP3    H267457   4.340   3.904   1.206 -0.5135  0.6256  0.5687
15348TIP3   OH267458   2.026   2.839   5.482  0.2967  0.1191 -0.5958
15348TIP3    H167459   1.984   2.765   5.438  0.5611 -0.0031 -0.6456
15348TIP3    H267460   2.113   2.807   5.504  0.1106  0.1095  0.1887
15349TIP3   OH267461   1.209   4.665   3.643 -0.3749  0.2117 -0.1421
15349TIP3    H167462   1.122   4.703   3.637  0.6554  2.5316 -2.0986
15349TIP3    H267463   1.233   4.645   3.553  1.4652  0.5629  0.2293
15350TIP3   OH267464   2.290   2.898  10.394  0.3670 -0.2199 -0.2695
15350TIP3    H167465   2.220   2.961  10.380  0.3008 -0.6910 -2.5107
15350TIP3    H267466   2.346   2.908  10.316 -0.1976 -3.5480 -1.2408
15351TIP3   OH267467   0.422   2.657  15.535  0.2659 -0.0738 -0.0748
15351TIP3    H167468   0.370   2.592  15.582 -0.1712 -0.9224 -1.6661
15351TIP3    H267469   0.440   2.725  15.600  1.3450 -2.0811  1.8779
15352TIP3   OH267470   0.522   6.670  14.960 -0.5848  0.2920 -0.5082
15352TIP3    H167471   0.457   6.725  15.005  0.8819  0.4491  1.5145
15352TIP3    H267472   0.474   6.633  14.885 -2.2417  2.5179 -0.6436
15353TIP3   OH267473   0.102   4.445  17.163  0.8551  0.0181  0.0023
15353TIP3    H167474   0.132   4.521  17.213  0.1350  1.1523 -1.2534
15353TIP3    H267475   0.149   4.450  17.080  1.1896 -1.2185  0.0870
15354TIP3   OH267476   1.337   5.534   4.964 -0.3286 -0.3114 -0.0601
15354TIP3    H167477   1.254   5.488   4.979 -0.5832 -0.3084 -1.3165
15354TIP3    H267478   1.340   5.602   5.031 -1.3929 -0.2597 -0.0558
15355TIP3   OH267479   3.677   4.243   4.975  0.0830 -0.5575  0.6908
15355TIP3    H167480   3.620   4.244   4.898 -2.1026  2.3963  2.1614
15355TIP3    H267481   3.665   4.155   5.011 -3.1662 -0.3095  0.5605
15356TIP3   OH267482   5.203   1.975   2.170  0.0248 -0.2306 -0.1696
15356TIP3    H167483   5.241   1.957   2.083 -0.9614 -0.4364 -0.5728
15356TIP3    H267484   5.216   2.068   2.183  1.8670 -0.5114  0.3029
15357TIP3   OH267485   0.847   3.749   5.933  0.4844  0.3294 -0.0046
15357TIP3    H167486   0.834   3.677   5.872  0.9750  0.6786 -0.5265
15357TIP3    H267487   0.790   3.819   5.900  0.3686  0.3490  0.2321
15358TIP3   OH267488   6.077   4.618  12.407  0.1518  0.2170  0.0668
15358TIP3    H167489   6.051   4.650  12.493 -1.0184 -1.6274  0.4511
15358TIP3    H267490   6.068   4.694  12.349  1.6526  1.6930  1.6340
15359TIP3   OH267491   1.836   2.743  14.510 -0.2061  0.0622  0.5914
15359TIP3    H167492   1.927   2.735  14.539 -0.3652 -0.1941  1.0115
15359TIP3    H267493   1.801   2.655  14.515 -0.5958  0.2291  0.7946
15360TIP3   OH267494   1.955   3.745  10.613 -0.0978  0.1885 -0.1322
15360TIP3    H167495   1.910   3.685  10.672  1.2284 -1.0532 -0.3469
15360TIP3    H267496   1.897   3.822  10.609 -3.7839 -2.3598 -2.7225
15361TIP3   OH267497   0.428   3.421   4.849  0.1424  0.1603  0.6443
15361TIP3    H167498   0.508   3.435   4.899 -0.5477  0.7724  1.6191
15361TIP3    H267499   0.385   3.347   4.891  0.4376 -0.5211 -0.2131
15362TIP3   OH267500   6.164   5.601   4.767  0.1512 -0.4832 -0.4968
15362TIP3    H167501   6.084   5.653   4.770  0.4434  0.1801 -2.4348
15362TIP3    H267502   6.231   5.662   4.737  0.6001 -1.7859 -2.3764
15363TIP3   OH267503   3.000   3.409   2.801  0.5280 -0.0919 -0.0299
15363TIP3    H167504   3.014   3.476   2.869 -0.0981  0.3895 -0.3596
15363TIP3    H267505   2.962   3.335   2.848 -0.9472  0.6490 -0.0018
15364TIP3   OH267506   0.674   5.585   4.082  0.3485  0.5093  0.2028
15364TIP3    H167507   0.587   5.584   4.042  0.2900 -1.8173  0.2549
15364TIP3    H267508   0.704   5.494   4.078  1.8025  0.8030  2.3037
15365TIP3   OH267509   0.300   6.309  14.500 -0.9531 -0.3652 -0.0727
15365TIP3    H167510   0.215   6.312  14.544 -0.7547 -0.3662  0.3140
15365TIP3    H267511   0.355   6.256  14.557 -0.1904  1.0404  0.5705
15366TIP3   OH267512   2.283   4.845  15.231 -0.1715  0.4283 -0.8639
15366TIP3    H167513   2.351   4.823  15.167 -0.4270  1.6576 -1.5802
15366TIP3    H267514   2.312   4.927  15.270 -0.8745  0.5805 -0.6415
15367TIP3   OH267515   5.033   2.076   3.309  0.4304 -0.2740  0.1519
15367TIP3    H167516   5.061   1.984   3.314 -0.7115 -0.6501 -0.1166
15367TIP3    H267517   5.062   2.105   3.222  2.7668  0.3213  1.0581
15368TIP3   OH267518   0.268   0.391   4.741  0.4907 -0.5001  0.1000
15368TIP3    H167519   0.345   0.419   4.789 -0.1732 -1.9460  2.1391
15368TIP3    H267520   0.209   0.466   4.743  0.4897 -0.5218  1.5732
15369TIP3   OH267521   0.175   1.312  16.467  0.3999 -0.6525 -0.2006
15369TIP3    H167522   0.117   1.323  16.543 -0.6846 -0.2886 -1.0494
15369TIP3    H267523   0.263   1.319  16.504 -0.0371 -2.2447  1.2929
15370TIP3   OH267524   4.001   4.923   6.162  0.1711  0.0962 -0.2909
15370TIP3    H167525   4.071   4.860   6.178 -0.1783  0.0624  1.2846
15370TIP3    H267526   3.976   4.954   6.249 -0.2119  1.8285 -0.9660
15371TIP3   OH267527   4.607   5.451  11.132 -0.0631  0.4300  0.0923
15371TIP3    H167528   4.582   5.358  11.129 -1.0157  0.6552  0.8482
15371TIP3    H267529   4.623   5.474  11.041 -1.2346 -0.1033 -0.2667
15372TIP3   OH267530   0.296   3.709  12.097  0.1975 -0.0304 -0.8401
15372TIP3    H167531   0.358   3.698  12.025 -1.9943 -2.1817 -2.5396
15372TIP3    H267532   0.241   3.631  12.094 -2.0945  1.3740  1.0677
15373TIP3   OH267533   2.330   2.817  16.243  0.1129 -0.1161  0.2512
15373TIP3    H167534   2.236   2.800  16.248  0.1382  0.0057  1.4288
15373TIP3    H267535   2.361   2.809  16.333  1.5418 -1.8992 -0.3304
15374TIP3   OH267536   0.308   4.628   2.557 -0.2115 -1.0281  0.1260
15374TIP3    H167537   0.281   4.543   2.523 -0.1647 -1.2338  0.5942
15374TIP3    H267538   0.232   4.658   2.608 -1.3275  0.4653 -2.2283
15375TIP3   OH267539   1.224   0.898   2.432  0.1998  0.2401  0.6190
15375TIP3    H167540   1.132   0.923   2.432  0.4075  1.2418  2.6663
15375TIP3    H267541   1.261   0.942   2.356 -1.0689 -0.5591 -0.5121
15376TIP3   OH267542   6.602   2.200   3.838  0.0574 -0.0337 -0.6434
15376TIP3    H167543   6.568   2.163   3.920  0.7407 -0.8318 -0.7085
15376TIP3    H267544   6.627   2.124   3.786  0.6298  0.4954 -1.1572
15377TIP3   OH267545   4.502   3.252   5.063  0.2723  0.1457 -0.1810
15377TIP3    H167546   4.533   3.249   5.154 -0.9746  2.0844  0.3504
15377TIP3    H267547   4.408   3.239   5.069  0.2775 -0.5708 -1.3150
15378TIP3   OH267548   2.430   2.498  17.048  0.2164 -0.4759 -0.5324
15378TIP3    H167549   2.355   2.471  17.102  1.0992  0.8688  1.4860
15378TIP3    H267550   2.423   2.593  17.043  0.8792 -0.4724 -1.7439
15379TIP3   OH267551   0.482   1.378   4.573  1.0062  0.0827 -0.3652
15379TIP3    H167552   0.449   1.436   4.641  0.2891  0.5941 -1.1175
15379TIP3    H267553   0.438   1.408   4.493  0.3126 -1.7382 -0.7270
15380TIP3   OH267554   4.152   1.946  11.423  0.3028  0.1185  0.2484
15380TIP3    H167555   4.094   2.013  11.385  1.1024  0.1499 -0.9771
15380TIP3    H267556   4.215   1.996  11.475  2.2883  0.6555 -2.4321
15381TIP3   OH267557   5.030   2.012  16.622  0.0054 -0.2578 -0.0981
15381TIP3    H167558   5.018   2.024  16.716 -3.7617 -1.0742 -0.3191
15381TIP3    H267559   5.009   1.920  16.607  2.8892 -0.7835 -1.5416
15382TIP3   OH267560   3.491   0.302   2.140 -0.7505  0.1069 -0.0874
15382TIP3    H167561   3.461   0.393   2.136  3.2566  2.1979  5.4296
15382TIP3    H267562   3.568   0.299   2.084 -2.4710 -1.0097 -2.5942
15383TIP3   OH267563   2.352   0.583   3.345 -0.0821 -0.4197  0.2443
15383TIP3    H167564   2.391   0.651   3.291  1.0374 -0.9486  0.3702
15383TIP3    H267565   2.311   0.631   3.417  0.7854  0.1239  0.3931
15384TIP3   OH267566   2.473   1.033  14.187 -0.3081 -0.3868  0.1945
15384TIP3    H167567   2.378   1.019  14.186 -0.6408  1.5724 -0.2132
15384TIP3    H267568   2.495   1.045  14.094  0.1636  0.1733  0.3789
15385TIP3   OH267569   6.229   1.714  11.463  0.4693 -0.2152 -0.4062
15385TIP3    H167570   6.236   1.748  11.373 -1.2269 -0.6825 -0.7481
15385TIP3    H267571   6.164   1.771  11.505 -1.0236 -1.8242 -0.4273
15386TIP3   OH267572   2.907   5.333   4.202 -0.0222 -0.5322  0.1797
15386TIP3    H167573   2.956   5.263   4.159  1.5955  0.9276 -0.4293
15386TIP3    H267574   2.873   5.292   4.282 -1.8280 -2.8950 -1.6243
15387TIP3   OH267575   4.730   3.803  11.393  0.5033 -0.1815 -0.6989
15387TIP3    H167576   4.723   3.848  11.309 -0.3656 -0.5852 -0.8520
15387TIP3    H267577   4.765   3.869  11.453  0.4980  0.3005 -1.2208
15388TIP3   OH267578   5.827   1.218  12.970  0.1896 -0.1249  0.3086
15388TIP3    H167579   5.820   1.281  12.898  1.1960  2.0480  1.9842
15388TIP3    H267580   5.888   1.152  12.937 -0.5482 -0.0250 -1.3569
15389TIP3   OH267581   5.081   4.237   2.003  0.0510  0.1093  0.3635
15389TIP3    H167582   5.064   4.311   1.944 -0.1843 -0.1275  0.1335
15389TIP3    H267583   5.001   4.185   2.001  0.0271  0.1180  0.9303
15390TIP3   OH267584   3.750   2.799   0.345  0.2523 -0.0750  0.1274
15390TIP3    H167585   3.748   2.796   0.249 -0.1502  0.2262  0.1219
15390TIP3    H267586   3.835   2.837   0.365 -0.0807  0.8555 -0.1512
15391TIP3   OH267587   5.592   0.096  16.516  0.1050  0.4796  0.3443
15391TIP3    H167588   5.587   0.166  16.452  1.6054 -0.0575 -0.4042
15391TIP3    H267589   5.625   0.138  16.596  0.4614  0.7347  0.0658
15392TIP3   OH267590   6.586   1.191  12.338  0.1233  0.1123  0.1754
15392TIP3    H167591   6.566   1.154  12.252  0.2013  1.4968 -0.4695
15392TIP3    H267592   6.565   1.121  12.400 -0.5379 -0.6962 -0.9218
15393TIP3   OH267593   2.108   0.720  16.437 -0.1270  0.2005  0.1288
15393TIP3    H167594   2.098   0.690  16.527  1.0575 -0.7479 -0.0244
15393TIP3    H267595   2.033   0.683  16.391  0.3004 -0.9845  0.3432
15394TIP3   OH267596   5.954   2.171   1.307  0.7598 -0.0680 -0.5549
15394TIP3    H167597   5.955   2.235   1.236 -0.2619  0.4053 -0.1760
15394TIP3    H267598   6.015   2.206   1.372  0.3075  0.4605 -0.4091
15395TIP3   OH267599   1.258   1.637   3.842  0.4025  0.0979 -0.5052
15395TIP3    H167600   1.276   1.574   3.772  0.2446  0.5177 -0.9265
15395TIP3    H267601   1.339   1.639   3.893  1.4422  1.6184 -2.1198
15396TIP3   OH267602   1.121   4.886   4.113  0.0513 -0.1706  0.2886
15396TIP3    H167603   1.140   4.955   4.177  0.2508  0.8843 -0.8635
15396TIP3    H267604   1.106   4.808   4.166 -0.5586  0.8299  1.6673
15397TIP3   OH267605   0.992   3.166   5.567  0.1522 -0.5486  0.3870
15397TIP3    H167606   1.053   3.117   5.513 -0.3656 -1.1007  0.2941
15397TIP3    H267607   0.966   3.104   5.636  0.1157 -0.1458  0.7391
15398TIP3   OH267608   3.003   6.431   3.621 -0.2125  0.3483  0.1355
15398TIP3    H167609   2.929   6.401   3.674  0.0502 -0.1419  0.2255
15398TIP3    H267610   2.983   6.523   3.603 -1.0733  0.1040 -0.2325
15399TIP3   OH267611   3.143   3.361  12.471 -0.0817  0.3820  0.6563
15399TIP3    H167612   3.219   3.369  12.529 -1.2405  0.8671  2.1766
15399TIP3    H267613   3.177   3.318  12.393  2.1596  2.3772  0.4534
15400TIP3   OH267614   5.380   4.274  13.505 -0.5318 -0.2840  0.1113
15400TIP3    H167615   5.326   4.327  13.448  0.0212  0.2449  0.0612
15400TIP3    H267616   5.349   4.293  13.594  0.3721  0.9948  0.1827
15401TIP3   OH267617   2.960   4.227  15.488  0.2917 -0.5064 -0.3825
15401TIP3    H167618   2.995   4.197  15.572  1.0933  1.4085  0.0315
15401TIP3    H267619   2.943   4.321  15.502 -1.5545 -0.5903 -1.7319
15402TIP3   OH267620   4.959   3.058  12.527 -0.1666  0.3400 -0.2542
15402TIP3    H167621   4.875   3.022  12.500 -0.5684 -0.5484  1.9677
15402TIP3    H267622   5.024   3.008  12.478 -0.8874  1.0240 -1.9830
15403TIP3   OH267623   0.917   2.829   4.400  0.1238  0.6396  0.2888
15403TIP3    H167624   0.875   2.834   4.314 -1.1658  1.7914  0.9557
15403TIP3    H267625   1.008   2.806   4.380  0.1417  1.9773 -1.4851
15404TIP3   OH267626   5.993   2.368  13.237 -0.0556 -0.4377 -0.0172
15404TIP3    H167627   5.928   2.394  13.170  1.9650  1.1444 -1.4946
15404TIP3    H267628   5.963   2.282  13.266 -1.6912 -0.6960 -2.1275
15405TIP3   OH267629   4.329   0.452  11.202 -0.0197  0.2018  0.3124
15405TIP3    H167630   4.413   0.406  11.203  0.4811  1.0445 -0.7861
15405TIP3    H267631   4.263   0.383  11.198  0.7452 -0.4676 -2.3844
15406TIP3   OH267632   0.559   2.826  15.737  0.1126  0.1063  0.2048
15406TIP3    H167633   0.617   2.854  15.809 -0.9912  0.2795  1.0554
15406TIP3    H267634   0.471   2.834  15.773 -0.4987  0.5897 -1.3186
15407TIP3   OH267635   0.152   0.645   5.086  0.0388 -0.3680  0.4486
15407TIP3    H167636   0.201   0.591   5.025  1.1932  0.3555  0.7026
15407TIP3    H267637   0.061   0.638   5.057  0.5340 -0.1979 -1.2280
15408TIP3   OH267638   4.185   1.677   1.325 -0.1717  0.0064 -0.3339
15408TIP3    H167639   4.252   1.744   1.339  0.2037 -0.1855 -1.1368
15408TIP3    H267640   4.175   1.634   1.410  0.9870 -0.1966 -0.2903
15409TIP3   OH267641   6.158   4.297   6.511 -0.2524  0.5263 -0.0484
15409TIP3    H167642   6.075   4.328   6.477 -0.8714  0.2058  1.1268
15409TIP3    H267643   6.191   4.238   6.443 -1.7630 -0.6110  0.1689
15410TIP3   OH267644   2.101   4.549   1.543 -0.4696 -0.5352 -0.0813
15410TIP3    H167645   2.183   4.503   1.529  0.0416  0.1296  0.6730
15410TIP3    H267646   2.091   4.554   1.638 -0.6710  0.6149 -0.1457
15411TIP3   OH267647   2.728   2.530   2.179 -0.4342  0.1189 -0.1020
15411TIP3    H167648   2.801   2.469   2.190 -1.9339 -2.0602 -1.5103
15411TIP3    H267649   2.747   2.574   2.096  0.7036  1.7872  0.9663
15412TIP3   OH267650   0.161   2.502  14.572  0.2844 -0.1808 -0.4501
15412TIP3    H167651   0.203   2.484  14.488 -0.1042  0.0283 -0.6922
15412TIP3    H267652   0.085   2.555  14.550  0.5768  0.4906  0.1041
15413TIP3   OH267653   1.804   5.859   2.766  0.0834  0.2278 -0.3388
15413TIP3    H167654   1.781   5.778   2.721  0.0864  1.0025 -1.8038
15413TIP3    H267655   1.733   5.873   2.828 -0.0639 -0.7389 -0.2710
15414TIP3   OH267656   3.927   0.946  12.981 -0.3953 -0.5484  0.6223
15414TIP3    H167657   3.847   0.996  12.997  0.5043  0.7369  1.3127
15414TIP3    H267658   3.975   0.951  13.064  0.1315 -1.8045  0.4094
15415TIP3   OH267659   0.462   6.752  11.574 -0.1492  0.2567 -0.1540
15415TIP3    H167660   0.515   6.766  11.495 -0.5778 -0.7088 -0.6385
15415TIP3    H267661   0.372   6.749  11.541 -0.2064 -2.0452  0.0667
15416TIP3   OH267662   5.976   5.260  11.175  0.9214  0.0786  0.0450
15416TIP3    H167663   5.890   5.229  11.147  0.9904  1.5062 -1.9675
15416TIP3    H267664   6.039   5.213  11.120  1.4171 -0.4125  0.9913
15417TIP3   OH267665   6.148   5.411   4.554  0.1924  0.0211 -0.2227
15417TIP3    H167666   6.183   5.419   4.643 -2.0314  2.2139  0.5554
15417TIP3    H267667   6.171   5.493   4.512 -0.5888 -0.1375 -0.9744
15418TIP3   OH267668   2.037   2.181  13.287 -0.5693  0.4928  0.5006
15418TIP3    H167669   2.056   2.233  13.210 -0.8105 -0.3262 -0.1295
15418TIP3    H267670   1.954   2.138  13.268 -0.3909 -0.1061  1.0027
15419TIP3   OH267671   6.700   4.754  14.679  0.0034  0.6465  0.5868
15419TIP3    H167672   6.792   4.732  14.667  0.3963  1.6347  1.7133
15419TIP3    H267673   6.653   4.681  14.638  1.2700 -0.6308  1.3300
15420TIP3   OH267674   5.524   0.132   2.727 -0.1331 -0.2337  0.0784
15420TIP3    H167675   5.512   0.049   2.774  2.8869 -1.7903 -1.5325
15420TIP3    H267676   5.614   0.157   2.746  0.1299  0.8114 -2.1739
15421TIP3   OH267677   3.774   4.445  14.165 -0.3259 -0.2315  0.2260
15421TIP3    H167678   3.751   4.359  14.130  1.4241 -1.3794  1.7430
15421TIP3    H267679   3.739   4.507  14.100 -0.6813 -2.0891 -1.4571
15422TIP3   OH267680   5.196   1.604   0.616 -0.0160  0.3947 -0.1407
15422TIP3    H167681   5.154   1.526   0.581  1.8823 -0.3767 -0.8190
15422TIP3    H267682   5.257   1.572   0.682 -1.1971  1.5757  1.6382
15423TIP3   OH267683   3.280   3.625   1.789  0.2978  0.0435  0.2635
15423TIP3    H167684   3.328   3.554   1.833 -1.3748 -0.4838  1.3175
15423TIP3    H267685   3.256   3.589   1.704  1.6335  0.2745 -0.2342
15424TIP3   OH267686   4.131   5.571  11.752  0.2985  0.0276  0.0816
15424TIP3    H167687   4.039   5.584  11.775  0.3648 -0.6031  0.7481
15424TIP3    H267688   4.146   5.631  11.680 -1.0661 -1.0082 -1.1271
15425TIP3   OH267689   6.258   5.034  15.189 -0.0994  0.5197 -0.1152
15425TIP3    H167690   6.289   5.052  15.278 -0.5229 -0.9358  0.3612
15425TIP3    H267691   6.184   5.092  15.177  0.1408  0.9363  0.3811
15426TIP3   OH267692   6.164   1.978  14.396 -0.4410  0.2776  0.0789
15426TIP3    H167693   6.107   1.991  14.320 -0.2708 -0.8170 -0.2593
15426TIP3    H267694   6.164   1.883  14.409  0.8174  0.3097  0.4447
15427TIP3   OH267695   3.357   6.053  11.557  0.6899 -0.6037 -0.1247
15427TIP3    H167696   3.399   6.022  11.477 -0.0591 -0.3420 -0.6305
15427TIP3    H267697   3.378   6.146  11.561  0.9819 -0.6824  0.1412
15428TIP3   OH267698   1.481   0.352  13.739 -0.3648 -0.7891 -0.2412
15428TIP3    H167699   1.407   0.390  13.692  0.0248  0.9246  0.4474
15428TIP3    H267700   1.442   0.286  13.797 -1.4752  0.6212  0.6765
15429TIP3   OH267701   4.311   2.103   5.607 -0.1305  0.0728  0.1389
15429TIP3    H167702   4.269   2.064   5.683  0.8170 -0.3333  0.4611
15429TIP3    H267703   4.279   2.052   5.533 -1.2381  0.6158  0.2080
15430TIP3   OH267704   4.380   4.212   4.944  0.0140  0.0435  0.2351
15430TIP3    H167705   4.475   4.204   4.937 -0.1794 -1.3506 -1.6288
15430TIP3    H267706   4.351   4.130   4.983 -0.4844 -0.0536 -0.3109
15431TIP3   OH267707   6.669   5.600  16.459  0.0723 -0.3753  1.0744
15431TIP3    H167708   6.673   5.685  16.503 -0.5052 -0.4798  1.3385
15431TIP3    H267709   6.757   5.564  16.469  1.1479  1.3124 -1.3519
15432TIP3   OH267710   2.947   1.488  13.360 -0.3891  0.0772 -0.1898
15432TIP3    H167711   3.014   1.533  13.411 -0.5626  1.1561 -0.8805
15432TIP3    H267712   2.973   1.501  13.268  0.1428 -2.1704 -0.4276
15433TIP3   OH267713   3.322   5.791  16.079  0.4207  0.3176 -0.0469
15433TIP3    H167714   3.296   5.883  16.090 -0.9449  0.1049 -1.1683
15433TIP3    H267715   3.362   5.788  15.992 -1.4426 -0.4899 -0.9297
15434TIP3   OH267716   3.579   3.358   3.390 -0.2273 -0.2455  0.0648
15434TIP3    H167717   3.651   3.322   3.338 -1.7291 -2.6776 -0.5363
15434TIP3    H267718   3.532   3.415   3.329  0.3359  0.1506 -0.0003
15435TIP3   OH267719   2.490   1.796  14.903  0.3009  0.1913  0.0491
15435TIP3    H167720   2.505   1.811  14.810  1.1339 -1.2174 -0.0791
15435TIP3    H267721   2.567   1.748  14.933 -1.6052 -2.8510  0.5489
15436TIP3   OH267722   0.206   2.860   3.629 -0.4924  0.6637 -0.0548
15436TIP3    H167723   0.133   2.807   3.599  1.0522 -1.2982 -0.5462
15436TIP3    H267724   0.262   2.799   3.677  1.7211  1.6643 -1.2209
15437TIP3   OH267725   3.688   4.982  13.117  0.2255 -0.4283 -0.2077
15437TIP3    H167726   3.776   4.973  13.152 -0.0376 -1.6161  0.2005
15437TIP3    H267727   3.647   4.897  13.131 -0.8454 -0.0429 -0.7964
15438TIP3   OH267728   6.372   3.759  13.526 -0.4066 -0.4071 -1.2670
15438TIP3    H167729   6.399   3.752  13.434  1.2537  0.1225 -0.8645
15438TIP3    H267730   6.317   3.837  13.529  3.3405  2.5551 -1.1255
15439TIP3   OH267731   1.061   0.335  15.283 -0.6188 -0.2404  0.0182
15439TIP3    H167732   1.010   0.377  15.214 -4.0249 -1.5678  1.4979
15439TIP3    H267733   1.079   0.247  15.249  2.0158  0.5595 -0.9834
15440TIP3   OH267734   1.358   0.804  13.387  0.4317  0.2594  0.4170
15440TIP3    H167735   1.444   0.775  13.418  1.5758  1.8112 -1.0703
15440TIP3    H267736   1.365   0.800  13.291 -1.5327 -0.5248  0.2609
15441TIP3   OH267737   6.564   4.727   2.671  0.2928  0.0591 -0.2762
15441TIP3    H167738   6.647   4.755   2.631  0.9872 -2.5804 -0.8879
15441TIP3    H267739   6.506   4.711   2.596 -0.1527  0.1205  0.0527
15442TIP3   OH267740   2.696   0.461  15.601  0.1989  0.1697  0.3067
15442TIP3    H167741   2.742   0.535  15.640 -1.0792  0.4017  1.4196
15442TIP3    H267742   2.698   0.393  15.668  0.1062 -0.3030 -0.1607
15443TIP3   OH267743   4.866   1.364  13.230  0.7260 -0.3546  0.2536
15443TIP3    H167744   4.889   1.312  13.307 -1.2950 -0.8220  0.6132
15443TIP3    H267745   4.877   1.305  13.156  0.5725 -0.6095  0.4315
15444TIP3   OH267746   0.312   4.688   1.237 -0.4080 -0.7285 -0.2571
15444TIP3    H167747   0.387   4.745   1.255 -0.1283 -0.9673 -0.6620
15444TIP3    H267748   0.350   4.601   1.225 -0.6530 -0.7082 -1.2991
15445TIP3   OH267749   1.835   4.143   2.963 -0.0357 -0.4139 -0.2695
15445TIP3    H167750   1.764   4.170   3.020  0.4673 -2.3365  1.3724
15445TIP3    H267751   1.793   4.120   2.880 -1.2537 -0.8531  0.4469
15446TIP3   OH267752   1.587   5.623  16.985  0.2213 -0.3009  0.1105
15446TIP3    H167753   1.607   5.547  16.929  0.7858  0.5318 -0.8675
15446TIP3    H267754   1.673   5.659  17.007 -0.0491  0.1808  0.3813
15447TIP3   OH267755   3.376   3.774  16.898 -0.0628  0.0060 -0.0257
15447TIP3    H167756   3.294   3.809  16.931 -0.1299  0.6804 -0.8652
15447TIP3    H267757   3.432   3.851  16.885  0.3590 -0.3517 -0.3731
15448TIP3   OH267758   5.751   1.137  17.104 -0.2660 -0.4338 -0.2265
15448TIP3    H167759   5.694   1.153  17.028  0.8752  0.5748 -0.9108
15448TIP3    H267760   5.785   1.049  17.091  0.0971 -0.1866 -1.0333
15449TIP3   OH267761   5.528   0.348   4.446  0.0845  0.2296  0.2222
15449TIP3    H167762   5.478   0.422   4.481 -1.4282 -0.0508 -1.2683
15449TIP3    H267763   5.475   0.314   4.375  1.1549 -1.7942  0.3242
15450TIP3   OH267764   3.498   6.628   5.150 -0.0677  0.1651  0.1219
15450TIP3    H167765   3.489   6.715   5.189  1.4433  0.4614 -0.1096
15450TIP3    H267766   3.504   6.569   5.225  0.5818  0.4743  0.3299
15451TIP3   OH267767   3.165   3.687   4.059  0.1298 -0.2470 -0.3711
15451TIP3    H167768   3.257   3.713   4.061  0.1181 -0.2147  1.6206
15451TIP3    H267769   3.167   3.591   4.055  0.1982 -0.2069 -2.2072
15452TIP3   OH267770   6.003   5.438  12.613 -0.2535 -0.0083 -0.1550
15452TIP3    H167771   5.962   5.453  12.698  0.3646  3.7480 -0.3153
15452TIP3    H267772   5.942   5.380  12.566 -1.1526 -1.2638  2.4046
15453TIP3   OH267773   6.562   2.567  15.181 -0.2414  0.4997  0.1859
15453TIP3    H167774   6.614   2.635  15.224  1.4641 -0.7472  0.1946
15453TIP3    H267775   6.477   2.571  15.224  0.9460  0.2516  2.7193
15454TIP3   OH267776   3.938   4.573   1.825  0.0561 -0.2628 -0.1816
15454TIP3    H167777   4.011   4.610   1.776 -0.3106 -1.2722 -1.5556
15454TIP3    H267778   3.979   4.533   1.902  0.8056  0.2333 -0.3094
15455TIP3   OH267779   1.660   5.681  15.139  0.0366  0.0041 -0.1405
15455TIP3    H167780   1.697   5.768  15.152  1.0643 -0.7018  2.3180
15455TIP3    H267781   1.732   5.621  15.159 -1.2636 -1.3975  0.5750
15456TIP3   OH267782   5.690   6.174  12.079  0.0056 -0.2111  0.1364
15456TIP3    H167783   5.728   6.246  12.029  1.0259  0.9686  2.4403
15456TIP3    H267784   5.752   6.160  12.151 -1.8451 -1.1156  1.6439
15457TIP3   OH267785   0.471   0.236   2.328  0.4963 -0.3653 -0.2070
15457TIP3    H167786   0.566   0.234   2.312  0.5473 -1.7888  0.0633
15457TIP3    H267787   0.439   0.156   2.286 -0.6424  0.2454 -0.5407
15458TIP3   OH267788   5.412   0.810  13.159 -0.2944  0.2074  0.2346
15458TIP3    H167789   5.447   0.746  13.221 -1.0473 -0.8130 -0.3562
15458TIP3    H267790   5.489   0.847  13.116  0.1403 -0.5502  0.3526
15459TIP3   OH267791   1.192   0.778  15.249 -0.1335  0.2566  0.1045
15459TIP3    H167792   1.226   0.690  15.235  0.6325  0.4809  0.5232
15459TIP3    H267793   1.149   0.801  15.167  2.4415  0.7446 -1.1773
15460TIP3   OH267794   4.503   1.839   2.089 -0.6916 -0.0369 -0.1548
15460TIP3    H167795   4.569   1.841   2.159  0.2468  1.0150 -1.0229
15460TIP3    H267796   4.516   1.754   2.046  0.6652  0.4511 -0.7895
15461TIP3   OH267797   2.146   4.319  14.684  0.5677 -0.6813  0.4518
15461TIP3    H167798   2.067   4.303  14.737  0.8519 -0.6017  0.9087
15461TIP3    H267799   2.164   4.236  14.641 -0.1529 -0.5129 -0.1860
15462TIP3   OH267800   5.103   5.949  15.686  0.0658  0.1878  0.6686
15462TIP3    H167801   5.137   5.891  15.618 -2.1358 -0.2591 -0.1363
15462TIP3    H267802   5.083   6.030  15.640  3.2543  1.7951  1.8130
15463TIP3   OH267803   1.945   0.966  12.479 -0.0866 -0.2589 -1.0207
15463TIP3    H167804   1.953   0.911  12.557 -1.4260 -1.0827 -1.4200
15463TIP3    H267805   2.024   0.949  12.428  0.5669 -0.0841 -0.0748
15464TIP3   OH267806   3.066   0.223  12.579  0.2011 -0.4786 -0.0347
15464TIP3    H167807   3.114   0.304  12.563  0.0236 -0.1970  0.8187
15464TIP3    H267808   2.993   0.249  12.634 -0.8197 -0.9448 -1.1204
15465TIP3   OH267809   4.413   0.631   0.862 -0.0051 -0.2759  0.2021
15465TIP3    H167810   4.387   0.556   0.915 -0.7692 -0.2887 -0.1788
15465TIP3    H267811   4.409   0.706   0.922 -1.8468 -0.1281 -0.0484
15466TIP3   OH267812   3.201   1.876   0.703 -0.5097  0.2242 -0.0448
15466TIP3    H167813   3.220   1.952   0.649 -2.5855  2.2690  1.8787
15466TIP3    H267814   3.139   1.825   0.652  2.9900 -1.9548 -2.6147
15467TIP3   OH267815   5.148   1.299   0.194  0.2633 -0.2715 -0.3194
15467TIP3    H167816   5.190   1.376   0.154  2.0485 -1.7120 -1.3569
15467TIP3    H267817   5.060   1.297   0.156  0.3583  0.9431 -0.6638
15468TIP3   OH267818   1.881   5.145   0.323 -0.4189 -0.6915 -0.1742
15468TIP3    H167819   1.890   5.165   0.416 -1.9113  1.8595 -0.4895
15468TIP3    H267820   1.801   5.191   0.296  1.7310  1.5795 -3.4613
15469TIP3   OH267821   0.544   0.737  12.547  0.2279 -0.3095  0.2578
15469TIP3    H167822   0.508   0.791  12.477 -1.0686  0.2234  1.2998
15469TIP3    H267823   0.606   0.794  12.592  1.9729 -1.0185 -1.1228
15470TIP3   OH267824   1.391   2.375   6.186  0.5173  0.8441 -0.2325
15470TIP3    H167825   1.317   2.314   6.184  0.9960  0.2615 -0.6317
15470TIP3    H267826   1.361   2.447   6.241  0.2620 -0.1628  0.9843
15471TIP3   OH267827   5.870   5.719  12.386 -0.3420  0.6784  0.0418
15471TIP3    H167828   5.935   5.736  12.317 -2.3156 -1.3831 -2.5576
15471TIP3    H267829   5.786   5.728  12.341 -1.7068 -2.2606  1.7739
15472TIP3   OH267830   4.347   4.514  15.991  0.1732 -0.3976  0.1648
15472TIP3    H167831   4.333   4.492  16.083 -1.6814  0.1924  0.0591
15472TIP3    H267832   4.292   4.591  15.976  1.4693  0.3342 -1.1174
15473TIP3   OH267833   0.567   0.054  13.712  0.2201 -0.1390  0.1084
15473TIP3    H167834   0.580  -0.040  13.727  1.4549  0.0249  0.1600
15473TIP3    H267835   0.632   0.077  13.646  0.3154  0.8004  0.5094
15474TIP3   OH267836   6.026   3.232   3.304 -0.0808 -0.4449 -0.2057
15474TIP3    H167837   6.111   3.238   3.261 -0.5674  1.6451 -0.9643
15474TIP3    H267838   5.998   3.142   3.288  1.3857 -0.7822 -1.0794
15475TIP3   OH267839   3.029   5.238   2.052 -0.6170 -0.4100  0.5206
15475TIP3    H167840   3.106   5.224   2.107 -1.1641  0.9740  1.6969
15475TIP3    H267841   2.959   5.190   2.096 -0.8600 -0.0333  0.5472
15476TIP3   OH267842   0.347   5.047  12.786 -0.1033  0.1361 -0.8597
15476TIP3    H167843   0.358   5.070  12.694  1.7113  3.0046 -0.0616
15476TIP3    H267844   0.284   5.111  12.819  0.1914 -0.0751  0.1594
15477TIP3   OH267845   4.193   5.766  14.221 -0.1762 -0.3696  0.4560
15477TIP3    H167846   4.207   5.858  14.198  0.0310 -0.8585 -1.4713
15477TIP3    H267847   4.163   5.725  14.140  1.0094 -2.2774  0.9339
15478TIP3   OH267848   1.664   0.101  10.523  0.1093 -0.4350  0.1214
15478TIP3    H167849   1.671   0.178  10.580  0.5009 -0.5227  0.1932
15478TIP3    H267850   1.572   0.101  10.494  0.2263  0.3430 -0.2869
15479TIP3   OH267851   4.215   2.115  16.812 -0.6612 -0.2054  0.1529
15479TIP3    H167852   4.126   2.148  16.796 -0.3223  0.2557 -0.8776
15479TIP3    H267853   4.203   2.022  16.830 -1.4525  0.0682  1.1527
15480TIP3   OH267854   0.219   6.359   1.247  0.4164  0.3911  0.0511
15480TIP3    H167855   0.266   6.295   1.195  0.3600  0.5791 -0.2341
15480TIP3    H267856   0.245   6.341   1.338 -0.5108 -0.7942  0.0933
15481TIP3   OH267857   0.185   0.985  15.861 -0.0785  0.4924 -0.1578
15481TIP3    H167858   0.247   0.959  15.929  0.2956 -0.8712 -0.9756
15481TIP3    H267859   0.110   1.021  15.908  0.5911  0.4959  0.9169
15482TIP3   OH267860   3.373   1.806   1.742  0.0719 -0.1901  0.3557
15482TIP3    H167861   3.380   1.890   1.787  3.1467  0.5586 -1.2340
15482TIP3    H267862   3.352   1.743   1.811 -2.1972  1.7796  1.6076
15483TIP3   OH267863   6.060   3.352  13.006 -0.1007  1.1120 -0.1444
15483TIP3    H167864   6.021   3.390  13.085 -1.1492 -2.5686  1.3319
15483TIP3    H267865   6.072   3.260  13.028 -0.5286 -0.1455 -4.3446
15484TIP3   OH267866   2.298   0.460   1.542  0.6267  0.3251 -0.5119
15484TIP3    H167867   2.241   0.402   1.594  0.3009  0.0880 -1.1230
15484TIP3    H267868   2.384   0.419   1.545  0.3503 -0.3165 -1.1201
15485TIP3   OH267869   4.976   0.008  14.603  0.5199 -0.4293  0.5719
15485TIP3    H167870   5.069  -0.013  14.589  0.3405 -0.2394 -1.1240
15485TIP3    H267871   4.930  -0.044  14.538 -0.5865 -0.5718  1.4512
15486TIP3   OH267872   4.671   3.539   5.585 -0.2574  0.6566 -0.3017
15486TIP3    H167873   4.649   3.561   5.494  0.0996  0.2770 -0.4850
15486TIP3    H267874   4.629   3.607   5.637  0.6083  1.6183 -0.8314
15487TIP3   OH267875   2.458   3.003   1.582 -0.0266 -0.0908 -0.3507
15487TIP3    H167876   2.407   3.084   1.581  2.9376  2.0877  2.5619
15487TIP3    H267877   2.395   2.935   1.602 -2.1522  2.0863  0.9585
15488TIP3   OH267878   5.183   2.728   3.483 -0.4943 -0.2842 -0.8132
15488TIP3    H167879   5.277   2.724   3.501 -0.4958  0.5028 -0.6130
15488TIP3    H267880   5.145   2.658   3.536  0.1028 -1.3397 -1.7509
15489TIP3   OH267881   6.442   2.670   3.858 -0.1399 -0.7011 -0.7294
15489TIP3    H167882   6.507   2.615   3.902  1.6475  0.3634 -1.8877
15489TIP3    H267883   6.402   2.613   3.793 -0.7599 -1.5127  0.3380
15490TIP3   OH267884   2.108   3.885   1.008 -0.3542  0.0495 -0.5726
15490TIP3    H167885   2.036   3.890   0.945  0.0765  1.1514 -1.0111
15490TIP3    H267886   2.157   3.966   0.995 -0.6833  0.6928  1.7047
15491TIP3   OH267887   1.269   4.452   5.278  0.1765  0.2348  0.8273
15491TIP3    H167888   1.191   4.439   5.224  0.0944  0.0696  0.9860
15491TIP3    H267889   1.304   4.537   5.249 -0.6267  0.7930  1.4438
15492TIP3   OH267890   2.599   6.521   4.624 -0.4863  0.4570 -0.4505
15492TIP3    H167891   2.547   6.524   4.544  0.5692 -0.3239 -1.1915
15492TIP3    H267892   2.599   6.611   4.656 -0.4984  0.8870 -1.6185
15493TIP3   OH267893   6.524   5.121   3.544 -0.3904  0.5799 -0.4062
15493TIP3    H167894   6.492   5.179   3.613  1.9271 -0.4620  1.7132
15493TIP3    H267895   6.469   5.043   3.552 -0.7917  0.8545 -0.4446
15494TIP3   OH267896   3.495   0.041  11.825 -0.2746 -0.6386  0.4272
15494TIP3    H167897   3.414   0.064  11.870  0.0811  1.9103 -0.0786
15494TIP3    H267898   3.559   0.029  11.895 -0.7589 -1.3878  0.7604
15495TIP3   OH267899   3.393   5.903   3.442 -0.4965  0.3267  0.5643
15495TIP3    H167900   3.437   5.911   3.526  0.2009 -1.5058  0.4143
15495TIP3    H267901   3.451   5.848   3.389 -0.8424  1.5395 -1.1899
15496TIP3   OH267902   1.423   6.633  12.927  0.2498  0.4190 -0.1754
15496TIP3    H167903   1.454   6.661  12.841 -0.9715  0.6193 -0.5643
15496TIP3    H267904   1.403   6.540  12.916 -2.9601  1.0814 -1.0915
15497TIP3   OH267905   5.624   6.548   4.785  0.2857  0.5822 -0.6178
15497TIP3    H167906   5.694   6.492   4.820 -0.2732  1.2468  1.7475
15497TIP3    H267907   5.555   6.486   4.760 -0.1629  0.0867  1.5876
15498TIP3   OH267908   3.062   5.768  14.846 -0.3965 -0.4303 -0.1211
15498TIP3    H167909   2.984   5.822  14.833 -0.1933 -0.0227  0.3588
15498TIP3    H267910   3.039   5.683  14.808 -1.2924 -0.4952  0.5447
15499TIP3   OH267911   2.861   2.601  16.121 -0.3196 -0.3340  0.1503
15499TIP3    H167912   2.788   2.605  16.183  0.6186 -0.0691  1.2943
15499TIP3    H267913   2.849   2.676  16.063  0.1511  0.9698  1.6597
15500TIP3   OH267914   2.244   1.666   0.718 -0.0905 -0.5120 -0.1461
15500TIP3    H167915   2.334   1.633   0.723  0.6697  1.4747  0.3090
15500TIP3    H267916   2.212   1.635   0.634 -0.2396 -4.1326  1.1068
15501TIP3   OH267917   4.619   2.878   1.135 -0.0888 -0.2401  0.4907
15501TIP3    H167918   4.712   2.891   1.118  0.2652 -0.8157  1.7875
15501TIP3    H267919   4.612   2.879   1.231 -1.6362  1.1658  0.4182
15502TIP3   OH267920   6.668   3.806  16.321 -0.2545  0.5856 -0.1702
15502TIP3    H167921   6.745   3.792  16.266 -0.4669  0.2384 -0.3760
15502TIP3    H267922   6.649   3.720  16.358 -1.3859  0.3660 -1.2131
15503TIP3   OH267923   2.910   3.712   0.712 -0.3005 -0.2535  0.1252
15503TIP3    H167924   2.962   3.668   0.645  0.0505  0.0313  0.2025
15503TIP3    H267925   2.940   3.803   0.709 -2.9348  0.6829 -1.9742
15504TIP3   OH267926   3.990   3.284  15.667 -0.0070 -0.1795 -0.1724
15504TIP3    H167927   4.018   3.268  15.577  0.1436  0.3018 -0.2102
15504TIP3    H267928   4.042   3.358  15.696 -1.0393  0.5521 -0.1432
15505TIP3   OH267929   1.059   0.859   3.314 -0.0060  0.2950  0.4608
15505TIP3    H167930   1.133   0.915   3.340  1.2509 -0.5263 -1.1529
15505TIP3    H267931   0.983   0.899   3.356  1.2011  1.7869  1.3379
15506TIP3   OH267932   0.966   0.817  15.649 -0.2952  0.1355  0.2247
15506TIP3    H167933   0.970   0.910  15.627 -1.0340  0.4291  1.2155
15506TIP3    H267934   0.934   0.816  15.740  1.7975 -1.0071  1.0091
15507TIP3   OH267935   6.470   0.867   5.665  0.0322  0.7372 -0.8616
15507TIP3    H167936   6.549   0.901   5.622  0.2661 -0.2945 -1.2773
15507TIP3    H267937   6.495   0.780   5.696 -0.9309  0.4173 -0.9549
15508TIP3   OH267938   4.559   0.269  15.263 -0.6103  0.0784 -0.2335
15508TIP3    H167939   4.587   0.186  15.302  0.8287  0.2499 -0.8399
15508TIP3    H267940   4.475   0.288  15.304 -0.3961 -1.0789  0.7906
15509TIP3   OH267941   4.674   6.498   4.741  0.1390 -0.1798 -0.1302
15509TIP3    H167942   4.690   6.439   4.668  1.4957  0.9875 -0.8121
15509TIP3    H267943   4.697   6.447   4.819  1.0572 -0.6344 -0.6857
15510TIP3   OH267944   4.692   1.420  11.301 -0.2397 -0.5672 -0.0204
15510TIP3    H167945   4.695   1.516  11.302 -2.3251 -0.4583  0.5708
15510TIP3    H267946   4.600   1.400  11.287  0.1948 -2.5085 -0.2767
15511TIP3   OH267947   3.365   5.964  12.215 -0.8459  0.2920  0.0060
15511TIP3    H167948   3.312   6.003  12.285 -2.7506 -1.6030 -0.2481
15511TIP3    H267949   3.304   5.953  12.142  0.3797 -0.2964 -0.9705
15512TIP3   OH267950   6.264   2.639   4.691 -0.2386  0.0070  0.1077
15512TIP3    H167951   6.311   2.594   4.762 -1.9949 -0.8322  0.7891
15512TIP3    H267952   6.313   2.616   4.612  1.2432  0.2358  0.9110
15513TIP3   OH267953   0.903   0.970   5.366 -0.1990 -0.2290 -0.4844
15513TIP3    H167954   0.960   1.014   5.303 -1.0730  2.2289  0.3180
15513TIP3    H267955   0.963   0.938   5.434  0.3730  0.8719 -0.4539
15514TIP3   OH267956   0.764   2.960  15.486  0.6049 -0.1111  0.1612
15514TIP3    H167957   0.801   2.986  15.571 -1.7900 -1.8895  1.8813
15514TIP3    H267958   0.746   2.866  15.495 -0.6001 -0.1499 -1.9838
15515TIP3   OH267959   3.636   5.873  10.891  0.0843  0.4430 -0.3915
15515TIP3    H167960   3.560   5.850  10.944  1.1705 -0.5490  0.8307
15515TIP3    H267961   3.673   5.788  10.866  0.9481  0.8986 -0.6978
15516TIP3   OH267962   5.957   3.004  14.861 -0.3212  0.5047 -0.1467
15516TIP3    H167963   5.949   3.092  14.823 -0.4209 -0.4931 -2.6521
15516TIP3    H267964   5.901   3.007  14.939  0.4857  2.9228  0.4400
15517TIP3   OH267965   2.205   2.428   3.742 -0.2037 -0.1167  0.2817
15517TIP3    H167966   2.128   2.402   3.691 -1.0235 -0.2351  1.5314
15517TIP3    H267967   2.215   2.359   3.807  0.7393  0.0877  0.3572
15518TIP3   OH267968   1.600   5.794   6.109  0.1131 -0.2598 -0.0438
15518TIP3    H167969   1.623   5.762   6.022  3.1423  0.4929  0.3559
15518TIP3    H267970   1.604   5.716   6.165  2.4864 -0.1304  0.0730
15519TIP3   OH267971   2.565   0.437  14.453 -1.3238 -0.1246 -0.0161
15519TIP3    H167972   2.529   0.380  14.520  1.3029  1.1874  2.7404
15519TIP3    H267973   2.641   0.391  14.420 -0.7310  0.6151  0.2877
15520TIP3   OH267974   1.958   3.584  13.224 -0.4705 -0.4616 -0.4117
15520TIP3    H167975   1.882   3.531  13.250 -0.5647  0.7803  2.2957
15520TIP3    H267976   1.921   3.652  13.167 -1.7176  0.7296  1.6590
15521TIP3   OH267977   1.088   2.769   2.151  0.1490  0.2740  0.5942
15521TIP3    H167978   1.155   2.781   2.218 -0.7562 -0.7551  1.7369
15521TIP3    H267979   1.124   2.700   2.095  0.8390  1.0248  0.0876
15522TIP3   OH267980   3.114   5.497   0.906  0.2005 -0.1361  0.4729
15522TIP3    H167981   3.183   5.529   0.848 -0.6280 -0.3187 -0.6505
15522TIP3    H267982   3.158   5.433   0.962  0.8370 -0.7431 -0.6602
15523TIP3   OH267983   3.578   0.742   4.065 -0.0380 -0.1345 -0.8806
15523TIP3    H167984   3.608   0.781   3.983 -0.1071 -0.6307 -1.1452
15523TIP3    H267985   3.573   0.648   4.047  0.6988 -0.3494 -0.0812
15524TIP3   OH267986   2.462   5.537   2.004 -0.0936  0.2875 -0.0815
15524TIP3    H167987   2.458   5.602   1.934 -0.2970  1.0261  0.5976
15524TIP3    H267988   2.549   5.498   1.996  0.0464  0.6735 -0.4625
15525TIP3   OH267989   5.004   1.965   1.029  0.2357 -0.2508 -0.4449
15525TIP3    H167990   4.925   1.912   1.040 -1.0356  1.6223 -0.0087
15525TIP3    H267991   5.040   1.972   1.117 -0.8666  1.3717 -0.0655
15526TIP3   OH267992   2.228   4.169   3.541 -0.1083  0.3244 -0.1523
15526TIP3    H167993   2.136   4.194   3.542 -0.2207 -0.0523 -0.5667
15526TIP3    H267994   2.248   4.155   3.448  0.7884  1.9384 -0.2412
15527TIP3   OH267995   0.324   1.613   1.816  0.0595 -0.1596  0.0713
15527TIP3    H167996   0.306   1.521   1.798  0.2268 -0.7293  2.5359
15527TIP3    H267997   0.283   1.629   1.901  1.1696  1.6843  0.2950
15528TIP3   OH267998   3.320   5.178  14.760  0.7051  0.1785 -0.5355
15528TIP3    H167999   3.381   5.157  14.831  0.0515  0.3713  0.0888
15528TIP3    H268000   3.249   5.225  14.802  0.1448  0.0076 -1.2695
15529TIP3   OH268001   2.154   5.290   0.534 -0.3506  0.6755 -0.1043
15529TIP3    H168002   2.148   5.383   0.553  1.4450  0.8565 -0.3303
15529TIP3    H268003   2.206   5.284   0.454 -0.2633 -0.5299  0.0199
15530TIP3   OH268004   1.529   1.894   5.842  0.1146  0.0349 -0.2241
15530TIP3    H168005   1.531   1.926   5.932  0.1431 -1.8423  0.4894
15530TIP3    H268006   1.551   1.970   5.789 -2.2726  1.8297  1.1564
15531TIP3   OH268007   2.586   5.243  14.666  0.2650 -0.0361 -0.1800
15531TIP3    H168008   2.575   5.338  14.675  0.4816 -0.1087  1.0162
15531TIP3    H268009   2.523   5.218  14.599 -0.5150  0.8226  0.2118
15532TIP3   OH268010   1.503   6.684   1.074 -0.4158  0.2930  0.1793
15532TIP3    H168011   1.494   6.724   0.988 -0.6333  0.5604  0.3285
15532TIP3    H268012   1.521   6.591   1.055 -0.6608  0.3110 -0.1497
15533TIP3   OH268013   6.093   2.572   5.341 -0.3075 -0.3547 -0.6348
15533TIP3    H168014   6.160   2.541   5.403 -0.1976  0.1873 -0.4705
15533TIP3    H268015   6.126   2.547   5.255  0.0329 -0.2293 -0.5427
15534TIP3   OH268016   5.109   2.853  15.282  0.2314 -0.3598 -0.5523
15534TIP3    H168017   5.129   2.945  15.301 -2.3552 -0.1689  1.9352
15534TIP3    H268018   5.186   2.805  15.312  0.8414  0.8546 -0.0810
15535TIP3   OH268019   4.189   5.637   1.798 -0.0874  0.5401 -0.5657
15535TIP3    H168020   4.097   5.620   1.776 -1.9103  0.7623  5.1948
15535TIP3    H268021   4.187   5.719   1.847  2.9497 -0.0951  0.8442
15536TIP3   OH268022   2.545   5.493  13.896 -0.5734 -0.0870  0.0786
15536TIP3    H168023   2.617   5.430  13.890 -1.4406 -1.5810  2.9425
15536TIP3    H268024   2.509   5.497  13.808  1.6805 -0.9394 -0.9502
15537TIP3   OH268025   1.158   1.008  15.427  0.0523 -0.3517 -0.1756
15537TIP3    H168026   1.187   0.948  15.359 -0.9104 -1.2399  0.1795
15537TIP3    H268027   1.240   1.043  15.463  0.5898 -0.1982 -1.4652
15538TIP3   OH268028   0.581   1.124   5.643  0.6394  0.0313  0.0757
15538TIP3    H168029   0.541   1.049   5.600  0.5982  0.4124 -0.5685
15538TIP3    H268030   0.638   1.086   5.709  0.9844 -0.5930 -0.5617
15539TIP3   OH268031   6.062   5.606   2.788 -0.3497 -0.0002 -0.1204
15539TIP3    H168032   6.007   5.610   2.866  0.5045  0.5315  0.4722
15539TIP3    H268033   6.023   5.537   2.735 -2.8692  1.7382 -0.7329
15540TIP3   OH268034   5.332   0.094  10.965 -0.6953 -0.7837 -0.0162
15540TIP3    H168035   5.252   0.097  10.913 -1.0193  0.3141  0.5114
15540TIP3    H268036   5.380   0.173  10.940  0.3400 -1.5427 -0.4908
15541TIP3   OH268037   1.552   1.514  10.988  0.1712 -0.1009 -0.0954
15541TIP3    H168038   1.486   1.579  11.013  0.4746  0.1617  0.0259
15541TIP3    H268039   1.544   1.508  10.892 -1.2134 -1.3466  0.0541
15542TIP3   OH268040   1.979   4.499  13.534  0.1726 -0.2360 -0.5342
15542TIP3    H168041   1.960   4.562  13.465  0.4728 -0.2269 -0.6112
15542TIP3    H268042   1.960   4.414  13.495 -2.8854 -0.0930  0.4213
15543TIP3   OH268043   6.605   1.287   2.515  0.6056  0.1674 -0.0690
15543TIP3    H168044   6.535   1.289   2.580 -0.3690 -1.4814 -1.0155
15543TIP3    H268045   6.655   1.368   2.531 -1.7981  1.6803  0.3138
15544TIP3   OH268046   5.450   0.024   4.329  0.0907 -0.2166 -0.0963
15544TIP3    H168047   5.427   0.104   4.282 -0.4781 -0.6929 -0.6467
15544TIP3    H268048   5.462  -0.042   4.261 -1.0640 -0.9984  0.4266
15545TIP3   OH268049   4.043   5.161   0.556  0.3902 -0.3827 -0.4936
15545TIP3    H168050   3.989   5.108   0.497  0.1232 -0.3178 -0.3110
15545TIP3    H268051   3.982   5.190   0.624  1.0259 -1.8609  0.7759
15546TIP3   OH268052   3.168   0.534   6.418 -0.1622 -0.1386 -0.1265
15546TIP3    H168053   3.234   0.503   6.356  0.6848  0.5306  0.3997
15546TIP3    H268054   3.176   0.476   6.493 -0.8057 -0.6100 -0.4172
15547TIP3   OH268055   4.987   2.280   4.109 -0.0472 -0.8650  0.3766
15547TIP3    H168056   5.016   2.335   4.036 -1.3890 -0.0051  0.4543
15547TIP3    H268057   4.898   2.255   4.085 -1.4801  1.4245  2.7401
15548TIP3   OH268058   3.359   2.949  16.507 -0.7944 -0.3438 -0.2356
15548TIP3    H168059   3.297   2.907  16.566 -1.5120 -0.3988 -1.0018
15548TIP3    H268060   3.374   2.885  16.437  0.5754 -0.5500  0.2168
15549TIP3   OH268061   5.984   2.098   0.396  0.4058 -0.2464 -0.1980
15549TIP3    H168062   5.902   2.070   0.437  1.5300 -2.5026  0.6558
15549TIP3    H268063   6.039   2.126   0.470  0.9683 -0.2562 -0.6085
15550TIP3   OH268064   4.218   1.574   3.330  0.6868  0.7240 -0.0610
15550TIP3    H168065   4.254   1.561   3.242 -1.2125  1.4742 -1.0032
15550TIP3    H268066   4.239   1.493   3.377 -0.0418 -0.5875 -1.8689
15551TIP3   OH268067   4.311   5.439  13.680  0.5564 -0.2237  0.0527
15551TIP3    H168068   4.244   5.444  13.749  1.2588  1.7300  0.6853
15551TIP3    H268069   4.376   5.378  13.715 -0.9619 -2.3917 -0.7070
15552TIP3   OH268070   6.656   6.058  15.263 -0.2035 -0.3316 -0.6109
15552TIP3    H168071   6.636   5.965  15.271 -1.5176 -0.1204 -1.2709
15552TIP3    H268072   6.699   6.066  15.178  1.1375 -0.5019  0.0111
15553TIP3   OH268073   5.294   0.680   3.231  0.0989  0.8031  0.1666
15553TIP3    H168074   5.256   0.708   3.148  0.6959  0.3720 -0.2661
15553TIP3    H268075   5.386   0.661   3.209 -0.4701 -2.4822  0.1432
15554TIP3   OH268076   6.668   4.798   0.604 -0.1989 -0.4089  0.0464
15554TIP3    H168077   6.602   4.809   0.536 -0.7522  1.0004  0.7621
15554TIP3    H268078   6.689   4.887   0.632  3.2395 -0.6472 -1.2395
15555TIP3   OH268079   2.833   2.361   0.985 -0.4863  0.1145 -0.5668
15555TIP3    H168080   2.738   2.357   0.996 -0.6352 -1.4298 -2.0626
15555TIP3    H268081   2.865   2.279   1.025  0.0166 -0.2119 -1.5983
15556TIP3   OH268082   3.584   4.298   1.000 -0.6787 -0.0047 -0.5811
15556TIP3    H168083   3.536   4.365   1.048 -0.0447 -0.2942  0.4807
15556TIP3    H268084   3.675   4.308   1.028 -0.5447 -1.1812 -0.5425
15557TIP3   OH268085   5.707   1.870  15.302  0.7468 -0.0329 -0.1024
15557TIP3    H168086   5.783   1.886  15.357 -1.2340  0.9795  2.6003
15557TIP3    H268087   5.651   1.813  15.355 -1.5433  1.4594 -0.7572
15558TIP3   OH268088   3.741   4.676   2.184  0.0523 -0.1065  0.2788
15558TIP3    H168089   3.823   4.655   2.231  1.2321  1.6138 -0.9106
15558TIP3    H268090   3.691   4.728   2.247  1.3031  1.5595 -0.0424
15559TIP3   OH268091   5.184   2.986   2.015 -0.0724  0.5620  0.3519
15559TIP3    H168092   5.192   3.065   2.069 -2.5452  1.1942 -0.0568
15559TIP3    H268093   5.228   3.010   1.933  0.7293  0.8574  0.8568
15560TIP3   OH268094   2.657   0.556   3.990 -0.0815 -0.8599  0.3880
15560TIP3    H168095   2.737   0.590   4.030 -1.3702  0.9388  1.6541
15560TIP3    H268096   2.685   0.517   3.908  2.2279 -1.3675  1.3462
15561TIP3   OH268097   6.289   0.796   3.107 -0.0162 -0.3595  0.3033
15561TIP3    H168098   6.222   0.733   3.081  0.0189 -0.5509  0.6699
15561TIP3    H268099   6.240   0.875   3.130 -0.1210 -0.5066  0.5937
15562TIP3   OH268100   4.149   1.594   4.668  0.5925 -0.2688  0.3223
15562TIP3    H168101   4.136   1.689   4.673 -0.9348 -0.3262 -1.5789
15562TIP3    H268102   4.244   1.583   4.665  0.7751  1.3167 -0.7895
15563TIP3   OH268103   6.664   3.863   3.581  0.2880  0.0767 -0.2174
15563TIP3    H168104   6.607   3.804   3.531 -1.0055 -0.0843  1.3599
15563TIP3    H268105   6.670   3.823   3.667 -0.3730  2.0573  0.8112
15564TIP3   OH268106   2.653   5.411   6.662 -0.3895  0.1923  0.1902
15564TIP3    H168107   2.617   5.402   6.573 -1.7892  1.6526  0.5734
15564TIP3    H268108   2.617   5.336   6.709  2.1527 -1.9042 -0.9530
15565TIP3   OH268109   0.167   6.163  12.629  0.5018  0.2915 -0.1756
15565TIP3    H168110   0.220   6.109  12.688  0.3828 -1.4914 -1.6296
15565TIP3    H268111   0.099   6.200  12.685  0.4333 -1.2889  0.8447
15566TIP3   OH268112   6.484   0.174  13.059 -0.0647 -0.3239 -0.6930
15566TIP3    H168113   6.566   0.203  13.018  0.0320 -1.3983 -1.3117
15566TIP3    H268114   6.431   0.142  12.986 -0.8383 -0.0916 -0.2346
15567TIP3   OH268115   6.494   2.545   5.492  0.3906  0.4109  0.4442
15567TIP3    H168116   6.475   2.613   5.427  2.2472  1.1702  0.6381
15567TIP3    H268117   6.409   2.526   5.532 -0.8599 -0.2161 -2.2748
15568TIP3   OH268118   2.438   2.800  10.830 -0.0900 -0.1584  0.1174
15568TIP3    H168119   2.458   2.890  10.857 -0.9364 -0.0848  0.5473
15568TIP3    H268120   2.513   2.748  10.860 -0.6419  0.0438  1.9986
15569TIP3   OH268121   5.583   3.526  17.221 -0.4959 -1.0542  0.3761
15569TIP3    H168122   5.494   3.560  17.221 -0.0078  0.2684 -0.1355
15569TIP3    H268123   5.577   3.443  17.174 -1.3133 -0.6051 -0.3249
15570TIP3   OH268124   1.447   5.772  12.598 -0.1247 -0.0797 -0.1734
15570TIP3    H168125   1.458   5.740  12.508  0.1670  0.0426 -0.1826
15570TIP3    H268126   1.499   5.711  12.650  1.1963  0.8964 -0.2868
15571TIP3   OH268127   1.176   6.550   4.374  0.2692 -0.0235 -0.3982
15571TIP3    H168128   1.164   6.455   4.382 -0.7207  0.2528  2.7134
15571TIP3    H268129   1.266   6.560   4.343  0.6838 -1.9692  0.0107
15572TIP3   OH268130   6.611   1.108  17.011 -0.2758  0.4118  0.1581
15572TIP3    H168131   6.586   1.199  17.025 -0.8404 -0.0746  2.7673
15572TIP3    H268132   6.528   1.060  17.009 -0.1703  0.0843 -3.4094
15573TIP3   OH268133   2.504   5.722   5.100 -0.3331 -0.1625  0.3022
15573TIP3    H168134   2.484   5.792   5.038 -0.1324 -2.7164 -2.9047
15573TIP3    H268135   2.595   5.699   5.082 -0.3277 -1.1341  1.4304
15574TIP3   OH268136   6.071   6.161   5.490  0.1107 -0.0494  0.1274
15574TIP3    H168137   5.987   6.150   5.534  0.8980 -1.0850  1.4292
15574TIP3    H268138   6.128   6.198   5.557  1.0880 -0.7782 -0.2859
15575TIP3   OH268139   3.506   1.019   4.461  0.0678  0.1375 -0.5610
15575TIP3    H168140   3.425   1.055   4.497 -1.2258 -0.6797 -2.5079
15575TIP3    H268141   3.479   0.942   4.411  2.0677 -0.2036 -1.2332
15576TIP3   OH268142   4.787   1.609   6.153  0.3399 -0.2475 -0.0825
15576TIP3    H168143   4.697   1.623   6.127  0.3077 -0.6549 -0.1915
15576TIP3    H268144   4.833   1.587   6.072  0.4702 -0.3546  0.0186
15577TIP3   OH268145   5.798   6.747  11.050  0.8046 -0.1190 -0.3902
15577TIP3    H168146   5.808   6.686  10.977  0.2109 -1.6228  0.7293
15577TIP3    H268147   5.722   6.714  11.098  0.6401  1.3613  0.4082
15578TIP3   OH268148   0.095   2.848   2.439  0.1075  0.1990 -0.0104
15578TIP3    H168149   0.163   2.878   2.379  1.8270 -1.2329  1.1247
15578TIP3    H268150   0.116   2.891   2.522 -1.4682  1.1326 -0.0495
15579TIP3   OH268151   1.605   2.215  15.535 -0.2636 -0.1525 -0.0529
15579TIP3    H168152   1.643   2.285  15.482  0.5316  0.2118  0.9613
15579TIP3    H268153   1.635   2.234  15.624  0.2628 -1.9812  0.1941
15580TIP3   OH268154   0.362   4.122  12.566  0.2826  0.3491 -0.3655
15580TIP3    H168155   0.443   4.109  12.517  2.3007  1.6653  2.3837
15580TIP3    H268156   0.360   4.050  12.629 -1.5307 -0.5128 -1.3184
15581TIP3   OH268157   2.696   3.723   3.746  0.2314  0.1577 -0.3780
15581TIP3    H168158   2.660   3.760   3.665 -0.0561 -1.5041 -1.0455
15581TIP3    H268159   2.784   3.762   3.753  0.3798  0.0929 -1.6494
15582TIP3   OH268160   5.477   1.028  15.672  0.2794 -0.1360  0.4647
15582TIP3    H168161   5.497   1.072  15.590  1.7586 -1.4990  0.0428
15582TIP3    H268162   5.424   0.952  15.647  1.2416 -0.8977  0.6523
15583TIP3   OH268163   2.336   5.787  13.123 -0.2030 -0.4605 -0.0194
15583TIP3    H168164   2.285   5.787  13.204  1.4827  0.1035  1.0939
15583TIP3    H268165   2.419   5.745  13.147  1.3572  2.0097 -0.7225
15584TIP3   OH268166   1.153   5.856   3.906  0.2240  0.0008 -0.4058
15584TIP3    H168167   1.127   5.926   3.965  0.1239 -1.3040  1.1593
15584TIP3    H268168   1.162   5.899   3.821 -2.3817  1.4190 -0.0705
15585TIP3   OH268169   3.681   5.005  15.518 -0.5162 -0.5028 -0.4378
15585TIP3    H168170   3.776   4.994  15.523 -0.4556  0.3925  0.5858
15585TIP3    H268171   3.650   5.000  15.608 -1.2927  0.4292 -0.6266
15586TIP3   OH268172   6.337   0.731   2.598 -0.5712  0.5549  0.5662
15586TIP3    H168173   6.369   0.774   2.678 -0.0911  1.6350 -0.1832
15586TIP3    H268174   6.295   0.802   2.548  0.9547  0.3703 -1.0821
15587TIP3   OH268175   0.889   2.462   1.859 -0.1609 -0.2506 -0.5121
15587TIP3    H168176   0.904   2.556   1.843 -1.3510  0.3414  1.4762
15587TIP3    H268177   0.967   2.432   1.904 -1.1184  0.7189  2.0149
15588TIP3   OH268178   3.444   6.563  10.423  0.2156  0.2183  0.2121
15588TIP3    H168179   3.370   6.572  10.483  1.2692  0.6643  1.4770
15588TIP3    H268180   3.514   6.525  10.476  0.8722 -0.3186 -0.9977
15589TIP3   OH268181   1.712   0.252  16.082 -0.0270  0.0767  0.0974
15589TIP3    H168182   1.691   0.264  15.989 -0.7459  0.9009  0.3581
15589TIP3    H268183   1.771   0.177  16.083 -2.8948 -2.3843 -0.6739
15590TIP3   OH268184   5.123   5.559   6.345 -0.1727 -0.0654  0.0940
15590TIP3    H168185   5.103   5.641   6.389  1.0162 -0.3964  1.3257
15590TIP3    H268186   5.072   5.493   6.392  1.5171 -0.5025  1.4432
15591TIP3   OH268187   5.281   0.613  14.282  0.1926  0.7073 -0.9071
15591TIP3    H168188   5.363   0.594  14.236 -0.6899 -2.0435 -1.5341
15591TIP3    H268189   5.294   0.578  14.370 -0.3254  0.1288 -1.0503
15592TIP3   OH268190   3.232   6.503  13.975  0.0329  0.6896 -0.4137
15592TIP3    H168191   3.306   6.541  13.926  1.5049 -0.2674  0.9820
15592TIP3    H268192   3.207   6.426  13.924  1.2009  0.0051  0.0172
15593TIP3   OH268193   3.246   2.640   1.502 -0.3578 -0.0305  0.2650
15593TIP3    H168194   3.201   2.560   1.475 -1.4834  0.6120  0.1829
15593TIP3    H268195   3.313   2.654   1.435 -2.6578  1.1755 -1.9467
15594TIP3   OH268196   3.158   2.249  12.963 -0.1454  0.6466 -0.4802
15594TIP3    H168197   3.062   2.242  12.968 -0.1053 -0.5182 -1.0225
15594TIP3    H268198   3.184   2.180  12.902  1.2265 -0.6621  1.4524
15595TIP3   OH268199   5.812   0.799  16.014  0.1681 -0.1532  0.2078
15595TIP3    H168200   5.821   0.885  16.053 -1.8277 -0.2635  1.0203
15595TIP3    H268201   5.740   0.808  15.952 -1.1405 -1.5721  1.4433
15596TIP3   OH268202   3.751   3.585  13.684  0.2137  0.0682  0.4200
15596TIP3    H168203   3.733   3.563  13.775  1.2926 -1.3957  0.3144
15596TIP3    H268204   3.771   3.679  13.685  0.5224 -0.0042  1.7348
15597TIP3   OH268205   3.085   1.139  13.058  0.0746  0.5415  0.2583
15597TIP3    H168206   3.106   1.179  13.142 -0.6325 -0.1541  0.7876
15597TIP3    H268207   2.991   1.120  13.063  0.2872 -0.7391 -0.1408
15598TIP3   OH268208   4.874   2.598  16.239  0.3342  0.1449  0.9673
15598TIP3    H168209   4.942   2.531  16.239 -0.2840 -0.5066  0.0144
15598TIP3    H268210   4.816   2.574  16.311  0.7698  0.3397  1.3805
15599TIP3   OH268211   1.789   2.538   3.615 -0.2329 -1.3660  0.3837
15599TIP3    H168212   1.841   2.464   3.648 -0.2927 -1.4893  0.2024
15599TIP3    H268213   1.841   2.572   3.542 -0.0240 -0.9942  0.7015
15600TIP3   OH268214   0.109   4.505  15.810 -0.2385  0.1856  0.4371
15600TIP3    H168215   0.119   4.427  15.755  3.0149 -0.1354  1.2278
15600TIP3    H268216   0.084   4.471  15.896 -1.4145  0.2941  0.1435
15601TIP3   OH268217   1.067   2.654   1.431  0.5928 -0.3424 -0.2856
15601TIP3    H168218   0.982   2.611   1.418 -0.0545  0.9000 -0.2386
15601TIP3    H268219   1.114   2.596   1.491 -0.8530 -0.2248  0.9970
15602TIP3   OH268220   5.016   4.733   4.306  0.0437 -0.7840 -0.3441
15602TIP3    H168221   5.082   4.768   4.367 -0.8458 -0.6627  0.5740
15602TIP3    H268222   4.971   4.810   4.273  0.1649 -0.8845 -0.7469
15603TIP3   OH268223   2.878   5.599   4.134  0.8565 -0.3012  0.0116
15603TIP3    H168224   2.874   5.654   4.212 -1.3985  2.3015 -1.7588
15603TIP3    H268225   2.893   5.511   4.167  1.5395  0.8929  3.2259
15604TIP3   OH268226   3.529   5.147   1.753  0.0578  0.0779  0.6226
15604TIP3    H168227   3.519   5.138   1.658 -0.7548  1.9473  0.4887
15604TIP3    H268228   3.466   5.086   1.789 -1.2075  0.9176 -0.0911
15605TIP3   OH268229   4.695   2.656  13.416  0.3722 -1.2254  0.4521
15605TIP3    H168230   4.709   2.748  13.395  1.0137 -1.9701 -2.9359
15605TIP3    H268231   4.630   2.658  13.487  0.7153  1.7943  0.8341
15606TIP3   OH268232   1.327   1.741   3.162  0.3134 -0.2038  0.5547
15606TIP3    H168233   1.394   1.724   3.228  1.6390 -0.6036 -0.8537
15606TIP3    H268234   1.348   1.683   3.090 -0.3934  1.0511 -0.7232
15607TIP3   OH268235   5.962   1.845   5.755 -0.4236  0.2013  0.1256
15607TIP3    H168236   5.960   1.853   5.851  0.4549  0.7264  0.1141
15607TIP3    H268237   5.880   1.801   5.733 -0.2668 -0.6844  1.1937
15608TIP3   OH268238   6.528   4.561  11.236 -0.1266 -0.1115 -0.1871
15608TIP3    H168239   6.526   4.523  11.324 -1.4623  0.2288 -0.0567
15608TIP3    H268240   6.522   4.486  11.177 -2.1649 -0.2092  0.0622
15609TIP3   OH268241   0.235   0.257   2.470 -0.4668 -0.9036 -0.2955
15609TIP3    H168242   0.322   0.267   2.432 -0.1710  2.3003  0.9157
15609TIP3    H268243   0.176   0.296   2.406 -0.5321  0.2329  0.4334
15610TIP3   OH268244   6.040   6.279  13.810  0.3132 -0.1959  0.4337
15610TIP3    H168245   6.110   6.274  13.745  0.5841  1.3448  0.5846
15610TIP3    H268246   6.077   6.238  13.888  1.0683  0.6020  0.5096
15611TIP3   OH268247   0.028   2.380   2.008  0.2685 -0.0017  0.0836
15611TIP3    H168248   0.098   2.407   2.067  0.1973  0.0228  0.1565
15611TIP3    H268249   0.044   2.432   1.928  0.8016 -0.5747 -0.1938
15612TIP3   OH268250   3.578   6.132  10.949 -0.3429  0.4615  0.6774
15612TIP3    H168251   3.585   6.068  10.878 -0.3288  1.4860 -0.2727
15612TIP3    H268252   3.602   6.083  11.027  2.8923  0.0651 -0.4076
15613TIP3   OH268253   0.438   2.688  11.369  0.2713  0.2882 -0.0075
15613TIP3    H168254   0.412   2.779  11.383 -1.1407 -0.2505  1.2457
15613TIP3    H268255   0.486   2.689  11.287 -1.1082  1.9197 -0.8667
15614TIP3   OH268256   1.473   1.957   2.188 -0.0061 -0.0715  0.0820
15614TIP3    H168257   1.475   2.052   2.178 -0.0713 -0.1234 -0.4182
15614TIP3    H268258   1.396   1.941   2.242  0.4698  0.2182  0.8821
15615TIP3   OH268259   3.334   0.961   0.125  0.2298 -0.5587  0.5290
15615TIP3    H168260   3.384   1.015   0.064  2.7151 -1.2151  1.8294
15615TIP3    H268261   3.289   1.024   0.181 -0.9026  0.0531 -1.0005
15616TIP3   OH268262   1.589   1.861  12.109  0.5975 -0.1397 -0.3372
15616TIP3    H168263   1.510   1.913  12.091  0.3800  0.4263  1.9368
15616TIP3    H268264   1.604   1.873  12.202  1.7607 -2.5213 -0.1520
15617TIP3   OH268265   6.125   2.855  14.223  0.1136  0.0088 -0.1601
15617TIP3    H168266   6.184   2.900  14.283  0.8920  1.0085 -1.6181
15617TIP3    H268267   6.062   2.922  14.196  1.1519  0.2623 -2.1900
15618TIP3   OH268268   6.035   2.405   3.467 -0.1174 -0.5053  0.7181
15618TIP3    H168269   5.943   2.429   3.472  0.2317  0.7836  1.2586
15618TIP3    H268270   6.073   2.466   3.404  0.4566 -0.7401  0.8238
15619TIP3   OH268271   2.287   2.020  17.083 -0.3253  0.4203 -0.4608
15619TIP3    H168272   2.310   2.113  17.096  1.8044 -0.0905 -0.2349
15619TIP3    H268273   2.362   1.983  17.037 -0.6546 -1.4412  0.4119
15620TIP3   OH268274   1.255   3.572   2.275  0.1922  0.1282  0.0106
15620TIP3    H168275   1.336   3.619   2.297 -0.5964  1.8456 -0.6334
15620TIP3    H268276   1.187   3.639   2.276 -1.2624 -1.2972  0.5949
15621TIP3   OH268277   5.969   5.082   2.451  0.2857 -0.1166 -0.3099
15621TIP3    H168278   6.033   5.082   2.380  0.9152  0.4961  0.2345
15621TIP3    H268279   6.007   5.024   2.517 -1.4838 -2.7610 -1.4479
15622TIP3   OH268280   3.018   5.214   1.191 -0.7827 -0.3491 -0.0515
15622TIP3    H168281   2.932   5.174   1.203 -1.4986  0.9678 -0.5767
15622TIP3    H268282   3.046   5.239   1.279 -1.4854  0.2808  0.0027
15623TIP3   OH268283   0.193   5.076   0.167  0.0307 -0.0372  0.2645
15623TIP3    H168284   0.206   5.028   0.249  1.3678  0.0953  0.1547
15623TIP3    H268285   0.275   5.123   0.154 -0.7969  1.3010 -0.2809
15624TIP3   OH268286   5.301   5.839   2.944 -0.0645 -0.4023  0.5442
15624TIP3    H168287   5.325   5.764   2.998 -0.6356 -0.9094  0.1085
15624TIP3    H268288   5.243   5.803   2.877 -0.3519  0.4264  0.3298
15625TIP3   OH268289   2.483   6.010   0.561 -0.1371  0.6637  0.0800
15625TIP3    H168290   2.514   5.964   0.640 -2.3822  0.4551  0.9026
15625TIP3    H268291   2.456   5.940   0.502  0.6787  0.8509 -0.5367
15626TIP3   OH268292   5.261   6.126   6.151 -0.8120 -0.1852  0.1479
15626TIP3    H168293   5.335   6.147   6.207 -0.1662  1.4132 -1.2404
15626TIP3    H268294   5.186   6.121   6.211  0.0754  0.0939  1.3159
15627TIP3   OH268295   4.740   2.382  10.691 -0.3938 -0.2148 -0.1060
15627TIP3    H168296   4.780   2.296  10.697 -1.8494 -1.0116 -1.2476
15627TIP3    H268297   4.785   2.424  10.617 -0.7775 -0.6263 -0.5824
15628TIP3   OH268298   5.277   1.063   0.004  0.7514 -0.2231 -0.0359
15628TIP3    H168299   5.291   0.990  -0.057 -0.7033  1.6546 -2.8826
15628TIP3    H268300   5.209   1.116  -0.038  0.2435  1.6906  2.9147
15629TIP3   OH268301   5.569   1.118   1.871 -0.1218 -0.2722  0.1700
15629TIP3    H168302   5.586   1.133   1.778  0.1057  0.8948  0.3786
15629TIP3    H268303   5.507   1.187   1.895 -0.4105 -0.7478  0.8175
15630TIP3   OH268304   3.651   1.748  11.029  0.1327 -0.1398 -0.3024
15630TIP3    H168305   3.575   1.767  10.973  0.2728 -0.3675 -0.5708
15630TIP3    H268306   3.727   1.770  10.975  0.2615  2.1543  0.6926
15631TIP3   OH268307   6.398   2.643   4.392 -0.4403 -0.5061  0.5375
15631TIP3    H168308   6.436   2.715   4.442  0.9847 -0.8597  0.0009
15631TIP3    H268309   6.383   2.574   4.456 -1.1279 -0.0156  0.9212
15632TIP3   OH268310   4.767   1.889  16.829  0.3197 -0.2143  0.6194
15632TIP3    H168311   4.683   1.846  16.810 -0.6603  1.8467 -0.0207
15632TIP3    H268312   4.750   1.943  16.906  0.9054  0.5572  0.2274
15633TIP3   OH268313   1.512   5.783  14.176  0.2653 -0.3160 -0.1873
15633TIP3    H168314   1.426   5.771  14.136 -0.0181 -0.8720  0.5603
15633TIP3    H268315   1.542   5.868  14.143 -0.7683  0.1002 -0.1063
15634TIP3   OH268316   0.622   3.448   5.205  0.1487  0.3092  0.2946
15634TIP3    H168317   0.648   3.498   5.283  1.3465 -0.3898  0.3710
15634TIP3    H268318   0.586   3.367   5.240 -3.4698  1.7211  0.2448
15635TIP3   OH268319   0.997   0.664  15.429 -0.0976 -0.1088  0.0284
15635TIP3    H168320   0.984   0.719  15.506  2.6304  0.3709  0.2434
15635TIP3    H268321   1.027   0.724  15.361  0.7259 -0.9784 -0.4057
15636TIP3   OH268322   3.566   5.367   5.481 -0.1663  0.0145 -0.0068
15636TIP3    H168323   3.494   5.350   5.421 -0.6240  0.7872  0.3021
15636TIP3    H268324   3.559   5.461   5.500 -0.3122 -0.2908  1.5911
15637TIP3   OH268325   5.019   5.823  11.418 -0.1873 -0.4207 -0.1359
15637TIP3    H168326   5.007   5.785  11.332 -2.1997 -3.1164  1.2038
15637TIP3    H268327   4.932   5.851  11.445  0.6928  2.1703  0.3560
15638TIP3   OH268328   6.188   5.226  14.979 -0.2126  0.4865  0.2543
15638TIP3    H168329   6.202   5.136  14.948 -0.3194  0.1398  1.1941
15638TIP3    H268330   6.110   5.220  15.035 -0.1041  1.1333  0.4751
15639TIP3   OH268331   4.808   4.874  11.284 -0.2215  0.3205 -0.3478
15639TIP3    H168332   4.796   4.838  11.196 -0.3498 -1.3424  0.3273
15639TIP3    H268333   4.750   4.822  11.340 -0.9622  2.0575  0.5800
15640TIP3   OH268334   1.482   3.985  12.729  0.9532 -0.0906  0.4655
15640TIP3    H168335   1.474   3.986  12.634 -0.7064  0.1665  0.5693
15640TIP3    H268336   1.576   3.991  12.746  1.3128 -0.6554 -1.1487
15641TIP3   OH268337   6.369   1.457   0.744 -0.5928  0.4865 -0.0261
15641TIP3    H168338   6.331   1.541   0.720 -0.1786  1.1764  1.6357
15641TIP3    H268339   6.442   1.478   0.801  0.1516 -0.9722 -0.3768
15642TIP3   OH268340   4.546   3.747  14.415 -0.0791  0.2841  0.6129
15642TIP3    H168341   4.504   3.668  14.381 -0.9918  0.0089  2.2661
15642TIP3    H268342   4.578   3.722  14.502  2.4421  0.8600 -0.0520
15643TIP3   OH268343   3.406   1.327   4.746 -0.1046  0.3424  0.4106
15643TIP3    H168344   3.447   1.393   4.801 -0.1399  0.5887  0.1445
15643TIP3    H268345   3.455   1.329   4.664 -1.2328  1.3142 -0.2600
15644TIP3   OH268346   4.509   5.918   3.155 -0.6947  0.4735  0.3893
15644TIP3    H168347   4.469   5.832   3.141  0.2935  0.1941 -0.9079
15644TIP3    H268348   4.596   5.899   3.190 -1.7429  1.0866  3.6676
15645TIP3   OH268349   6.360   2.072   6.347  0.5798 -0.4426  0.6375
15645TIP3    H168350   6.443   2.029   6.368  0.1031 -1.4874  0.4696
15645TIP3    H268351   6.360   2.152   6.399  1.3852 -0.7799  1.1729
15646TIP3   OH268352   1.865   4.692  13.735 -0.1451 -0.1031  0.6474
15646TIP3    H168353   1.804   4.631  13.775 -0.2702 -0.7106 -0.4233
15646TIP3    H268354   1.920   4.637  13.678  0.4463  0.6305  0.4897
15647TIP3   OH268355   4.247   0.151  11.741  0.2087 -0.1877  0.4432
15647TIP3    H168356   4.262   0.219  11.675 -3.6018  0.8827  0.4413
15647TIP3    H268357   4.320   0.160  11.801  2.0298  1.0716 -1.7901
15648TIP3   OH268358   1.132   5.786  11.206  0.4250  0.3069 -0.0383
15648TIP3    H168359   1.038   5.803  11.195  0.1418  0.8437  2.5035
15648TIP3    H268360   1.156   5.730  11.132 -1.7579  0.6246 -1.0567
15649TIP3   OH268361   3.000   4.050   2.905  0.0915 -0.0795 -0.1630
15649TIP3    H168362   2.939   4.104   2.955  1.7438  0.9054  0.9247
15649TIP3    H268363   2.978   4.066   2.814  0.7421  2.8715  0.0826
15650TIP3   OH268364   3.516   5.832   4.557 -0.2842 -0.1716 -0.2498
15650TIP3    H168365   3.562   5.835   4.473 -1.1366  1.2292 -0.7039
15650TIP3    H268366   3.584   5.812   4.621  0.7052  0.4414 -1.0748
15651TIP3   OH268367   5.021   2.124  10.387 -0.1591  0.2404 -0.3285
15651TIP3    H168368   5.032   2.030  10.400  2.5403  0.7660  2.2082
15651TIP3    H268369   4.963   2.153  10.457 -0.1350  0.6219 -0.4588
15652TIP3   OH268370   6.710   1.386   1.618  0.7062  0.3706  0.8352
15652TIP3    H168371   6.646   1.456   1.603 -1.4774 -1.7069 -0.3381
15652TIP3    H268372   6.763   1.385   1.538 -1.3923 -1.2876 -0.6522
15653TIP3   OH268373   1.731   4.536   3.920  0.0761  0.1516 -0.4572
15653TIP3    H168374   1.822   4.564   3.910 -0.2855  1.6781  0.1638
15653TIP3    H268375   1.684   4.580   3.850 -0.0445 -1.5593 -1.5079
15654TIP3   OH268376   5.478   4.285   1.285  0.3241 -0.7970  0.0010
15654TIP3    H168377   5.441   4.275   1.197  1.0386 -0.3955 -0.3527
15654TIP3    H268378   5.414   4.243   1.343  0.4389 -2.1924 -0.8381
15655TIP3   OH268379   0.522   3.081  11.849  0.5606  0.5247 -0.2179
15655TIP3    H168380   0.567   2.997  11.844  0.3291  0.3959 -0.1218
15655TIP3    H268381   0.549   3.118  11.933 -1.9108 -0.9257  1.3176
15656TIP3   OH268382   1.242   2.554   5.776  0.6860 -0.7041 -0.0621
15656TIP3    H168383   1.240   2.649   5.768 -2.9285 -0.4452  1.8068
15656TIP3    H268384   1.292   2.537   5.856 -1.2026 -0.0365  1.3413
15657TIP3   OH268385   0.231   0.332  12.867  0.0581  0.5167 -0.0020
15657TIP3    H168386   0.141   0.357  12.845  0.1263  0.6383 -0.1481
15657TIP3    H268387   0.278   0.333  12.783  0.9791  3.6849  0.4193
15658TIP3   OH268388   4.594   0.475   4.211  0.1695  0.0459  0.5068
15658TIP3    H168389   4.511   0.433   4.235 -0.8009  0.9575 -1.0825
15658TIP3    H268390   4.585   0.565   4.244  0.3762  0.2384  0.0427
15659TIP3   OH268391   2.108   1.850  11.453  0.2021  0.6673  0.4630
15659TIP3    H168392   2.024   1.891  11.434 -1.2755 -1.7498  1.2007
15659TIP3    H268393   2.099   1.818  11.543  1.4711 -0.6146  0.1696
15660TIP3   OH268394   5.735   2.769   1.078 -0.1184 -0.4651 -0.0231
15660TIP3    H168395   5.820   2.735   1.053  0.7594  1.6309 -0.0928
15660TIP3    H268396   5.754   2.831   1.149 -1.7924 -1.2284  1.1609
15661TIP3   OH268397   3.814   6.296  11.042  0.0704  0.3730  0.2162
15661TIP3    H168398   3.850   6.379  11.009 -0.3781  0.2681 -0.5582
15661TIP3    H268399   3.882   6.231  11.022 -0.2861  0.2725 -0.7269
15662TIP3   OH268400   4.501   1.808  12.244  0.4729  0.0714 -0.2081
15662TIP3    H168401   4.519   1.803  12.338  0.3573  0.7627 -0.1405
15662TIP3    H268402   4.434   1.877  12.236  1.2345  0.7541 -0.8930
15663TIP3   OH268403   3.486   3.809   3.461  0.6199  0.4807 -0.1044
15663TIP3    H168404   3.429   3.821   3.384 -0.4144  1.3854  0.7748
15663TIP3    H268405   3.437   3.748   3.517  1.1862  0.1405  0.0195
15664TIP3   OH268406   3.836   1.235  14.631  0.2138 -0.3132  0.7121
15664TIP3    H168407   3.871   1.243  14.720 -0.5338 -0.0599  0.9847
15664TIP3    H268408   3.774   1.307  14.622  1.2322  0.4851 -0.4838
15665TIP3   OH268409   5.485   5.313  15.101 -0.4884  0.1616 -0.1816
15665TIP3    H168410   5.544   5.258  15.153  0.5364  1.6354  0.3183
15665TIP3    H268411   5.443   5.370  15.166 -0.9426  0.4798 -0.7495
15666TIP3   OH268412   3.679   6.506   5.663 -0.0398  0.0969  0.0178
15666TIP3    H168413   3.744   6.564   5.702  0.1750 -0.6184  0.7521
15666TIP3    H268414   3.617   6.489   5.734  0.0154 -0.7296 -0.1234
15667TIP3   OH268415   0.477   4.202  15.140  0.0238 -0.0543  0.0612
15667TIP3    H168416   0.439   4.290  15.137  0.6660  0.2180 -0.1229
15667TIP3    H268417   0.486   4.176  15.048 -3.5158 -1.8046  0.0186
15668TIP3   OH268418   5.625   1.738   4.824 -0.7320 -0.0164 -0.2523
15668TIP3    H168419   5.608   1.646   4.807  1.0340 -0.0270 -2.4427
15668TIP3    H268420   5.552   1.767   4.879 -2.1098 -2.3293 -0.7560
15669TIP3   OH268421   0.067   3.024  15.003  0.3371  0.6434 -0.1892
15669TIP3    H168422  -0.003   2.975  14.960 -1.3570  2.7976 -0.0749
15669TIP3    H268423   0.148   2.991  14.963 -0.6726 -2.0459 -0.2075
15670TIP3   OH268424   3.629   2.787   4.342  0.1559  0.8419  0.5808
15670TIP3    H168425   3.596   2.827   4.423  0.6464  1.3835  0.5216
15670TIP3    H268426   3.717   2.822   4.332  1.0882 -1.2423  1.1781
15671TIP3   OH268427   5.289   2.762   4.224  0.1511  0.5364  0.3804
15671TIP3    H168428   5.298   2.783   4.317  2.7227  1.5292 -0.0084
15671TIP3    H268429   5.363   2.705   4.206  0.0270  0.8472 -1.2051
15672TIP3   OH268430   1.162   1.006  11.182  0.2237 -1.0912  0.2696
15672TIP3    H168431   1.161   1.066  11.107  1.4803  1.0909  1.8790
15672TIP3    H268432   1.252   1.009  11.214  0.0742 -3.1117  1.0238
15673TIP3   OH268433   0.284   2.562  13.907 -0.4865  0.0648 -0.2138
15673TIP3    H168434   0.328   2.631  13.856  2.5313  0.2938  2.4231
15673TIP3    H268435   0.214   2.608  13.953 -1.4862  0.3742 -1.9493
15674TIP3   OH268436   2.430   5.857  17.185 -0.7352  0.6141 -0.2265
15674TIP3    H168437   2.501   5.848  17.121  0.3327  3.0331  0.5242
15674TIP3    H268438   2.474   5.859  17.270 -1.8980  0.2089  0.4023
15675TIP3   OH268439   4.886   2.709   0.919 -0.2257  0.6412  0.4042
15675TIP3    H168440   4.808   2.701   0.864 -0.0411  0.7228  0.1279
15675TIP3    H268441   4.928   2.624   0.914 -0.2063  0.6500  0.4161
15676TIP3   OH268442   3.809   0.965  15.308  0.5356  0.0897  0.0542
15676TIP3    H168443   3.717   0.947  15.291  0.4003  1.1256 -0.3661
15676TIP3    H268444   3.856   0.892  15.268 -0.0419  0.1450 -0.7377
15677TIP3   OH268445   2.903   4.461   5.388  0.5098 -0.9375  0.4316
15677TIP3    H168446   2.827   4.414   5.352 -0.5365  0.3974  0.8048
15677TIP3    H268447   2.865   4.527   5.446  1.9254  0.1420  0.1994
15678TIP3   OH268448   1.945   0.536  10.282 -0.2607  0.7339 -0.3020
15678TIP3    H168449   1.942   0.443  10.304 -0.2498  0.4234 -1.5627
15678TIP3    H268450   1.927   0.581  10.365 -1.2678 -0.4029  0.1150
15679TIP3   OH268451   1.911   3.784  15.577  0.1093  0.2307  0.7868
15679TIP3    H168452   1.983   3.837  15.610 -0.4643  0.3738  1.8591
15679TIP3    H268453   1.880   3.735  15.654 -1.0309  0.2868  0.3793
15680TIP3   OH268454   1.919   3.528  12.299 -0.4127 -0.3102  0.2633
15680TIP3    H168455   1.950   3.618  12.294 -1.8587  0.1895 -0.3255
15680TIP3    H268456   1.824   3.535  12.293 -0.7442 -1.7166  2.5022
15681TIP3   OH268457   4.098   5.773   4.778  0.3903 -0.1557  0.0623
15681TIP3    H168458   4.045   5.700   4.813  0.0839  1.1313  2.5062
15681TIP3    H268459   4.034   5.834   4.743  0.5904 -0.6398 -1.1742
15682TIP3   OH268460   3.602   3.343  12.458 -0.1716  0.0676  0.5673
15682TIP3    H168461   3.586   3.255  12.492 -0.7033  0.5629  1.6577
15682TIP3    H268462   3.556   3.345  12.373  0.9289 -1.0947 -0.0877
15683TIP3   OH268463   3.571   4.141   2.707  0.3466 -0.4248 -0.1434
15683TIP3    H168464   3.596   4.186   2.626 -1.0502 -1.3408 -1.1322
15683TIP3    H268465   3.651   4.138   2.759  0.7725  2.0854 -0.5463
15684TIP3   OH268466   0.218   2.418   4.908  0.5826  0.3746  0.0105
15684TIP3    H168467   0.170   2.337   4.891 -0.9788  1.3602 -0.4622
15684TIP3    H268468   0.278   2.427   4.834  0.2310  0.0495 -0.3161
15685TIP3   OH268469   4.227   0.198  16.681  0.2229 -0.2176 -0.5047
15685TIP3    H168470   4.223   0.158  16.768  1.4297 -0.8205 -0.7084
15685TIP3    H268471   4.187   0.133  16.624 -0.0088 -0.0851 -0.4958
15686TIP3   OH268472   2.303   2.790  13.984 -0.9645 -0.1946 -0.0691
15686TIP3    H168473   2.226   2.837  13.953 -1.4321  0.5018  1.9584
15686TIP3    H268474   2.369   2.858  13.998  1.1034 -1.0209 -4.3040
15687TIP3   OH268475   3.901   4.796   2.005  0.1704 -0.0687 -0.7086
15687TIP3    H168476   3.890   4.730   1.937 -0.9135 -0.4299 -0.1905
15687TIP3    H268477   3.845   4.768   2.077 -1.1026  1.9031 -0.8448
15688TIP3   OH268478   4.128   4.051  16.123 -0.0884 -0.2507  0.4224
15688TIP3    H168479   4.144   3.962  16.092 -0.8521 -0.1673 -0.2510
15688TIP3    H268480   4.068   4.041  16.197  0.0322 -0.3145  0.5116
15689TIP3   OH268481   4.278   4.634  13.800 -0.4123  0.3472 -0.3519
15689TIP3    H168482   4.227   4.684  13.737  1.6100  0.5223 -1.9306
15689TIP3    H268483   4.241   4.658  13.885 -2.5051  0.9166 -1.3577
15690TIP3   OH268484   3.387   2.440  16.559 -0.0599 -0.2619 -0.6561
15690TIP3    H168485   3.323   2.402  16.499  0.7769 -1.7018 -0.6779
15690TIP3    H268486   3.472   2.415  16.523  0.5509  1.6281 -0.6385
15691TIP3   OH268487   5.146   3.548  14.507  0.1690  0.1860 -0.2183
15691TIP3    H168488   5.155   3.535  14.412 -0.4399  1.4431 -0.4727
15691TIP3    H268489   5.235   3.566  14.537  0.3191  0.1007 -0.6038
15692TIP3   OH268490   4.209   2.284   6.677 -0.4420 -1.1839 -0.3216
15692TIP3    H168491   4.146   2.355   6.665 -0.7426 -0.7073  2.9534
15692TIP3    H268492   4.294   2.326   6.665 -0.6551 -0.5587  0.2838
15693TIP3   OH268493   2.617   5.441   3.668  0.0951  0.3474  0.1137
15693TIP3    H168494   2.596   5.534   3.675  1.7555  0.9851 -2.2967
15693TIP3    H268495   2.662   5.420   3.750 -0.9293  1.4702  0.9823
15694TIP3   OH268496   5.130   4.727  15.437  0.3729  0.2180 -0.2078
15694TIP3    H168497   5.123   4.781  15.358  0.5187  0.7778  0.1646
15694TIP3    H268498   5.074   4.651  15.418  0.1046  0.5336 -0.6975
15695TIP3   OH268499   6.523   3.472   0.079 -0.2013 -0.3693 -0.8894
15695TIP3    H168500   6.496   3.385   0.048  1.8585 -0.5899 -2.2070
15695TIP3    H268501   6.515   3.528   0.003 -3.9540  1.3311  0.5064
15696TIP3   OH268502   1.216   3.001  16.896  0.3057  0.1170  0.5421
15696TIP3    H168503   1.245   2.916  16.865 -0.2646  0.0275  0.2261
15696TIP3    H268504   1.237   3.061  16.825  0.5473  0.2075  0.6900
15697TIP3   OH268505   1.017   6.711   4.541  0.3327  0.3716 -0.0851
15697TIP3    H168506   1.069   6.676   4.469 -0.7192  0.6654 -1.0036
15697TIP3    H268507   0.930   6.673   4.530 -0.3141  1.7420 -0.0002
15698TIP3   OH268508   6.523   2.388   5.889 -0.5149 -0.3631  0.1673
15698TIP3    H168509   6.546   2.481   5.884  1.8733 -0.7646  1.9086
15698TIP3    H268510   6.572   2.348   5.817 -0.7614 -0.4124  0.0266
15699TIP3   OH268511   5.602   5.785  11.292 -0.0885  0.1132 -0.0247
15699TIP3    H168512   5.518   5.812  11.254 -0.6900 -0.0856  1.1163
15699TIP3    H268513   5.601   5.690  11.287 -0.6626  0.0158  1.4324
15700TIP3   OH268514   1.408   5.141   0.916 -0.1444 -0.3748 -0.4187
15700TIP3    H168515   1.454   5.060   0.939  1.6363  0.0136 -2.3493
15700TIP3    H268516   1.477   5.207   0.911 -0.8014  0.2006 -3.6182
15701TIP3   OH268517   2.177   5.994   4.718 -0.1921  0.2384 -0.3102
15701TIP3    H168518   2.228   5.985   4.638  0.4856 -1.8651  0.3148
15701TIP3    H268519   2.091   5.958   4.696 -0.0727 -0.1448 -0.1449
15702TIP3   OH268520   0.370   6.094   0.213 -0.0280  0.0883 -0.1113
15702TIP3    H168521   0.374   5.998   0.206 -1.3769  0.0236 -0.2543
15702TIP3    H268522   0.390   6.125   0.125  1.9739  0.0337  0.2696
15703TIP3   OH268523   4.211   2.086  11.869 -0.2247  0.0590  0.7096
15703TIP3    H168524   4.224   2.172  11.908 -0.4896 -0.3354  1.7179
15703TIP3    H268525   4.297   2.045  11.871 -0.3040 -0.0988  1.2642
15704TIP3   OH268526   5.470   2.057   4.235  0.1044 -0.2966  0.2670
15704TIP3    H168527   5.459   2.052   4.330 -1.5155 -2.6731  0.0575
15704TIP3    H268528   5.387   2.094   4.203  0.1496 -0.6417 -0.2658
15705TIP3   OH268529   2.723   3.554   4.358 -0.2641 -0.2037 -0.1107
15705TIP3    H168530   2.643   3.558   4.307 -1.7628 -0.5577  2.0664
15705TIP3    H268531   2.751   3.645   4.368 -0.3339 -0.0882 -0.9374
15706TIP3   OH268532   2.857   4.675   3.834  0.3261 -0.3462 -0.2201
15706TIP3    H168533   2.844   4.735   3.907 -1.0046 -1.5539  0.5987
15706TIP3    H268534   2.936   4.627   3.856  1.7713  1.4686 -1.1945
15707TIP3   OH268535   4.969   5.999   0.956 -0.4760  0.1480  0.4059
15707TIP3    H168536   5.003   5.932   1.015 -0.4663 -0.6724 -0.5026
15707TIP3    H268537   5.044   6.023   0.901 -1.1371 -1.2240 -1.1982
15708TIP3   OH268538   0.466   1.438  14.696 -0.6360  0.3069 -0.1001
15708TIP3    H168539   0.555   1.459  14.722 -0.8901 -0.5752  1.6128
15708TIP3    H268540   0.437   1.514  14.645  0.8514  0.8889 -0.1112
15709TIP3   OH268541   0.441   6.640  12.946 -0.1077 -0.1859  0.1939
15709TIP3    H168542   0.394   6.723  12.934  0.3249 -0.0014 -0.2720
15709TIP3    H268543   0.410   6.584  12.875  0.0034 -0.2385  0.1865
15710TIP3   OH268544   5.176   5.994   3.261 -0.3353 -0.0775 -0.0785
15710TIP3    H168545   5.110   5.972   3.195 -0.6378  1.2161 -0.2355
15710TIP3    H268546   5.257   6.007   3.210 -0.6396  1.2401 -0.2739
15711TIP3   OH268547   6.193   1.051   3.523  0.2082  1.2454 -0.5530
15711TIP3    H168548   6.287   1.045   3.539  0.0638 -2.0811 -0.2214
15711TIP3    H268549   6.162   1.121   3.581  2.0839  0.4894  1.4818
15712TIP3   OH268550   3.240   1.108   1.851  0.0803  0.0917  0.2153
15712TIP3    H168551   3.315   1.136   1.903  1.1516 -0.6350 -0.8793
15712TIP3    H268552   3.222   1.182   1.793  0.0254  0.2084  0.3784
15713TIP3   OH268553   2.473   3.846  13.764  0.3393  0.3567  0.0620
15713TIP3    H168554   2.517   3.797  13.695  2.6002  0.7066  1.1506
15713TIP3    H268555   2.380   3.834  13.747  0.7910 -2.4781 -0.9796
15714TIP3   OH268556   1.730   4.506  15.630 -0.4028 -0.0727 -0.0596
15714TIP3    H168557   1.669   4.432  15.636  0.0563 -0.3759  1.2396
15714TIP3    H268558   1.674   4.584  15.633 -0.8891 -0.3343 -1.4391
15715TIP3   OH268559   4.028   3.906   0.478 -0.2386 -0.9716  0.2876
15715TIP3    H168560   3.979   3.912   0.560 -0.2530  1.6253  0.1681
15715TIP3    H268561   4.117   3.882   0.504 -0.3601 -0.6607  1.0032
15716TIP3   OH268562   5.574   4.564  13.342 -0.5101 -0.4527 -0.6741
15716TIP3    H168563   5.511   4.503  13.304 -0.2081 -0.7926 -0.6341
15716TIP3    H268564   5.610   4.517  13.417 -1.7508  0.5414  0.6094
15717TIP3   OH268565   4.907   2.428  11.340  0.0406 -0.3903  0.1793
15717TIP3    H168566   4.853   2.506  11.327 -0.0643 -0.3995  0.5490
15717TIP3    H268567   4.945   2.410  11.254  2.6259  1.9230  0.6806
15718TIP3   OH268568   1.083   1.297  14.808  0.2657 -0.1208  0.1501
15718TIP3    H168569   1.089   1.266  14.718 -0.2894 -3.6931  1.1951
15718TIP3    H268570   1.172   1.290  14.842  0.5727  1.6906 -0.1814
15719TIP3   OH268571   5.141   1.669  14.897 -0.8088 -0.3089  0.9974
15719TIP3    H168572   5.050   1.669  14.868 -0.9638  1.4110  1.3863
15719TIP3    H268573   5.187   1.616  14.831 -1.4727  1.8416 -1.3333
15720TIP3   OH268574   4.677   2.906  16.507  0.2834  0.1954  0.6228
15720TIP3    H168575   4.623   2.984  16.502 -0.6351 -0.4988 -1.0432
15720TIP3    H268576   4.747   2.921  16.443  0.9190  0.2530  1.3268
15721TIP3   OH268577   2.687   5.024  14.852  0.4975  0.1572 -0.1488
15721TIP3    H168578   2.706   5.094  14.915 -1.7036 -0.0669  0.8355
15721TIP3    H268579   2.630   5.065  14.787 -1.5477 -0.8778  0.9195
15722TIP3   OH268580   2.217   3.142  13.915  0.6181 -0.4878  0.4372
15722TIP3    H168581   2.153   3.188  13.860  0.5214  0.3651  1.2287
15722TIP3    H268582   2.170   3.124  13.996  1.2068 -0.3644  0.8127
15723TIP3   OH268583   2.581   5.139   0.678 -0.5907 -0.2100  0.1179
15723TIP3    H168584   2.644   5.206   0.705 -1.2369  0.5540 -0.2176
15723TIP3    H268585   2.499   5.166   0.720 -0.5179 -1.6704  1.2677
15724TIP3   OH268586   5.549   4.060   1.066 -0.0208 -0.1830  0.4330
15724TIP3    H168587   5.500   4.125   1.016  1.2636  0.3013 -0.2271
15724TIP3    H268588   5.604   4.111   1.126  0.8209 -0.6573  0.0768
15725TIP3   OH268589   0.392   0.920  14.760  0.1756 -0.1742 -0.0104
15725TIP3    H168590   0.331   0.944  14.829  1.5050 -0.2907  1.2588
15725TIP3    H268591   0.414   1.002  14.717 -0.5075 -0.0713 -0.1589
15726TIP3   OH268592   3.825   3.541  11.797 -0.0388  0.2923  0.0956
15726TIP3    H168593   3.843   3.608  11.863  0.3650  1.0893 -0.8044
15726TIP3    H268594   3.877   3.466  11.824 -0.2279  0.4592  0.9328
15727TIP3   OH268595   1.245   0.219   1.387  0.3615  0.0692 -0.1887
15727TIP3    H168596   1.287   0.304   1.398  0.7509 -0.0134 -0.9994
15727TIP3    H268597   1.241   0.183   1.476 -2.0602  1.9696  0.6195
15728TIP3   OH268598   3.700   2.534   6.540 -0.5422  0.1630 -0.3409
15728TIP3    H168599   3.729   2.528   6.449 -3.0966  3.4857 -1.5601
15728TIP3    H268600   3.622   2.478   6.544 -1.6562  1.6128 -0.8718
15729TIP3   OH268601   3.438   6.156  11.874  0.2480  0.3018  0.4442
15729TIP3    H168602   3.524   6.178  11.911 -0.7263  1.0711  2.3621
15729TIP3    H268603   3.408   6.237  11.834 -0.6688  0.8207  2.0832
15730TIP3   OH268604   3.920   2.194  10.457  1.0789 -0.0607  0.4201
15730TIP3    H168605   3.850   2.258  10.469 -0.5055 -1.5145 -0.5825
15730TIP3    H268606   3.945   2.202  10.365  0.8967 -0.8289  0.2973
15731TIP3   OH268607   4.688   3.222  14.791 -0.1033  0.5119 -0.5581
15731TIP3    H168608   4.742   3.144  14.799 -0.0652  0.7089  2.0351
15731TIP3    H268609   4.720   3.266  14.713  2.5229 -0.1105  0.0698
15732TIP3   OH268610   1.003   3.196   2.373  0.4018 -0.0715  0.2039
15732TIP3    H168611   0.989   3.105   2.402  1.2255 -0.0038  0.8603
15732TIP3    H268612   1.069   3.230   2.433  0.8029  0.6701 -0.6345
15733TIP3   OH268613   3.742   6.591   5.388 -0.5460  0.5250  0.0121
15733TIP3    H168614   3.775   6.562   5.473  2.8733 -1.1854 -1.7030
15733TIP3    H268615   3.668   6.532   5.371 -1.2734  0.8831  1.7436
15734TIP3   OH268616   4.562   1.962   3.441 -0.2695 -0.0574 -0.3486
15734TIP3    H168617   4.559   2.028   3.372 -2.0779  1.3100  0.9165
15734TIP3    H268618   4.478   1.916   3.433  0.5618 -1.5745 -0.5936
15735TIP3   OH268619   2.520   2.805  12.111  0.0487  0.4690 -0.1962
15735TIP3    H168620   2.547   2.760  12.191 -0.9157  0.5402  0.1760
15735TIP3    H268621   2.586   2.779  12.046  0.5589  0.0196  0.4886
15736TIP3   OH268622   0.279   6.590   1.111 -0.1897  0.4254  0.1580
15736TIP3    H168623   0.219   6.592   1.036  1.6134 -0.5852 -1.4098
15736TIP3    H268624   0.259   6.507   1.154  0.6366 -0.3633 -0.9075
15737TIP3   OH268625   0.335   0.970  13.834  0.0347 -0.5923 -0.0375
15737TIP3    H168626   0.407   0.977  13.897 -0.5154 -1.0605  0.6687
15737TIP3    H268627   0.265   0.925  13.883 -1.3000  1.1880 -0.1928
15738TIP3   OH268628   5.017   2.542   0.342 -0.6004 -0.3793  0.0099
15738TIP3    H168629   5.112   2.529   0.337 -0.3363  1.4665 -1.0246
15738TIP3    H268630   4.980   2.459   0.312  0.7862 -0.1185 -2.8223
15739TIP3   OH268631   0.104   1.239  14.729  0.5419 -0.0579  0.2626
15739TIP3    H168632   0.126   1.269  14.641 -1.2123  0.6467  0.0255
15739TIP3    H268633   0.099   1.144  14.722 -1.7021  0.0882 -0.9810
15740TIP3   OH268634   2.968   0.386   2.490  0.0336 -0.8576  0.2354
15740TIP3    H168635   3.041   0.327   2.509  0.4746 -0.0623  1.0746
15740TIP3    H268636   2.984   0.416   2.401  1.2180 -0.0412  0.6968
15741TIP3   OH268637   1.213   5.850  14.946  0.3131  0.0112  0.6828
15741TIP3    H168638   1.237   5.774  14.998 -1.8939 -0.3406  1.2825
15741TIP3    H268639   1.117   5.849  14.944  0.2746  0.7121 -2.3864
15742TIP3   OH268640   3.786   2.850   1.381 -0.2110 -0.0046 -0.0850
15742TIP3    H168641   3.836   2.771   1.361  0.5886  0.5741 -0.4271
15742TIP3    H268642   3.721   2.822   1.445  1.2558 -0.5625  1.2152
15743TIP3   OH268643   3.508   3.779   2.442 -0.1242  0.3939 -0.4758
15743TIP3    H168644   3.590   3.772   2.393 -1.0940 -1.6935 -1.9964
15743TIP3    H268645   3.440   3.768   2.375 -1.6210  0.9933  0.8870
15744TIP3   OH268646   0.565   2.006   5.781 -0.3962  0.1429  0.2242
15744TIP3    H168647   0.614   2.088   5.775  0.4640 -0.4274 -1.0754
15744TIP3    H268648   0.545   1.997   5.874  2.3129  0.2678  0.9096
15745TIP3   OH268649   6.220   5.068   0.403  0.3122  0.1005  0.3112
15745TIP3    H168650   6.220   5.163   0.396  2.1286  0.1370  0.1443
15745TIP3    H268651   6.312   5.043   0.389  0.0617 -1.5956  1.3585
15746TIP3   OH268652   5.068   2.739  16.731  0.5038  0.3598  0.1921
15746TIP3    H168653   4.990   2.793  16.735  0.1889 -0.0539 -0.2326
15746TIP3    H268654   5.055   2.683  16.654 -0.4586 -2.2497  2.1302
15747TIP3   OH268655   3.845   6.454  14.716  0.0977 -0.3007  0.4918
15747TIP3    H168656   3.837   6.445  14.621 -0.9386  0.2388  0.5120
15747TIP3    H268657   3.839   6.549  14.732  1.2002 -0.3006  1.0254
15748TIP3   OH268658   3.888   2.371   0.081  0.3152  0.4860  0.3654
15748TIP3    H168659   3.887   2.410  -0.006 -1.5809  0.1990  0.2016
15748TIP3    H268660   3.942   2.292   0.072  0.4098  0.6407 -0.4587
15749TIP3   OH268661   2.367   4.799  15.813 -0.4918  0.0035  0.0800
15749TIP3    H168662   2.339   4.766  15.727 -1.2534 -0.4823  0.4991
15749TIP3    H268663   2.308   4.872  15.830 -1.7350 -1.1589  1.0647
15750TIP3   OH268664   0.090   5.721   0.340  0.5250 -0.0810  0.3891
15750TIP3    H168665   0.019   5.730   0.404  0.5573 -1.9198  0.7347
15750TIP3    H268666   0.045   5.704   0.257  0.5226  1.0494  0.1417
15751TIP3   OH268667   4.336   2.859  11.079  0.2451 -0.5618  0.0989
15751TIP3    H168668   4.251   2.830  11.047 -0.1793  0.0160  0.6533
15751TIP3    H268669   4.340   2.952  11.057 -0.0536 -0.1493  1.6412
15752TIP3   OH268670   1.624   0.958  11.811  0.1021 -0.6734  0.4821
15752TIP3    H168671   1.540   1.002  11.800 -0.3195 -1.2718  1.2408
15752TIP3    H268672   1.602   0.867  11.832  0.9554 -1.0826 -0.3505
15753TIP3   OH268673   4.275   4.427  16.607 -0.1263  0.6258 -0.1359
15753TIP3    H168674   4.344   4.375  16.565  0.4285  1.7052 -0.6046
15753TIP3    H268675   4.278   4.511  16.561 -1.5307  0.8121  0.0804
15754TIP3   OH268676   5.879   4.100  14.753  0.6216  0.4859 -0.2782
15754TIP3    H168677   5.948   4.106  14.687  1.4144  2.7751  0.6343
15754TIP3    H268678   5.925   4.075  14.834 -0.0534 -0.5312 -0.1911
15755TIP3   OH268679   3.624   3.397   2.836  0.5979  0.2288  0.0624
15755TIP3    H168680   3.690   3.328   2.827  1.0768  0.7672 -0.8144
15755TIP3    H268681   3.654   3.450   2.910  1.1815  0.4838 -0.3446
15756TIP3   OH268682   3.253   0.971   3.052  0.1458 -0.1191  0.1089
15756TIP3    H168683   3.333   1.023   3.063 -0.3466  0.6318  0.1552
15756TIP3    H268684   3.255   0.944   2.960  0.3039  0.1336  0.0384
15757TIP3   OH268685   3.446   3.192   6.259 -0.4036 -0.3476 -0.2177
15757TIP3    H168686   3.494   3.118   6.295 -1.9142 -0.9980  0.5240
15757TIP3    H268687   3.382   3.215   6.326  0.4410  2.0905 -0.1251
15758TIP3   OH268688   3.478   5.765   3.688 -0.7043 -0.5340  0.5018
15758TIP3    H168689   3.451   5.742   3.777 -1.0613 -0.9195  0.2990
15758TIP3    H268690   3.458   5.687   3.636  1.8102 -1.3068  0.5166
15759TIP3   OH268691   4.728   0.460  13.852 -0.3902 -0.1462 -0.1332
15759TIP3    H168692   4.800   0.438  13.911 -0.7748 -0.5765  0.1805
15759TIP3    H268693   4.729   0.556  13.847 -0.2089 -0.1210  0.3780
15760TIP3   OH268694   5.479   6.241   2.469 -0.2510 -0.3814 -0.1363
15760TIP3    H168695   5.564   6.258   2.428 -1.1118  0.7791 -1.5369
15760TIP3    H268696   5.467   6.314   2.530 -0.5695 -0.1204 -0.5062
15761TIP3   OH268697   4.332   4.221  16.184 -0.0230  0.0591  0.4059
15761TIP3    H168698   4.256   4.165  16.167  0.4644 -0.7766  0.9674
15761TIP3    H268699   4.406   4.174  16.147  0.3047  0.6408  0.3059
15762TIP3   OH268700   5.193   2.776  12.999  0.3264 -0.1729  0.4680
15762TIP3    H168701   5.253   2.758  13.071  0.5839  1.9037  0.8215
15762TIP3    H268702   5.220   2.861  12.965 -0.0443 -0.9115 -1.8608
15763TIP3   OH268703   4.545   4.781  13.019  0.0525  0.1028 -0.5636
15763TIP3    H168704   4.587   4.737  13.093  1.6781  1.1756 -0.7975
15763TIP3    H268705   4.579   4.737  12.942 -0.8160 -0.3137 -0.7231
15764TIP3   OH268706   2.469   2.640  15.506  0.2614 -0.5332  0.1673
15764TIP3    H168707   2.390   2.608  15.462  0.1322 -0.1678  0.1311
15764TIP3    H268708   2.437   2.685  15.584  0.4694 -0.8571  0.4421
15765TIP3   OH268709   6.600   3.799  15.616 -0.4045  0.4730 -0.4596
15765TIP3    H168710   6.544   3.759  15.549  2.1205 -1.1715 -1.7356
15765TIP3    H268711   6.688   3.768  15.596  0.6013  0.4327  3.2595
15766TIP3   OH268712   4.524   0.286   3.508  0.8463  0.0604 -0.0250
15766TIP3    H168713   4.448   0.330   3.470  0.4257 -0.3362  0.3484
15766TIP3    H268714   4.497   0.194   3.518  1.1184  0.0534  0.7591
15767TIP3   OH268715   6.431   0.606  13.366 -0.3390 -0.3705 -0.2333
15767TIP3    H168716   6.343   0.637  13.389 -1.2302 -1.4085 -2.0124
15767TIP3    H268717   6.443   0.527  13.419 -0.9683 -0.8513 -0.7854
15768TIP3   OH268718   0.248   2.983   4.211 -0.2082  0.0683  0.3600
15768TIP3    H168719   0.271   3.004   4.302 -2.1375  1.7765  0.5213
15768TIP3    H268720   0.282   3.057   4.161 -1.1876  0.3014  0.0194
15769TIP3   OH268721   5.294   0.938  16.267  0.4026  1.1673  0.3461
15769TIP3    H168722   5.345   0.858  16.253 -2.1071 -0.8045  1.6306
15769TIP3    H268723   5.252   0.955  16.183  1.2553  1.3890 -0.0443
15770TIP3   OH268724   4.495   0.269   4.569  0.1369  0.2594 -0.4864
15770TIP3    H168725   4.441   0.309   4.501  0.4206  0.3574 -0.6555
15770TIP3    H268726   4.564   0.222   4.521 -0.2970 -0.5938 -0.2995
15771TIP3   OH268727   2.269   5.068  11.457 -0.5284 -0.9290  0.1078
15771TIP3    H168728   2.184   5.112  11.449 -0.1768 -0.3639 -0.5524
15771TIP3    H268729   2.299   5.057  11.367  0.6627 -0.0231  0.3778
15772TIP3   OH268730   6.166   3.094   2.907  0.0593 -0.0210  0.4246
15772TIP3    H168731   6.097   3.040   2.869  0.0417  1.5773 -2.0520
15772TIP3    H268732   6.120   3.169   2.944  0.2406 -0.6717  2.0431
15773TIP3   OH268733   2.333   0.656   1.888 -0.1630  0.1009 -0.6146
15773TIP3    H168734   2.397   0.710   1.935 -0.1942 -0.4530  0.0743
15773TIP3    H268735   2.319   0.702   1.805 -0.0192  1.0354 -0.1314
15774TIP3   OH268736   0.337   1.425  12.741  0.9319  0.4965 -0.2771
15774TIP3    H168737   0.347   1.481  12.818  0.5945 -0.3968  0.4275
15774TIP3    H268738   0.272   1.470  12.687  0.7418  0.8338  0.2305
15775TIP3   OH268739   6.117   0.080  11.602 -0.6748  0.6844  0.3592
15775TIP3    H168740   6.196   0.097  11.551 -1.0973  3.8324  0.5548
15775TIP3    H268741   6.045   0.108  11.545 -1.4369  0.4912  1.2018
15776TIP3   OH268742   5.565   0.666   5.027 -0.5342 -0.0883 -0.0685
15776TIP3    H168743   5.659   0.670   5.049 -0.5030  0.1088 -0.2359
15776TIP3    H268744   5.521   0.677   5.111 -0.4098  0.1321 -0.0315
15777TIP3   OH268745   2.433   3.898  11.662  0.0567  0.3802  0.3421
15777TIP3    H168746   2.527   3.883  11.669  0.2446  1.1638 -0.2448
15777TIP3    H268747   2.393   3.826  11.710  0.9738  0.5661  1.4169
15778TIP3   OH268748   0.878   1.738   0.859  0.7002  0.4655 -0.2366
15778TIP3    H168749   0.845   1.751   0.771 -0.4147 -0.0017  0.0959
15778TIP3    H268750   0.930   1.657   0.854 -0.3095 -0.2057 -0.2400
15779TIP3   OH268751   5.575   2.717   4.825 -0.3490 -0.0712  0.7956
15779TIP3    H168752   5.575   2.811   4.809 -1.5020 -0.0612  0.7223
15779TIP3    H268753   5.484   2.690   4.806  0.0387 -1.2407  0.5115
15780TIP3   OH268754   2.109   5.162   1.168  1.2139  0.1246  0.3294
15780TIP3    H168755   2.045   5.217   1.214 -1.3948 -0.1329 -2.6566
15780TIP3    H268756   2.058   5.087   1.137  3.1390 -0.5383 -1.4535
15781TIP3   OH268757   2.029   6.274  14.022 -0.2671  0.3552  0.0290
15781TIP3    H168758   2.099   6.254  14.084  1.4095 -2.5672 -2.5595
15781TIP3    H268759   1.954   6.225  14.055 -0.1059  0.7399  0.9988
15782TIP3   OH268760   1.207   5.053  16.777 -0.1442 -0.7119 -0.0888
15782TIP3    H168761   1.145   5.118  16.809  1.3083 -0.4465  2.4293
15782TIP3    H268762   1.170   4.969  16.803 -1.4793 -0.9307 -2.3917
15783TIP3   OH268763   1.602   3.193   1.573 -0.2343 -0.5140  0.0468
15783TIP3    H168764   1.510   3.175   1.555  0.1742 -2.7357 -0.1087
15783TIP3    H268765   1.641   3.209   1.487 -0.3742 -0.0235  0.0710
15784TIP3   OH268766   4.097   1.350   1.474  0.7307  0.2679 -0.1605
15784TIP3    H168767   4.067   1.425   1.525  0.5850  0.4953 -0.5724
15784TIP3    H268768   4.089   1.378   1.382 -0.6981 -0.7289 -0.3850
15785TIP3   OH268769   0.416   1.805   1.239  0.0034  1.0073  0.2271
15785TIP3    H168770   0.471   1.876   1.273 -0.3546  1.3711  0.0545
15785TIP3    H268771   0.455   1.784   1.154 -0.3842  1.5730 -0.0982
15786TIP3   OH268772   4.407   5.434   4.712  0.7028  0.2992  0.3071
15786TIP3    H168773   4.429   5.416   4.621  1.7178  0.7698  0.4528
15786TIP3    H268774   4.314   5.412   4.719  0.9289 -0.9778 -0.5122
15787TIP3   OH268775   4.636   2.396   2.675  0.2782  0.1887  0.1613
15787TIP3    H168776   4.644   2.364   2.765 -1.7500  0.6103  0.5528
15787TIP3    H268777   4.702   2.465   2.668  1.5781 -0.9607  0.7736
15788TIP3   OH268778   5.920   1.760  12.180 -0.0667  0.0676  0.0428
15788TIP3    H168779   5.836   1.803  12.166 -0.7245 -0.8283  1.0614
15788TIP3    H268780   5.932   1.705  12.102  0.4053  1.4505 -0.8944
15789TIP3   OH268781   2.316   3.262   5.682 -0.2336  0.2781  0.3319
15789TIP3    H168782   2.248   3.235   5.743 -0.0975 -1.5094 -0.2529
15789TIP3    H268783   2.356   3.339   5.722 -0.1876 -0.8027  2.4547
15790TIP3   OH268784   2.014   3.785  15.887  0.1357 -1.0206  0.0457
15790TIP3    H168785   1.971   3.700  15.893 -1.7751 -0.0527  0.8816
15790TIP3    H268786   2.037   3.807  15.977 -1.4907  0.3288  0.1752
15791TIP3   OH268787   3.244   3.927   1.519 -0.0047 -0.1898 -0.0403
15791TIP3    H168788   3.314   3.861   1.518  0.9032  0.7198 -2.3534
15791TIP3    H268789   3.176   3.890   1.464  0.7047  0.9316 -1.7440
15792TIP3   OH268790   3.130   2.252   1.735 -0.2726 -0.2753  0.7253
15792TIP3    H168791   3.159   2.223   1.649 -1.0247  0.5446  0.1808
15792TIP3    H268792   3.118   2.171   1.785  1.4107 -0.7070  0.4949
15793TIP3   OH268793   1.995   0.536  14.162 -0.5568 -0.1349  0.0330
15793TIP3    H168794   1.990   0.588  14.243 -2.7509  0.5578 -0.4804
15793TIP3    H268795   1.956   0.452  14.186  0.8769 -0.7571  0.2563
15794TIP3   OH268796   1.094   2.218   0.743  0.1374  0.1497 -0.0752
15794TIP3    H168797   1.111   2.287   0.808 -1.2165 -0.7518  1.2947
15794TIP3    H268798   1.102   2.136   0.792  0.9712 -0.6631 -1.5044
15795TIP3   OH268799   2.156   3.811   3.867 -0.0221  0.4380  0.3054
15795TIP3    H168800   2.164   3.904   3.846  0.2079  0.2028 -0.7255
15795TIP3    H268801   2.155   3.807   3.962  2.4423  1.3130  0.4415
15796TIP3   OH268802   5.982   6.272   0.568 -0.0193  0.1725  0.0500
15796TIP3    H168803   6.049   6.259   0.501 -1.6496 -1.0187 -1.4301
15796TIP3    H268804   6.023   6.242   0.649  1.8227  1.1687 -0.4664
15797TIP3   OH268805   1.600   1.756   2.031  0.2455 -0.0788 -0.2977
15797TIP3    H168806   1.659   1.818   1.988  2.0856 -1.3798  0.2127
15797TIP3    H268807   1.564   1.804   2.105  3.4128 -0.1245  1.4937
15798TIP3   OH268808   1.983   4.163   5.934  0.0009 -0.0455  0.0445
15798TIP3    H168809   1.932   4.242   5.920 -1.6879 -0.9597  0.7522
15798TIP3    H268810   1.932   4.113   5.997 -0.0219 -2.6157 -1.8634
15799TIP3   OH268811   2.065   1.285  11.924  0.1539  0.3679  0.3659
15799TIP3    H168812   2.117   1.212  11.958 -0.8476 -0.1839  0.7576
15799TIP3    H268813   1.987   1.244  11.887 -0.0463  1.1827 -0.1370
15800TIP3   OH268814   3.949   3.840   5.229 -0.5491 -0.1192 -0.7330
15800TIP3    H168815   3.923   3.872   5.143 -1.1553 -1.2656 -0.9942
15800TIP3    H268816   4.041   3.866   5.238 -0.2809 -0.5777 -2.0094
15801TIP3   OH268817   2.187   6.222   1.946 -0.3075  0.2281  0.3587
15801TIP3    H168818   2.115   6.197   1.888 -0.2392 -1.5117  0.9827
15801TIP3    H268819   2.263   6.230   1.889 -1.1380  3.3345 -0.5317
15802TIP3   OH268820   0.449   5.535   0.375 -0.3089 -0.0113 -0.0274
15802TIP3    H168821   0.430   5.583   0.456  1.7389  1.2340 -0.2132
15802TIP3    H268822   0.482   5.450   0.406 -0.5739  0.0359  0.4024
15803TIP3   OH268823   1.886   6.653  11.041 -0.6553  0.1528  0.0254
15803TIP3    H168824   1.954   6.692  10.987 -0.7137  0.1179 -0.0736
15803TIP3    H268825   1.850   6.582  10.987 -0.3455 -0.2316  0.3203
15804TIP3   OH268826   5.634   4.294  14.659  0.2117  0.4653  0.0806
15804TIP3    H168827   5.606   4.328  14.744 -1.4604  3.6920 -1.5672
15804TIP3    H268828   5.677   4.368  14.617 -0.3510 -0.5419 -2.4439
15805TIP3   OH268829   6.133   1.312   1.384  0.8195 -0.3548 -0.3883
15805TIP3    H168830   6.142   1.301   1.289  1.8547  0.8783 -0.4580
15805TIP3    H268831   6.204   1.259   1.420  1.3614  0.3757 -0.3786
15806TIP3   OH268832   2.915   5.320   0.744 -1.0584  0.5703  0.7792
15806TIP3    H168833   2.969   5.249   0.778 -0.7070  0.2529 -0.3998
15806TIP3    H268834   2.976   5.392   0.729 -1.1098  0.5276  0.3370
15807TIP3   OH268835   0.312   5.130  12.171 -0.0352 -0.1070 -0.5292
15807TIP3    H168836   0.367   5.079  12.230  0.7953 -0.3651 -1.5085
15807TIP3    H268837   0.226   5.130  12.213  0.5331 -0.2807  0.6765
15808TIP3   OH268838   4.946   1.537  17.180  0.0052  0.3520 -0.5166
15808TIP3    H168839   5.035   1.542  17.213 -0.2215  0.3630  0.0987
15808TIP3    H268840   4.896   1.495  17.250 -0.5919  0.8939 -0.6097
15809TIP3   OH268841   2.959   0.790  13.893 -0.2162  0.7887  0.2388
15809TIP3    H168842   2.899   0.748  13.954 -0.7837 -0.9431 -1.4053
15809TIP3    H268843   2.958   0.883  13.918  1.3250 -0.0724  4.2481
15810TIP3   OH268844   5.511   2.206   1.193 -0.1419 -0.0566  0.1972
15810TIP3    H168845   5.556   2.246   1.268  3.3049 -0.4928 -1.4606
15810TIP3    H268846   5.569   2.222   1.119 -2.4485 -1.3927 -2.0499
15811TIP3   OH268847   0.811   6.670  14.345  0.1560  0.0877 -0.0247
15811TIP3    H168848   0.861   6.747  14.316 -1.2328  0.4278 -1.6817
15811TIP3    H268849   0.723   6.704  14.361  0.2576 -0.5992  2.3174
15812TIP3   OH268850   5.208   5.229   3.405 -0.0296  0.0508  0.6755
15812TIP3    H168851   5.143   5.237   3.335  2.3748 -0.6437 -1.7987
15812TIP3    H268852   5.171   5.164   3.464 -1.5873 -0.3255 -0.6361
15813TIP3   OH268853   1.886   3.433  12.947  0.2125 -0.0531 -0.4216
15813TIP3    H168854   1.922   3.427  12.858  1.7745  2.2385 -0.0337
15813TIP3    H268855   1.923   3.515  12.982 -0.8232 -0.5997  2.1382
15814TIP3   OH268856   6.219   2.367   3.014 -0.0290 -0.4347  0.9454
15814TIP3    H168857   6.301   2.339   3.055 -0.2297 -2.2921  0.1962
15814TIP3    H268858   6.214   2.315   2.933 -0.3694  2.0345 -0.7252
15815TIP3   OH268859   2.495   4.871  15.061 -0.5911  0.4812 -0.5685
15815TIP3    H168860   2.587   4.879  15.083 -1.0369 -0.1086  1.7243
15815TIP3    H268861   2.476   4.949  15.008  1.0737  0.8664 -0.6504
15816TIP3   OH268862   5.962   3.280   0.579 -0.5165 -0.4446 -0.2616
15816TIP3    H168863   5.913   3.223   0.639 -0.5030 -0.3563 -0.1663
15816TIP3    H268864   6.054   3.263   0.600 -0.5183  0.0357  0.1700
15817TIP3   OH268865   5.197   2.901  14.521  0.1487 -0.5125 -0.0257
15817TIP3    H168866   5.209   2.879  14.613  1.5055  0.2603 -0.0059
15817TIP3    H268867   5.208   2.817  14.475 -1.4776 -1.0930  0.5373
15818TIP3   OH268868   5.969   5.231  15.892 -0.3505 -0.5232 -0.4008
15818TIP3    H168869   5.889   5.211  15.843 -0.4323 -0.0052 -0.4851
15818TIP3    H268870   5.945   5.214  15.983  0.6308 -4.2433 -0.6910
15819TIP3   OH268871   2.840   3.263  13.791  0.1129 -0.5724 -0.6781
15819TIP3    H168872   2.754   3.228  13.814  0.7892 -2.1873 -0.4492
15819TIP3    H268873   2.831   3.358  13.800 -0.9852 -0.8381  1.6800
15820TIP3   OH268874   4.944   2.145   0.018  0.6242  0.3140  0.7551
15820TIP3    H168875   4.934   2.056  -0.015 -1.3479  0.5072  0.7153
15820TIP3    H268876   5.016   2.182  -0.034  1.9264 -1.4240  1.2308
15821TIP3   OH268877   4.176   2.874  12.218  0.2345  0.0969 -0.4278
15821TIP3    H168878   4.097   2.885  12.165 -0.1082 -0.6422 -0.0883
15821TIP3    H268879   4.145   2.835  12.299  0.9079  0.1416 -0.1402
15822TIP3   OH268880   1.736   0.550   0.120  0.0173  0.0053  0.6719
15822TIP3    H168881   1.813   0.511   0.077 -0.6193  0.0809 -0.5878
15822TIP3    H268882   1.770   0.585   0.202  1.8959  2.2888 -0.9305
15823TIP3   OH268883   4.568   6.504  12.987  0.1074  0.3749 -0.3743
15823TIP3    H168884   4.485   6.551  12.995 -0.1427 -0.0170 -0.6095
15823TIP3    H268885   4.633   6.572  12.975  0.1555  0.8626  2.1511
15824TIP3   OH268886   0.078   4.064   5.309 -0.0370  0.3704 -0.1285
15824TIP3    H168887   0.097   3.981   5.354 -0.5168  0.2462 -0.1476
15824TIP3    H268888   0.164   4.098   5.283  0.0717 -0.9888 -1.6968
15825TIP3   OH268889   5.501   0.121   4.024  0.0141  0.0417 -0.2054
15825TIP3    H168890   5.429   0.181   4.041 -1.0849 -0.9992 -1.0005
15825TIP3    H268891   5.512   0.123   3.929  0.4380 -0.4601 -0.1700
15826TIP3   OH268892   5.700   3.332   0.817 -0.2057 -0.5986  0.3754
15826TIP3    H168893   5.687   3.333   0.722 -1.5257 -0.3814  0.5413
15826TIP3    H268894   5.712   3.239   0.838 -2.2782 -0.9371  0.2568
15827TIP3   OH268895   5.566   4.524   2.220  1.0500  0.9378  0.4564
15827TIP3    H168896   5.597   4.606   2.180 -1.1301  1.3208 -0.5739
15827TIP3    H268897   5.628   4.458   2.190  0.3557  1.4726 -2.4776
15828TIP3   OH268898   6.644   0.756   0.808  0.2735 -0.2150 -0.0055
15828TIP3    H168899   6.600   0.775   0.890  0.0588 -0.0921 -0.1494
15828TIP3    H268900   6.640   0.837   0.758 -0.8528 -0.6820 -0.7156
15829TIP3   OH268901   2.014   3.096  11.355  0.2172  0.1009 -0.7241
15829TIP3    H168902   1.999   3.099  11.449  2.5195 -0.3267 -0.2897
15829TIP3    H268903   1.998   3.004  11.331 -0.0403  0.1393 -0.7071
15830TIP3   OH268904   4.405   3.294   0.504 -0.0393 -0.1686 -0.0058
15830TIP3    H168905   4.334   3.279   0.566  1.6214 -1.6070  1.7038
15830TIP3    H268906   4.380   3.245   0.426 -1.0398 -0.4041  0.4480
15831TIP3   OH268907   2.472   0.048   5.602 -0.3292 -0.5479  0.0649
15831TIP3    H168908   2.378   0.069   5.597 -0.3330  0.1294  1.9754
15831TIP3    H268909   2.493   0.056   5.695  0.7925 -4.4687  0.3534
15832TIP3   OH268910   6.533   3.078   5.698 -0.0275  0.3781  0.5088
15832TIP3    H168911   6.554   2.985   5.700  0.2040  0.3446  4.6209
15832TIP3    H268912   6.618   3.122   5.691 -0.1252  0.3589 -1.2512
15833TIP3   OH268913   3.724   0.303   0.191 -0.8705 -0.7685  0.4449
15833TIP3    H168914   3.644   0.261   0.158 -0.0236 -0.9721 -1.4514
15833TIP3    H268915   3.747   0.253   0.269 -1.1942 -2.3612 -0.4397
15834TIP3   OH268916   1.768   2.089  11.470  0.4245 -0.4840 -0.1261
15834TIP3    H168917   1.790   2.076  11.377  1.2959 -0.5199  0.0797
15834TIP3    H268918   1.698   2.154  11.469 -0.1568 -1.1019 -0.8559
15835TIP3   OH268919   2.223   4.763   2.933  0.0170 -0.2467  0.4102
15835TIP3    H168920   2.175   4.781   2.852  0.1180  1.3831  0.6868
15835TIP3    H268921   2.272   4.843   2.950 -0.2188 -0.4581  2.2466
15836TIP3   OH268922   5.533   2.638  11.728  0.9765 -0.3205  0.0223
15836TIP3    H168923   5.479   2.713  11.754 -0.4857 -1.0178 -0.8778
15836TIP3    H268924   5.496   2.564  11.776 -0.8100 -1.3525 -2.6550
15837TIP3   OH268925   4.398   3.482  16.339  0.3881 -0.1646 -0.2682
15837TIP3    H168926   4.333   3.431  16.291  1.0832 -1.6279  0.2751
15837TIP3    H268927   4.359   3.569  16.348 -0.4922 -0.3520 -1.9224
15838TIP3   OH268928   0.852   1.762  14.202 -0.0151  0.1221  0.0568
15838TIP3    H168929   0.774   1.745  14.255 -0.9048 -0.7965 -1.4793
15838TIP3    H268930   0.825   1.743  14.112  2.1071 -0.6304 -0.4747
15839TIP3   OH268931   5.500   5.134   0.841 -0.0763  0.1697  0.4248
15839TIP3    H168932   5.497   5.116   0.935  0.5680 -0.2121  0.3782
15839TIP3    H268933   5.528   5.226   0.835  1.7642 -0.3349  0.5963
15840TIP3   OH268934   6.677   2.181   2.968  0.5836 -0.3337 -0.1888
15840TIP3    H168935   6.771   2.162   2.965  1.1692  1.4750  2.7926
15840TIP3    H268936   6.650   2.186   2.876  3.3832 -0.9101 -1.1243
15841TIP3   OH268937   3.654   5.287  17.080 -0.3012 -0.1365  0.0313
15841TIP3    H168938   3.569   5.307  17.040 -0.3801 -1.1888 -0.3645
15841TIP3    H268939   3.658   5.343  17.158 -1.2248  0.1447 -0.1098
15842TIP3   OH268940   3.694   1.469  13.582 -0.0085 -0.2980 -0.1904
15842TIP3    H168941   3.770   1.416  13.558  1.0066  0.5757  0.9136
15842TIP3    H268942   3.731   1.543  13.630 -1.4329  1.0358 -1.0526
15843TIP3   OH268943   2.037   0.337   1.139  0.0165 -0.7417 -0.3983
15843TIP3    H168944   1.958   0.292   1.107 -0.7032  0.5436 -0.5170
15843TIP3    H268945   2.087   0.357   1.060 -0.4322  0.0302 -0.4963
15844TIP3   OH268946   4.546   2.976   3.072  0.2883 -0.0384  0.0834
15844TIP3    H168947   4.452   2.975   3.059  0.3479  3.4549 -1.8731
15844TIP3    H268948   4.583   2.986   2.984  2.2361  1.9016  1.0137
15845TIP3   OH268949   5.352   2.688  16.653 -0.1489  0.1805  0.6188
15845TIP3    H168950   5.259   2.713  16.651  0.0104  0.7788 -0.5616
15845TIP3    H268951   5.399   2.771  16.658  0.3314 -0.0464  0.0288
15846TIP3   OH268952   1.732   2.977  14.429  0.6761 -0.6376 -0.5950
15846TIP3    H168953   1.672   2.960  14.357  0.1122  1.7564 -0.7878
15846TIP3    H268954   1.766   2.891  14.454 -1.8692 -1.9307 -1.3054
15847TIP3   OH268955   2.440   0.485  12.223 -0.0958 -0.0469  0.0364
15847TIP3    H168956   2.414   0.476  12.131 -2.3246 -0.6967  0.6588
15847TIP3    H268957   2.457   0.395  12.251  1.8186  0.2595 -0.0205
15848TIP3   OH268958   1.531   0.625  14.337 -0.1241 -0.1776 -0.0325
15848TIP3    H168959   1.605   0.685  14.350  1.5561 -2.3131  0.8099
15848TIP3    H268960   1.518   0.624  14.242  0.4097  0.8188 -0.1312
15849TIP3   OH268961   0.984   5.003  12.127 -0.0888 -0.5337  0.5983
15849TIP3    H168962   1.049   4.943  12.091 -0.0476  0.1656 -0.5402
15849TIP3    H268963   0.904   4.983  12.079 -0.0800  0.3074  0.2271
15850TIP3   OH268964   4.051   5.804   3.530  0.6164  0.1237 -0.1968
15850TIP3    H168965   4.016   5.819   3.617  0.2454  0.5227 -0.4106
15850TIP3    H268966   4.145   5.816   3.539  0.3584  2.7003 -0.3622
15851TIP3   OH268967   3.205   4.002   3.809 -0.3602  0.3633 -0.3136
15851TIP3    H168968   3.206   4.058   3.887 -0.8416 -0.0052 -0.0312
15851TIP3    H268969   3.237   4.057   3.739 -0.1771  0.7859  0.0971
15852TIP3   OH268970   3.510   1.751  13.366 -0.2034 -0.2218 -0.2281
15852TIP3    H168971   3.459   1.820  13.324  0.6276 -0.0276 -0.9350
15852TIP3    H268972   3.555   1.707  13.294 -0.7600 -1.5527  0.1888
15853TIP3   OH268973   1.418   0.860   3.948 -0.0666  0.0614 -0.4443
15853TIP3    H168974   1.343   0.809   3.916 -0.5644  1.3727 -1.4530
15853TIP3    H268975   1.443   0.914   3.873  1.8025 -0.2166 -0.0708
15854TIP3   OH268976   6.431   2.136   4.042 -0.0428 -0.2476  0.3829
15854TIP3    H168977   6.353   2.084   4.062 -0.4873  0.3685  0.2956
15854TIP3    H268978   6.397   2.225   4.027  0.3055 -0.5014 -2.4298
15855TIP3   OH268979   3.664   4.052   3.954  0.3237 -0.1801 -0.0734
15855TIP3    H168980   3.582   4.050   4.004  0.1888  1.1798 -0.1985
15855TIP3    H268981   3.726   4.003   4.007 -0.8138 -2.1495 -0.4719
15856TIP3   OH268982   4.316   0.020   6.513 -0.5566 -0.0685  0.2624
15856TIP3    H168983   4.383  -0.004   6.577  2.3854  1.7664 -1.8469
15856TIP3    H268984   4.281  -0.063   6.481  0.2621 -1.0700  1.8788
15857TIP3   OH268985   4.924   4.398  12.127  0.2623  0.2931 -0.2130
15857TIP3    H168986   5.008   4.356  12.144 -0.1391 -0.5754 -0.2954
15857TIP3    H268987   4.900   4.439  12.210  0.3032 -0.3093  0.1054
15858TIP3   OH268988   5.472   3.319  14.567  0.0502  0.5421 -0.0330
15858TIP3    H168989   5.409   3.390  14.583 -1.4288 -0.8883  0.8995
15858TIP3    H268990   5.526   3.350  14.495 -2.2231  1.5720 -1.4185
15859TIP3   OH268991   1.349   2.007   3.095  0.2213 -0.1617  0.3442
15859TIP3    H168992   1.297   1.927   3.104  0.2823 -0.4789 -1.6526
15859TIP3    H268993   1.435   1.977   3.065  0.4952  0.5918  0.3500
15860TIP3   OH268994   6.281   5.554   2.634  0.0951 -0.3366 -0.5572
15860TIP3    H168995   6.353   5.523   2.688  0.1019 -0.2329 -0.5082
15860TIP3    H268996   6.203   5.544   2.689  0.4774  3.0330  0.8080
15861TIP3   OH268997   0.571   1.301  12.016 -0.2192  0.3695  0.1016
15861TIP3    H168998   0.608   1.264  11.936  1.3280  0.2552  0.8249
15861TIP3    H268999   0.563   1.395  11.998  2.4420  0.7683  0.5694
15862TIP3   OH269000   1.802   6.549   2.711  0.3014 -0.0717 -0.1627
15862TIP3    H169001   1.800   6.483   2.641  0.5161  1.0863 -1.3034
15862TIP3    H269002   1.711   6.555   2.741  0.1187 -0.2541 -0.6675
15863TIP3   OH269003   0.014   5.272  16.462 -1.0307  0.0983 -0.0175
15863TIP3    H169004   0.005   5.313  16.548 -0.9605 -1.8186  0.9616
15863TIP3    H269005  -0.013   5.181  16.476 -1.4179 -0.1557 -2.1293
15864TIP3   OH269006   6.601   3.644  15.290  0.1689 -0.1217 -0.1867
15864TIP3    H169007   6.643   3.713  15.239  1.4108  0.2937  1.3138
15864TIP3    H269008   6.516   3.679  15.313  0.0791  0.1680 -0.9438
15865TIP3   OH269009   2.404   1.571   1.113 -0.5347  0.1706 -0.2222
15865TIP3    H169010   2.485   1.535   1.148 -1.3538 -0.9902  0.5560
15865TIP3    H269011   2.432   1.632   1.045  1.0861  1.6988  1.6656
15866TIP3   OH269012   1.305   4.249   5.037 -0.2608  0.1140  0.3922
15866TIP3    H169013   1.266   4.201   4.964 -0.0886  1.5632 -0.7096
15866TIP3    H269014   1.291   4.193   5.113 -2.9876 -0.2254 -0.2372
15867TIP3   OH269015   0.326   5.181  11.685  0.1504 -0.2936 -0.4272
15867TIP3    H169016   0.367   5.183  11.771  0.7291 -0.5979 -0.6851
15867TIP3    H269017   0.285   5.267  11.676 -1.8380 -1.0285  1.0444
15868TIP3   OH269018   4.754   5.784  11.287  0.5147  0.3347 -0.0330
15868TIP3    H169019   4.822   5.753  11.227 -0.3999  0.9899 -1.4394
15868TIP3    H269020   4.685   5.719  11.282  0.6831  0.0756  0.8064
15869TIP3   OH269021   5.389   5.733  15.267 -0.0484  0.5189  0.1152
15869TIP3    H169022   5.330   5.805  15.247 -2.7267 -0.9925  1.9515
15869TIP3    H269023   5.419   5.749  15.356 -1.2692 -0.9047  0.8342
15870TIP3   OH269024   2.389   2.770  11.808 -0.0836 -0.0331  0.0007
15870TIP3    H169025   2.415   2.751  11.898  0.9108 -0.1951 -0.3129
15870TIP3    H269026   2.411   2.691  11.759  0.2708  0.4060 -0.5630
15871TIP3   OH269027   5.454   1.145   2.605 -0.8474  0.0716 -0.0903
15871TIP3    H169028   5.393   1.136   2.679  1.3052  1.4453  1.9884
15871TIP3    H269029   5.539   1.122   2.642  0.0165 -1.5306 -2.8275
15872TIP3   OH269030   2.069   2.990  14.845  0.5282 -0.0956  0.1244
15872TIP3    H169031   2.021   3.065  14.810 -0.1044 -0.9031 -0.8355
15872TIP3    H269032   2.041   2.984  14.936 -0.5611 -0.0350 -0.1850
15873TIP3   OH269033   6.650   6.479   0.399 -0.0504  0.3357  0.5127
15873TIP3    H169034   6.560   6.512   0.401 -0.1826 -0.0248  0.5898
15873TIP3    H269035   6.644   6.391   0.437  0.2814  0.1902  0.2345
15874TIP3   OH269036   4.154   4.774  12.344 -0.4115 -0.0621  0.6906
15874TIP3    H169037   4.117   4.735  12.265  0.5777  0.4838 -0.0723
15874TIP3    H269038   4.116   4.862  12.347 -0.1563  0.0519  0.6048
15875TIP3   OH269039   4.241   4.790  11.374  0.4272 -0.1131 -0.0513
15875TIP3    H169040   4.326   4.830  11.354  0.9882 -0.2049  1.9237
15875TIP3    H269041   4.189   4.861  11.412 -0.8346  0.2281 -2.2564
15876TIP3   OH269042   0.432   3.020  12.254  0.5333  0.6125  0.0617
15876TIP3    H169043   0.514   2.971  12.245  0.9815  1.2577  0.5622
15876TIP3    H269044   0.381   2.970  12.318 -0.6714 -1.3406 -2.2485
15877TIP3   OH269045   5.751   0.011   4.820 -0.5058  0.4390 -0.1497
15877TIP3    H169046   5.687  -0.056   4.796  0.2456  0.2401 -1.6706
15877TIP3    H269047   5.829  -0.039   4.845  0.7322  0.6701 -3.1580
15878TIP3   OH269048   4.392   0.519  16.128 -0.0852  0.0328 -0.9287
15878TIP3    H169049   4.479   0.555  16.144 -0.6524  1.8307 -1.6451
15878TIP3    H269050   4.335   0.595  16.124 -2.0062 -1.1512  1.0913
15879TIP3   OH269051   0.292   0.064   1.989  0.2131  0.4639 -0.6896
15879TIP3    H169052   0.369   0.051   2.043  0.4752  0.5192 -1.0483
15879TIP3    H269053   0.249  -0.022   1.987 -0.2279  0.6534  0.2527
15880TIP3   OH269054   2.448   0.622   4.297 -0.2136  0.5597 -0.1519
15880TIP3    H169055   2.461   0.554   4.231  1.5143  0.6282  0.0694
15880TIP3    H269056   2.370   0.670   4.268 -1.6042 -1.6167 -0.1892
15881TIP3   OH269057   3.741   3.278   3.180  0.1143  0.4921 -0.0219
15881TIP3    H169058   3.788   3.210   3.132  0.6388  0.6944  0.1922
15881TIP3    H269059   3.769   3.360   3.139 -1.3215  0.5350 -0.9760
15882TIP3   OH269060   0.618   6.739   1.473 -0.4172 -0.1584  0.0909
15882TIP3    H169061   0.651   6.827   1.494  1.5570 -0.4443 -1.4870
15882TIP3    H269062   0.594   6.743   1.381  1.1233 -1.6009 -0.4375
15883TIP3   OH269063   3.224   4.441  14.945  0.1458 -0.5965 -0.4639
15883TIP3    H169064   3.217   4.536  14.943  1.3049 -0.4992 -0.6604
15883TIP3    H269065   3.259   4.421  15.032  3.5047 -0.5144 -1.6685
15884TIP3   OH269066   4.882   2.122  12.938  0.7731 -0.3758 -0.8760
15884TIP3    H169067   4.864   2.152  13.027 -2.1867 -0.1378 -1.4550
15884TIP3    H269068   4.939   2.045  12.950  2.2701  0.9466  1.0274
15885TIP3   OH269069   6.541   0.286   4.300 -0.0913 -0.0999 -0.7388
15885TIP3    H169070   6.576   0.264   4.386  0.6141  0.3063 -0.9113
15885TIP3    H269071   6.544   0.203   4.251  1.9138  0.1738 -1.1674
15886TIP3   OH269072   0.298   2.631  11.866  0.7608 -0.2938 -0.4135
15886TIP3    H169073   0.240   2.572  11.913 -0.4646  0.8634 -0.4084
15886TIP3    H269074   0.283   2.611  11.774  0.6625 -0.2866 -0.3999
15887TIP3   OH269075   0.431   2.043  16.814  0.3226 -0.0509  0.0263
15887TIP3    H169076   0.501   1.988  16.849  2.4430  4.1505  3.3338
15887TIP3    H269077   0.470   2.090  16.741 -0.4346 -0.5994 -0.7484
15888TIP3   OH269078   1.522   6.062   0.426 -0.0765  0.5429 -0.2996
15888TIP3    H169079   1.426   6.058   0.425 -0.0296 -1.1972 -0.3123
15888TIP3    H269080   1.543   6.113   0.504 -1.0032 -1.2885  1.2332
15889TIP3   OH269081   1.820   0.797  16.094 -0.1268 -0.3581 -0.2843
15889TIP3    H169082   1.819   0.729  16.161  0.5755 -1.1674 -1.0706
15889TIP3    H269083   1.899   0.780  16.044  0.6373  1.6598  0.1149
15890TIP3   OH269084   3.955   6.009   2.203 -0.0726  0.4559 -0.0932
15890TIP3    H169085   3.986   6.025   2.114 -2.4786 -2.5106 -1.6554
15890TIP3    H269086   3.887   6.075   2.217  1.9425  2.5127  0.6487
15891TIP3   OH269087   0.438   2.592   1.176 -0.4318  0.0542  0.1711
15891TIP3    H169088   0.373   2.648   1.133 -2.1139 -1.0651  1.1104
15891TIP3    H269089   0.444   2.627   1.265  1.3570  0.9982 -0.2735
15892TIP3   OH269090   2.371   5.804   2.069  0.3640 -0.1789  0.2634
15892TIP3    H169091   2.348   5.795   1.976 -0.4321  0.4525  0.3860
15892TIP3    H269092   2.339   5.891   2.093  2.4487  0.5610  0.6041
15893TIP3   OH269093   0.777   0.747   5.638  0.1355  0.0169  0.5309
15893TIP3    H169094   0.761   0.728   5.730  0.3229  0.2583  0.6146
15893TIP3    H269095   0.755   0.840   5.629  1.0258  0.2365  0.5416
15894TIP3   OH269096   4.470   0.954   2.451  0.2908 -0.4604  0.0796
15894TIP3    H169097   4.518   1.036   2.462 -0.8899  0.2023  0.4388
15894TIP3    H269098   4.450   0.951   2.357 -0.5690  0.1991  0.2320
15895TIP3   OH269099   3.585   0.810   0.555  0.5842  0.6417 -0.8466
15895TIP3    H169100   3.607   0.718   0.573  1.5824  1.3421  2.0397
15895TIP3    H269101   3.663   0.859   0.582 -0.2691  2.4081 -1.4660
15896TIP3   OH269102   5.326   0.498  11.762  0.2809  0.5769  0.5328
15896TIP3    H169103   5.331   0.473  11.854  0.0053  0.1873  0.4441
15896TIP3    H269104   5.263   0.437  11.723  0.4402  0.6957  0.0728
15897TIP3   OH269105   2.977   2.755   0.428  0.4671 -0.2842 -0.0000
15897TIP3    H169106   3.050   2.774   0.369  0.3696  1.1686  0.3203
15897TIP3    H269107   2.911   2.716   0.371  1.5987 -2.0180 -0.2234
15898TIP3   OH269108   4.681   3.943   0.129  0.4967  0.4343  0.1816
15898TIP3    H169109   4.595   3.972   0.159  0.4146  0.8492 -0.4434
15898TIP3    H269110   4.704   4.004   0.059  2.1627  1.5339  1.6255
15899TIP3   OH269111   4.943   5.972  11.712 -0.5705 -0.1713 -0.0503
15899TIP3    H169112   4.917   5.880  11.711  1.6484 -1.0054  3.3048
15899TIP3    H269113   5.038   5.970  11.705 -0.4907  1.9052 -0.1102
15900TIP3   OH269114   3.341   1.712  15.489 -0.0352  0.4285  0.3160
15900TIP3    H169115   3.415   1.655  15.469 -1.0709 -1.6546  2.0458
15900TIP3    H269116   3.381   1.791  15.526  1.3967  0.5344 -1.3220
15901TIP3   OH269117   5.149   0.069  12.421 -0.7162  0.3562 -0.1982
15901TIP3    H169118   5.203   0.003  12.465  0.7700  0.7403 -1.3736
15901TIP3    H269119   5.096   0.018  12.359  1.0351  0.2606 -1.7141
15902TIP3   OH269120   4.322   3.082  12.324 -0.1994 -0.3581 -0.2131
15902TIP3    H169121   4.275   3.163  12.344 -0.0401 -0.6611  1.5899
15902TIP3    H269122   4.254   3.022  12.293 -0.5405  0.0761 -0.3081
15903TIP3   OH269123   5.847   2.600   2.765  0.1668  0.3085  0.2958
15903TIP3    H169124   5.939   2.599   2.790 -0.0186  1.9225  1.2200
15903TIP3    H269125   5.806   2.532   2.818  1.0460 -1.5691 -1.3019
15904TIP3   OH269126   5.275   1.167   2.825 -0.2085 -0.4350 -0.1459
15904TIP3    H169127   5.253   1.188   2.916  0.7091  2.5193 -0.5007
15904TIP3    H269128   5.194   1.181   2.777 -0.5530 -1.4579  0.1154
15905TIP3   OH269129   1.939   2.640   2.143 -0.5491  0.5829 -0.0680
15905TIP3    H169130   1.872   2.686   2.092  1.0159  2.2870 -0.6621
15905TIP3    H269131   1.943   2.553   2.102 -1.4004  0.9174 -0.9255
15906TIP3   OH269132   2.631   1.716   0.976 -0.0872 -0.0774 -0.4272
15906TIP3    H169133   2.622   1.720   0.881  0.2883  1.6048 -0.4170
15906TIP3    H269134   2.702   1.777   0.996 -0.4766 -0.0532  0.9673
15907TIP3   OH269135   5.290   3.642  16.131 -0.2604  0.0342 -0.0210
15907TIP3    H169136   5.339   3.719  16.101 -0.4386  1.1821  2.3643
15907TIP3    H269137   5.223   3.628  16.065 -0.6947  2.4309 -0.1608
15908TIP3   OH269138   5.116   0.246  11.667 -0.0931 -0.2923 -0.3253
15908TIP3    H169139   5.082   0.159  11.690 -1.8688  0.7783  1.3922
15908TIP3    H269140   5.079   0.304  11.733  1.4392  1.7242 -1.1565
15909TIP3   OH269141   1.407   1.781  12.333  0.2420 -0.7702  0.6375
15909TIP3    H169142   1.498   1.763  12.356  0.6642 -0.4977 -0.7503
15909TIP3    H269143   1.364   1.696  12.338  0.9964 -1.2455 -0.4659
15910TIP3   OH269144   3.955   1.399   4.180  0.0330 -0.6275 -0.2494
15910TIP3    H169145   3.944   1.486   4.143  1.1220 -0.1883  0.4098
15910TIP3    H269146   4.000   1.349   4.112 -1.6709 -1.0665 -1.1118
15911TIP3   OH269147   6.599   2.945   0.348  0.5557 -0.0116 -0.6214
15911TIP3    H169148   6.639   3.025   0.383  2.5103 -1.4709  0.6908
15911TIP3    H269149   6.525   2.928   0.406  0.8094  0.2562 -0.2123
15912TIP3   OH269150   0.277   3.182   2.339 -0.2264  0.2513 -0.2052
15912TIP3    H169151   0.313   3.230   2.413  1.5060  0.7810 -1.3300
15912TIP3    H269152   0.305   3.091   2.353  1.2925  0.5882 -0.8644
15913TIP3   OH269153   6.536   1.141  15.635 -0.8920 -0.1923 -0.1475
15913TIP3    H169154   6.533   1.111  15.544 -3.0750 -0.6230  0.0093
15913TIP3    H269155   6.554   1.062  15.686 -0.2876 -0.0617 -0.1530
15914TIP3   OH269156   2.148   5.389  16.477  0.7776 -0.6778 -0.3989
15914TIP3    H169157   2.065   5.357  16.511  1.6435 -0.3790  2.1417
15914TIP3    H269158   2.125   5.472  16.433 -0.3721 -1.0713 -0.5813
15915TIP3   OH269159   3.699   3.764   2.206 -0.2841 -0.2286 -0.1084
15915TIP3    H169160   3.675   3.689   2.151 -0.4985  1.0497 -1.8592
15915TIP3    H269161   3.752   3.819   2.149 -1.3658  1.6611  0.6351
15916TIP3   OH269162   5.954   4.853   1.338 -0.7710  0.4620 -0.2683
15916TIP3    H169163   5.926   4.824   1.251 -1.7783 -0.5889  0.3732
15916TIP3    H269164   5.874   4.851   1.390 -0.2713  1.5464  0.5646
15917TIP3   OH269165   0.886   5.503  11.039 -1.0131  1.0283  0.0583
15917TIP3    H169166   0.885   5.506  10.943 -0.6820 -1.5381 -0.0887
15917TIP3    H269167   0.905   5.593  11.065  2.5545  1.2184 -2.4246
15918TIP3   OH269168   0.885   0.565   0.804  0.9190  0.4155  0.1136
15918TIP3    H169169   0.807   0.512   0.790  0.2537 -0.8112  5.7677
15918TIP3    H269170   0.852   0.648   0.837  1.8530  0.1118  1.9709
15919TIP3   OH269171   5.878   5.813   0.823 -0.0153 -0.4723 -0.1159
15919TIP3    H169172   5.911   5.886   0.876  0.5481 -1.8948  1.5759
15919TIP3    H269173   5.868   5.850   0.735 -1.0959  2.0119  0.9561
15920TIP3   OH269174   6.180   5.890   5.004  0.2128  0.1567 -0.0640
15920TIP3    H169175   6.126   5.814   4.982  1.3358 -0.4815 -0.6931
15920TIP3    H269176   6.229   5.863   5.082 -2.7850  1.9390  2.6881
15921TIP3   OH269177   0.052   4.745  14.324 -0.5298  0.4781 -0.3011
15921TIP3    H169178   0.071   4.806  14.396  1.2345  0.1911 -0.4815
15921TIP3    H269179   0.105   4.777  14.251  0.1726 -1.0615 -0.5045
15922TIP3   OH269180   5.685   0.021  13.747  0.2118  0.2264 -0.8204
15922TIP3    H169181   5.665  -0.068  13.776 -1.2965  0.5414 -0.7850
15922TIP3    H269182   5.680   0.017  13.652 -2.3191  0.7431 -0.7726
15923TIP3   OH269183   4.603   5.901   1.336  0.4713 -0.8494  0.0982
15923TIP3    H169184   4.583   5.809   1.357 -0.6467 -0.9210 -1.0975
15923TIP3    H269185   4.640   5.897   1.247  2.0442 -0.2847  0.6987
15924TIP3   OH269186   1.422   1.672  11.539 -0.0243 -0.1108 -0.4674
15924TIP3    H169187   1.486   1.695  11.471  0.2868  0.1186 -0.0983
15924TIP3    H269188   1.355   1.623  11.492 -0.7907  1.6584 -1.3337
15925TIP3   OH269189   1.960   3.089   5.301  0.1779  0.5798  0.0194
15925TIP3    H169190   1.969   3.148   5.376 -1.3178 -0.3140  0.9444
15925TIP3    H269191   1.966   3.001   5.339  0.0025  0.1183 -0.9950
15926TIP3   OH269192   6.595   2.539   2.088  0.0989  0.3147 -0.5669
15926TIP3    H169193   6.654   2.471   2.055  0.8858  1.3869 -1.4477
15926TIP3    H269194   6.566   2.585   2.009 -0.8790  0.6534 -0.0276
15927TIP3   OH269195   0.948   4.462   2.549 -1.2056  0.0203  0.5797
15927TIP3    H169196   0.928   4.430   2.461 -0.7824 -0.0681  0.5102
15927TIP3    H269197   0.869   4.508   2.577 -1.7832 -0.9662  0.6273
15928TIP3   OH269198   4.906   0.037   2.107  0.5226  0.3152 -0.1616
15928TIP3    H169199   4.982  -0.012   2.075 -0.1708 -1.2053  0.4516
15928TIP3    H269200   4.915   0.034   2.203 -0.9028 -0.9044 -0.0367
15929TIP3   OH269201   5.741   3.992  14.169  0.2456  0.6950  0.1747
15929TIP3    H169202   5.816   4.015  14.114 -0.2751  1.8374 -0.0868
15929TIP3    H269203   5.673   4.055  14.145 -0.9194 -0.5076  0.1854
15930TIP3   OH269204   5.955   3.931   5.644  0.3531 -0.2733 -0.4572
15930TIP3    H169205   6.005   3.963   5.719 -0.1085  2.0374 -1.0534
15930TIP3    H269206   5.927   3.844   5.669  1.0250  0.0596  1.6533
15931TIP3   OH269207   1.118   3.144   1.035 -0.3272 -0.4117 -0.2278
15931TIP3    H169208   1.210   3.120   1.035 -0.1452  0.2507  0.3585
15931TIP3    H269209   1.113   3.220   0.976 -0.7293 -1.2207 -1.2794
15932TIP3   OH269210   2.583   3.803   0.705 -0.3100 -0.1964  0.0270
15932TIP3    H169211   2.557   3.854   0.781 -0.1268 -2.4866  1.7379
15932TIP3    H269212   2.675   3.781   0.721 -0.4544 -1.2446 -0.5212
15933TIP3   OH269213   6.773   2.896  14.241 -0.4515 -0.3156  0.0219
15933TIP3    H169214   6.732   2.863  14.321 -0.2747  0.2890  0.3623
15933TIP3    H269215   6.848   2.948  14.272 -1.3829  1.3595 -0.4611
15934TIP3   OH269216   0.854   2.002   5.321  0.9458  0.5068 -0.4351
15934TIP3    H169217   0.886   2.032   5.406 -0.3238  1.2206 -0.1833
15934TIP3    H269218   0.761   2.025   5.321  0.7295 -0.2893 -1.6642
15935TIP3   OH269219   1.033   3.390  15.245 -0.0085 -0.8611  0.1535
15935TIP3    H169220   0.981   3.470  15.256  0.8578 -0.2557 -0.0369
15935TIP3    H269221   1.027   3.346  15.330  0.6736  0.1370  0.7543
15936TIP3   OH269222   3.986   5.869  10.945  0.0131  0.5601 -0.3260
15936TIP3    H169223   3.919   5.837  11.005 -1.4521 -0.0406 -2.1940
15936TIP3    H269224   4.009   5.793  10.892  1.5598  0.9788 -0.3118
15937TIP3   OH269225   2.049   3.921  13.036  0.2806  0.5870  0.0320
15937TIP3    H169226   2.032   4.004  12.991  0.1134  0.4150 -0.2287
15937TIP3    H269227   2.144   3.911  13.032  0.4994  1.6068  1.5882
15938TIP3   OH269228   5.089   5.451   4.550 -0.1793  0.8055  0.1762
15938TIP3    H169229   5.080   5.524   4.611 -0.1027  0.2108  0.9163
15938TIP3    H269230   5.144   5.387   4.596  0.9249  0.8576 -0.9908
15939TIP3   OH269231   3.579   1.912   3.126  0.3884  0.6020 -0.2395
15939TIP3    H169232   3.568   2.006   3.143  0.6755  0.8269 -1.2368
15939TIP3    H269233   3.494   1.884   3.092  0.2911  0.4880  0.0940
15940TIP3   OH269234   1.939   0.690  13.364 -0.8798 -0.7028 -0.6874
15940TIP3    H169235   1.964   0.612  13.316  0.0404  0.7270 -2.6915
15940TIP3    H269236   1.906   0.750  13.297 -1.1996  0.7528  0.7126
15941TIP3   OH269237   3.508   3.594  12.948  0.3133  0.1303 -0.4725
15941TIP3    H169238   3.413   3.599  12.938  0.2199  1.2203  0.8080
15941TIP3    H269239   3.540   3.582  12.858 -1.1285 -2.7280 -0.7120
15942TIP3   OH269240   3.225   5.376   3.987 -0.1242  0.0203  0.5952
15942TIP3    H169241   3.246   5.376   4.080  0.2386  1.7237  0.5511
15942TIP3    H269242   3.157   5.443   3.978  0.4555  0.4915 -0.4754
15943TIP3   OH269243   0.197   1.092   1.182  1.0491  0.0273  0.2719
15943TIP3    H169244   0.224   1.151   1.252 -0.9900  3.0155 -1.2830
15943TIP3    H269245   0.258   1.110   1.110 -1.4651  2.8809 -1.3603
15944TIP3   OH269246   0.483   3.073   3.096 -0.1639 -0.0329  0.4890
15944TIP3    H169247   0.486   3.050   3.189  1.2678  1.6583  0.9275
15944TIP3    H269248   0.515   3.163   3.093 -0.8374  0.1956 -1.5911
15945TIP3   OH269249   2.569   2.761  10.536 -0.2571  0.1338  0.4721
15945TIP3    H169250   2.603   2.689  10.589 -0.1364  0.5097  0.9093
15945TIP3    H269251   2.648   2.810  10.510 -0.3714  0.3305  0.4984
15946TIP3   OH269252   5.434   0.184   4.816 -0.0381 -0.7093  0.0765
15946TIP3    H169253   5.450   0.137   4.735  1.1956 -1.6321  0.8246
15946TIP3    H269254   5.520   0.208   4.849 -0.5529  0.4450  0.6826
15947TIP3   OH269255   1.005   4.181  11.421  0.1589 -0.4236 -0.2977
15947TIP3    H169256   1.100   4.176  11.420  0.2251  0.6331 -0.5110
15947TIP3    H269257   0.982   4.222  11.337 -0.5132 -0.9915 -0.4063
15948TIP3   OH269258   4.390   4.659   0.901  0.4878 -0.2821  0.2836
15948TIP3    H169259   4.414   4.572   0.868 -1.2527 -0.7469  0.1140
15948TIP3    H269260   4.378   4.646   0.995 -2.0436 -0.8721 -0.0310
15949TIP3   OH269261   6.037   3.239  10.535  0.0234 -0.2608  0.0112
15949TIP3    H169262   6.043   3.326  10.573  0.1971 -0.3188  0.1161
15949TIP3    H269263   5.975   3.192  10.591  1.7844 -0.9901  1.4721
15950TIP3   OH269264   4.810   4.773  14.924  0.6821  0.0026  0.0333
15950TIP3    H169265   4.753   4.848  14.939 -2.1599 -1.5672 -1.8822
15950TIP3    H269266   4.887   4.809  14.879 -0.5155  1.7992 -0.6697
15951TIP3   OH269267   0.856   6.640   1.617 -0.5663  0.1436 -0.1717
15951TIP3    H169268   0.765   6.640   1.590 -0.8273 -1.5236  0.5956
15951TIP3    H269269   0.856   6.595   1.702  0.7192  1.8552  0.8064
15952TIP3   OH269270   4.674   2.428   6.408 -0.0674 -0.5868 -0.6461
15952TIP3    H169271   4.717   2.388   6.484  0.5790  0.1521 -0.6153
15952TIP3    H269272   4.744   2.472   6.360 -0.7904  0.7903 -0.4917
15953TIP3   OH269273   1.042   1.947   2.953 -0.3318  0.3108 -0.2589
15953TIP3    H169274   0.972   1.943   3.019 -1.2844  2.2302 -1.0821
15953TIP3    H269275   1.089   2.028   2.973 -0.5375  0.8497 -1.7989
15954TIP3   OH269276   1.971   0.376  12.722 -0.5742 -0.2701  0.4317
15954TIP3    H169277   1.959   0.339  12.634 -1.6016 -0.0526  0.4608
15954TIP3    H269278   1.889   0.423  12.739 -0.1982  0.0838  1.3205
15955TIP3   OH269279   1.006   2.670  11.595 -0.5792 -0.1155 -0.2983
15955TIP3    H169280   0.981   2.665  11.503 -0.6195  3.3850 -0.6239
15955TIP3    H269281   0.924   2.663  11.643 -0.6943 -0.7335 -0.5714
15956TIP3   OH269282   2.222   1.355  13.093 -0.3465  0.0675  0.1634
15956TIP3    H169283   2.256   1.430  13.142 -2.0040  0.5433  0.6668
15956TIP3    H269284   2.194   1.293  13.160 -1.1943  0.0524 -0.1888
15957TIP3   OH269285   3.993   1.958  11.198 -0.3509  0.4977  0.0401
15957TIP3    H169286   4.003   1.872  11.238  0.8886  0.6367  0.0745
15957TIP3    H269287   4.001   1.943  11.104  2.3796  0.8299  0.1415
15958TIP3   OH269288   2.207   6.074   3.292  0.1198 -0.5048  0.0086
15958TIP3    H169289   2.246   6.149   3.338 -0.9388 -0.4187  0.7835
15958TIP3    H269290   2.251   6.074   3.207  1.5059 -0.1511  0.6798
15959TIP3   OH269291   3.518   6.769  16.264 -0.4532 -0.3512  0.5675
15959TIP3    H169292   3.551   6.790  16.177  0.0619 -1.8962  0.3679
15959TIP3    H269293   3.437   6.820  16.272 -1.3071 -1.2953 -1.4256
15960TIP3   OH269294   4.308   1.698  16.718 -0.0225 -0.3440 -0.5902
15960TIP3    H169295   4.306   1.779  16.769  1.6953 -0.0725 -0.8956
15960TIP3    H269296   4.223   1.657  16.735 -1.1813  1.7857 -0.8868
15961TIP3   OH269297   6.371   5.639   3.292  0.5044  0.6098  0.4646
15961TIP3    H169298   6.385   5.722   3.245  0.0820 -0.3322 -1.3961
15961TIP3    H269299   6.448   5.632   3.349 -0.0820  2.9025  1.6666
15962TIP3   OH269300   4.255   2.016  15.423  0.2784  0.0861 -0.0767
15962TIP3    H169301   4.287   1.942  15.474  0.1685  0.4168  0.4829
15962TIP3    H269302   4.260   1.987  15.332  2.2050  0.1425 -0.0274
15963TIP3   OH269303   6.609   5.029   3.290 -0.4753  0.3336 -0.0649
15963TIP3    H169304   6.535   4.995   3.240 -0.1591  2.4025 -2.0701
15963TIP3    H269305   6.573   5.046   3.377 -1.1970 -2.7543  0.3863
15964TIP3   OH269306   0.492   2.620  10.656  0.2118 -0.1089  0.6255
15964TIP3    H169307   0.443   2.651  10.580 -0.3526  1.5953  1.6298
15964TIP3    H269308   0.430   2.563  10.703  0.0345  0.0345  0.5697
15965TIP3   OH269309   5.044   1.712  14.045  0.5904 -0.5904  0.0252
15965TIP3    H169310   5.048   1.664  13.963  1.8231  2.0143 -1.5539
15965TIP3    H269311   5.041   1.804  14.019 -0.4475  0.2863  2.8901
15966TIP3   OH269312   3.678   4.889   5.987 -0.0094 -0.1548 -0.3252
15966TIP3    H169313   3.762   4.849   5.964  2.0784  1.9146  2.8203
15966TIP3    H269314   3.651   4.843   6.067 -0.8469  0.4870 -0.2271
15967TIP3   OH269315   2.703   5.008   6.154  0.3363  0.1006  0.4130
15967TIP3    H169316   2.787   5.045   6.182  0.7554 -1.1286  0.8685
15967TIP3    H269317   2.725   4.919   6.125 -0.8712 -0.4214  1.0302
15968TIP3   OH269318   4.547   1.664   3.603  0.1968  0.0992  0.1029
15968TIP3    H169319   4.573   1.737   3.660  0.4808  1.6869 -1.9314
15968TIP3    H269320   4.451   1.668   3.602  0.2155  0.5654 -0.1232
15969TIP3   OH269321   4.104   1.336   4.548 -0.4104  0.5399 -0.5918
15969TIP3    H169322   4.089   1.419   4.594 -0.9932  0.5486 -0.7843
15969TIP3    H269323   4.150   1.360   4.468  1.0805  0.4709  0.2097
15970TIP3   OH269324   1.326   1.933   3.736 -0.4643 -0.1408  0.2870
15970TIP3    H169325   1.306   1.845   3.766 -0.1802 -1.2383 -2.4676
15970TIP3    H269326   1.241   1.975   3.726 -0.5932  0.0195  1.7598
15971TIP3   OH269327   0.494   3.006  14.815  0.0785 -0.1620  0.0985
15971TIP3    H169328   0.478   3.014  14.909  1.4216  0.4204  0.3086
15971TIP3    H269329   0.566   3.067  14.798  2.7186 -3.1774 -0.5204
15972TIP3   OH269330   6.231   5.565  12.539 -0.4362  0.7475 -0.0358
15972TIP3    H169331   6.148   5.531  12.572 -0.3801  1.2866  0.6760
15972TIP3    H269332   6.238   5.652  12.577  1.0026  0.2755  0.8402
15973TIP3   OH269333   4.997   2.667  13.968 -0.2732 -0.1628 -0.4519
15973TIP3    H169334   5.018   2.707  13.883  2.4973 -1.1885 -0.3656
15973TIP3    H269335   5.037   2.725  14.032 -1.2746 -0.0609  0.1033
15974TIP3   OH269336   0.926   2.819  14.005  0.0610 -0.0623 -0.2339
15974TIP3    H169337   0.966   2.852  14.085 -2.5610 -0.2355  1.2769
15974TIP3    H269338   0.963   2.873  13.935 -0.3142  2.6736  1.5529
15975TIP3   OH269339   2.365   5.139   2.696 -0.1244  0.0881 -0.4386
15975TIP3    H169340   2.417   5.124   2.617  0.4931  1.6480 -0.3659
15975TIP3    H269341   2.356   5.234   2.700 -0.1040  0.0346  1.4053
15976TIP3   OH269342   6.753   1.476   2.827  0.1098  0.3951  0.4809
15976TIP3    H169343   6.838   1.444   2.857  1.8980  3.6212 -0.7065
15976TIP3    H269344   6.707   1.502   2.906  0.9161  0.1906  1.0226
15977TIP3   OH269345   3.749   1.492   5.391  0.0770 -0.1371  0.7135
15977TIP3    H169346   3.665   1.450   5.374  0.7606 -2.1937  2.0863
15977TIP3    H269347   3.809   1.456   5.325  0.6268 -1.2583  1.7903
15978TIP3   OH269348   3.169   2.335  12.294 -0.2851  0.4728 -0.4071
15978TIP3    H169349   3.156   2.247  12.258  0.6203  0.1227  0.0832
15978TIP3    H269350   3.214   2.320  12.377  2.1198  1.5016 -1.4422
15979TIP3   OH269351   0.070   1.402   2.145 -0.0876 -0.1091 -0.1678
15979TIP3    H169352   0.158   1.407   2.106  0.0859  3.3402  0.3501
15979TIP3    H269353   0.011   1.399   2.070  0.4076 -0.7685 -0.5456
15980TIP3   OH269354   3.900   0.382  15.016  0.1570  0.1901 -0.1332
15980TIP3    H169355   3.833   0.316  15.032 -0.7463  1.2369  0.5443
15980TIP3    H269356   3.980   0.332  15.000 -1.6779 -1.6378 -7.1495
15981TIP3   OH269357   3.453   4.402  16.098 -0.1488  0.2117  0.0357
15981TIP3    H169358   3.456   4.378  16.190  0.4659 -2.5218 -0.6043
15981TIP3    H269359   3.386   4.471  16.093 -0.9941 -0.3708  2.3420
15982TIP3   OH269360   2.286   3.518   2.663 -0.3682  0.1356  0.0585
15982TIP3    H169361   2.231   3.450   2.702 -0.7301 -0.6666 -1.7709
15982TIP3    H269362   2.371   3.477   2.649 -0.1149  0.5455  0.3472
15983TIP3   OH269363   4.738   1.593  15.465  0.0999 -0.9082  0.5276
15983TIP3    H169364   4.825   1.587  15.503 -0.0533 -0.0373  1.0500
15983TIP3    H269365   4.679   1.595  15.540 -0.2072  0.8438  0.2923
15984TIP3   OH269366   2.682   5.454   5.757  0.0537 -0.0207  0.3308
15984TIP3    H169367   2.731   5.531   5.729  1.0288 -0.7430 -0.0243
15984TIP3    H269368   2.591   5.483   5.761  0.1660  0.7269 -1.4211
15985TIP3   OH269369   5.328   5.791   3.907  0.0678 -0.2547 -0.3072
15985TIP3    H169370   5.291   5.716   3.952  1.0016 -1.4637 -1.4864
15985TIP3    H269371   5.386   5.831   3.971 -0.1470 -0.7546  0.2035
15986TIP3   OH269372   5.039   4.848  15.911 -0.0922 -0.2209 -0.2700
15986TIP3    H169373   5.121   4.801  15.918  0.0492 -0.0161 -0.5394
15986TIP3    H269374   4.994   4.808  15.836  1.0220  1.5614 -1.9711
15987TIP3   OH269375   0.941   1.547  13.957 -0.4534 -0.3013 -0.5679
15987TIP3    H169376   0.932   1.586  13.870 -0.1077 -0.2673 -0.5891
15987TIP3    H269377   0.864   1.577  14.005  0.9831  2.5010  0.2167
15988TIP3   OH269378   0.560   0.337  11.564  0.2078 -0.7325 -0.2766
15988TIP3    H169379   0.579   0.425  11.533 -0.4082 -0.6333 -0.3973
15988TIP3    H269380   0.593   0.279  11.496 -0.3587 -0.5501 -0.7188
15989TIP3   OH269381   4.611   1.175   2.606  0.0809 -0.2324  0.4949
15989TIP3    H169382   4.671   1.161   2.680  0.3806 -1.2588  0.0747
15989TIP3    H269383   4.524   1.180   2.646  0.2293 -0.8679  0.9083
15990TIP3   OH269384   4.741   3.817  12.400  0.4212  0.2516 -0.0198
15990TIP3    H169385   4.696   3.882  12.453  1.1536  1.3159 -0.6590
15990TIP3    H269386   4.684   3.740  12.403 -0.7352  1.0876  0.3211
15991TIP3   OH269387   1.830   6.263  14.245  0.4896  0.0172  0.2008
15991TIP3    H169388   1.859   6.173  14.260  0.4183  0.0225  0.3792
15991TIP3    H269389   1.793   6.263  14.157  2.0114  0.2551 -0.4751
15992TIP3   OH269390   3.588   3.451  16.656 -0.3503 -0.5040  0.2526
15992TIP3    H169391   3.603   3.458  16.562 -0.4835 -1.2735  0.1663
15992TIP3    H269392   3.675   3.438  16.694 -0.1073  1.2985  0.4104
15993TIP3   OH269393   6.202   3.735   1.982 -0.1040 -0.1261 -0.4561
15993TIP3    H169394   6.189   3.783   2.064  1.3158  0.0898 -0.3407
15993TIP3    H269395   6.297   3.725   1.974 -0.2932 -2.0601 -0.9774
15994TIP3   OH269396   5.213   6.374   4.789 -0.1564  0.7073 -0.1718
15994TIP3    H169397   5.124   6.382   4.754 -0.1514 -0.1000 -0.3722
15994TIP3    H269398   5.251   6.461   4.776 -0.7840  0.9513 -0.4352
15995TIP3   OH269399   5.009   3.349   2.777  0.2987  0.1008  0.4090
15995TIP3    H169400   5.063   3.374   2.702 -0.6969 -0.7364 -0.6234
15995TIP3    H269401   4.945   3.287   2.741 -1.5134  1.2316  1.5192
15996TIP3   OH269402   6.764   0.334   3.602  0.1877 -0.1158  0.4890
15996TIP3    H169403   6.799   0.412   3.645 -0.4088  0.8192 -0.6622
15996TIP3    H269404   6.670   0.351   3.594  0.2752 -0.2700 -1.1366
15997TIP3   OH269405   1.945   1.746   1.811  0.1452  0.6387  0.3439
15997TIP3    H169406   1.941   1.821   1.870 -1.2216 -0.7715  2.1633
15997TIP3    H269407   1.992   1.679   1.861  0.5639 -0.0307 -0.9027
15998TIP3   OH269408   3.014   1.482  11.702 -0.3121 -0.0619 -0.2270
15998TIP3    H169409   2.997   1.496  11.609 -1.5570 -0.4226 -0.0831
15998TIP3    H269410   2.961   1.548  11.746  2.1856  1.7747  0.2117
15999TIP3   OH269411   2.623   5.870   0.797 -0.1663  0.4287  0.2213
15999TIP3    H169412   2.616   5.835   0.885 -0.6417  0.7831  0.3310
15999TIP3    H269413   2.591   5.800   0.740  4.9480 -1.9994 -0.2542
16000TIP3   OH269414   0.831   3.608  15.375  0.4998 -0.1340  0.1914
16000TIP3    H169415   0.912   3.658  15.382  0.5226 -0.0540 -0.5763
16000TIP3    H269416   0.768   3.669  15.336 -0.2845  0.1886  1.9009
16001TIP3   OH269417   0.723   6.325   3.765 -0.0255  0.0278 -0.3318
16001TIP3    H169418   0.680   6.242   3.787  1.2976 -0.1396  1.8927
16001TIP3    H269419   0.789   6.336   3.833  0.6943  2.2916 -1.3281
16002TIP3   OH269420   0.822   5.177  13.043 -0.4823 -0.1086 -0.0715
16002TIP3    H169421   0.749   5.116  13.058 -1.3720  0.8905 -0.2032
16002TIP3    H269422   0.804   5.214  12.957  0.3092 -0.0155 -0.1959
16003TIP3   OH269423   3.387   4.423   5.033  0.6740 -0.2319 -0.7630
16003TIP3    H169424   3.379   4.331   5.059  0.6576 -0.0452 -0.1036
16003TIP3    H269425   3.298   4.451   5.013  0.8157 -0.6971 -2.1609
16004TIP3   OH269426   3.044   5.466   5.919  0.5323 -0.6412 -0.3820
16004TIP3    H169427   3.029   5.514   6.001 -0.3234 -1.5356  0.0051
16004TIP3    H269428   2.972   5.404   5.914  0.8250 -0.9070 -1.6045
16005TIP3   OH269429   4.874   4.481  15.173 -0.2551 -0.0788 -0.5261
16005TIP3    H169430   4.946   4.513  15.119 -0.8071 -0.4520 -1.5057
16005TIP3    H269431   4.806   4.455  15.110 -1.6766  1.2569  0.3979
16006TIP3   OH269432   0.564   3.151   2.222  0.4560  0.4329 -0.5519
16006TIP3    H169433   0.603   3.069   2.252 -0.5381  1.1701  3.2152
16006TIP3    H269434   0.639   3.206   2.197  1.2408 -0.9109 -1.2365
16007TIP3   OH269435   5.861   4.843  16.285 -0.2389  0.0368 -0.5761
16007TIP3    H169436   5.847   4.775  16.351  0.9883  1.9403  1.7981
16007TIP3    H269437   5.951   4.828  16.254  1.0086  1.9172  1.8073
16008TIP3   OH269438   3.806   0.544   3.871 -0.5344 -0.0362  0.3986
16008TIP3    H169439   3.852   0.465   3.841  0.7841  0.6042  0.6500
16008TIP3    H269440   3.719   0.513   3.894 -0.0155 -1.4498  0.5956
16009TIP3   OH269441   5.196   2.852   4.988  0.4773 -0.0276 -0.0433
16009TIP3    H169442   5.187   2.855   4.893 -1.4259  0.4116  0.1136
16009TIP3    H269443   5.187   2.760   5.011  1.6697 -0.2241 -0.3362
16010TIP3   OH269444   5.488   4.889   1.401  0.5994  0.3239  0.6579
16010TIP3    H169445   5.399   4.917   1.380 -0.0593 -0.5614  2.0773
16010TIP3    H269446   5.544   4.942   1.345 -0.8154  0.9799 -0.1866
16011TIP3   OH269447   0.436   0.428   1.079  0.4799  0.3312  0.6873
16011TIP3    H169448   0.513   0.473   1.043 -0.8942  1.7507 -0.6405
16011TIP3    H269449   0.367   0.494   1.078 -0.6686 -0.7776  2.2601
16012TIP3   OH269450   2.271   3.621  12.823  0.3686 -0.2029 -0.9652
16012TIP3    H169451   2.305   3.654  12.906 -0.9643  1.9163 -1.1947
16012TIP3    H269452   2.349   3.596  12.773  1.3021  0.4298  0.1330
16013TIP3   OH269453   2.489   1.324  14.068  0.0344  0.2696  0.7499
16013TIP3    H169454   2.529   1.411  14.060 -0.7659  0.4330 -2.7378
16013TIP3    H269455   2.558   1.263  14.041 -0.8472  0.2662 -1.6316
16014TIP3   OH269456   5.701   6.012  16.796 -0.3316  0.0404  0.4795
16014TIP3    H169457   5.751   5.993  16.875  0.1998  0.0167  0.1434
16014TIP3    H269458   5.744   5.959  16.728  0.8071  1.9533 -0.3630
16015TIP3   OH269459   3.230   2.045   4.752 -0.1427 -0.0989  0.2086
16015TIP3    H169460   3.313   2.013   4.715  0.0935 -1.1090  1.5193
16015TIP3    H269461   3.242   2.036   4.847 -1.6147  0.1183  0.4296
16016TIP3   OH269462   5.622   6.310  14.392 -0.2858 -0.3360 -0.6285
16016TIP3    H169463   5.591   6.387  14.346  0.8360 -0.2899 -1.3590
16016TIP3    H269464   5.574   6.237  14.353 -0.7710 -0.0868 -0.4922
16017TIP3   OH269465   5.819   0.563   0.942 -0.6870  0.7148  0.1222
16017TIP3    H169466   5.840   0.495   1.005 -2.6021  0.5507  0.6567
16017TIP3    H269467   5.896   0.619   0.940 -0.3743  0.4446  2.2705
16018TIP3   OH269468   1.119   6.363  11.890 -0.2938 -0.2725 -0.2717
16018TIP3    H169469   1.162   6.442  11.856  0.5742 -0.9584 -0.8294
16018TIP3    H269470   1.033   6.363  11.849 -0.1688  0.2071 -0.5503
16019TIP3   OH269471   1.143   6.120   3.024 -0.4770  0.2192 -0.0240
16019TIP3    H169472   1.178   6.112   3.113 -0.6714  0.8992  0.1213
16019TIP3    H269473   1.083   6.046   3.015 -1.3035  0.7674  0.8217
16020TIP3   OH269474   6.038   5.946   6.491  0.2176 -0.4662  0.3883
16020TIP3    H169475   6.016   5.869   6.439 -0.7549 -0.2821  0.4930
16020TIP3    H269476   6.122   5.925   6.532  0.4761 -1.0353 -0.4174
16021TIP3   OH269477   3.392   5.728   4.210  0.1886  0.2362 -0.2566
16021TIP3    H169478   3.367   5.741   4.118  1.0736 -1.7714 -0.8300
16021TIP3    H269479   3.310   5.708   4.254  0.0359 -1.2848 -1.1413
16022TIP3   OH269480   6.456   0.572  14.380  0.4145 -0.1850 -0.1281
16022TIP3    H169481   6.420   0.506  14.320 -1.5243  0.8087 -0.1264
16022TIP3    H269482   6.406   0.651  14.362  2.9854  1.4889 -0.4509
16023TIP3   OH269483   3.293   2.675  16.658  0.0870 -0.1409 -0.7695
16023TIP3    H169484   3.316   2.703  16.747 -1.0733  1.7143 -1.0195
16023TIP3    H269485   3.346   2.596  16.644  2.4043  1.0818  0.5248
16024TIP3   OH269486   2.344   3.089  13.630  0.4925  0.0760  0.0039
16024TIP3    H169487   2.418   3.133  13.673 -0.3350  1.1436  0.3866
16024TIP3    H269488   2.267   3.140  13.656 -0.3518 -0.8054 -0.6642
16025TIP3   OH269489   4.211   5.952  13.829 -0.1611 -0.8209  0.9185
16025TIP3    H169490   4.191   5.859  13.840 -0.7588 -0.6731  1.1671
16025TIP3    H269491   4.306   5.957  13.827 -0.1289 -1.4723  0.5950
16026TIP3   OH269492   5.658   3.643   5.787  0.3844  0.0732 -0.1414
16026TIP3    H169493   5.602   3.695   5.844  0.7661  0.7918 -0.4057
16026TIP3    H269494   5.696   3.577   5.844  0.4342  0.5223  0.3489
16027TIP3   OH269495   1.224   1.915   2.342 -0.5286  0.3368 -0.3885
16027TIP3    H169496   1.200   1.835   2.388  1.9233 -1.1357 -1.4812
16027TIP3    H269497   1.276   1.965   2.406  1.8672 -1.1614 -1.0298
16028TIP3   OH269498   6.352   4.280   5.623 -0.1680 -0.3792  0.5205
16028TIP3    H169499   6.312   4.236   5.548  0.6844 -0.4581  0.1069
16028TIP3    H269500   6.278   4.303   5.679 -1.0502  1.4476 -1.2587
16029TIP3   OH269501   0.879   5.987   2.667 -0.1422 -0.5656 -0.4687
16029TIP3    H169502   0.810   5.960   2.728 -0.0872 -0.6097 -0.4261
16029TIP3    H269503   0.942   5.915   2.669 -0.1102 -0.5387 -0.5308
16030TIP3   OH269504   5.696   2.402   1.299  0.5538  0.4265  0.4622
16030TIP3    H169505   5.775   2.429   1.347  0.6925  0.8035  0.0338
16030TIP3    H269506   5.719   2.415   1.207  0.4807 -0.8082  0.2526
16031TIP3   OH269507   6.395   0.518   1.445  0.0399  0.5261 -0.5598
16031TIP3    H169508   6.313   0.468   1.449  0.7101 -0.5183  1.3906
16031TIP3    H269509   6.371   0.599   1.399 -2.6644  1.2630  1.8508
16032TIP3   OH269510   2.554   1.477   2.615 -0.4596 -0.3451  0.4285
16032TIP3    H169511   2.547   1.568   2.585 -0.3309 -0.3049  0.5211
16032TIP3    H269512   2.480   1.466   2.675 -1.6101 -0.8627 -1.0190
16033TIP3   OH269513   2.114   0.415  10.572  0.4191 -0.6228  0.5516
16033TIP3    H169514   2.132   0.366  10.492  0.9236 -2.1569  1.5649
16033TIP3    H269515   2.032   0.461  10.554  0.3768 -1.1667 -0.7342
16034TIP3   OH269516   0.112   2.761   3.267 -0.8988 -0.2110 -0.6607
16034TIP3    H169517   0.047   2.786   3.201 -0.8929  0.8103 -0.3000
16034TIP3    H269518   0.065   2.701   3.325 -1.2272 -0.2551 -0.9679
16035TIP3   OH269519   5.247   2.285   3.686 -0.7677 -0.0712  0.0668
16035TIP3    H169520   5.249   2.256   3.594  0.8495  0.8455 -0.2106
16035TIP3    H269521   5.318   2.237   3.728 -0.1849  1.0273  0.3589
16036TIP3   OH269522   5.145   3.205   5.420  0.1558  0.4090  0.0228
16036TIP3    H169523   5.101   3.237   5.498 -0.3987  0.0003 -0.1119
16036TIP3    H269524   5.192   3.281   5.385 -1.4391  1.1981 -0.5078
16037TIP3   OH269525   5.620   5.515  12.305 -0.2369 -0.1158  0.0219
16037TIP3    H169526   5.548   5.465  12.266  1.0804 -0.7923 -1.7199
16037TIP3    H269527   5.604   5.605  12.280 -1.6874  0.1196  1.6561
16038TIP3   OH269528   4.260   4.117   3.429  0.3789 -0.2330  1.0682
16038TIP3    H169529   4.190   4.092   3.489 -0.3554 -0.9594 -0.0507
16038TIP3    H269530   4.301   4.192   3.471 -1.9476  1.1031  1.1255
16039TIP3   OH269531   0.766   2.825   0.953  0.5153 -0.1910 -0.4231
16039TIP3    H169532   0.807   2.904   0.988 -0.5873  0.0998  0.2498
16039TIP3    H269533   0.675   2.831   0.980 -0.5384  0.2227 -3.5833
16040TIP3   OH269534   4.259   1.247  13.349  0.1815 -0.0011 -0.1522
16040TIP3    H169535   4.308   1.238  13.430 -0.9895  2.0723  0.8679
16040TIP3    H269536   4.326   1.255  13.281  1.1849 -0.3659  0.7721
16041TIP3   OH269537   4.586   3.728   5.347 -0.0574 -1.1215  0.4084
16041TIP3    H169538   4.677   3.752   5.328  0.1287 -1.1161  1.2578
16041TIP3    H269539   4.566   3.775   5.428 -0.8231 -1.1167  0.2175
16042TIP3   OH269540   3.999   2.178  12.740 -0.0953  0.0771 -0.1873
16042TIP3    H169541   3.912   2.189  12.701 -0.2846  0.4782  0.3360
16042TIP3    H269542   4.059   2.184  12.666 -0.5443 -0.7061 -0.6216
16043TIP3   OH269543   6.310   4.704   0.590 -0.0331 -0.7853  0.0247
16043TIP3    H169544   6.381   4.717   0.527 -0.4884 -0.9637 -0.5433
16043TIP3    H269545   6.244   4.769   0.566  0.3705  0.0815  1.2153
16044TIP3   OH269546   4.631   5.685   2.989  0.1329  0.1691 -0.2734
16044TIP3    H169547   4.678   5.713   3.068  3.3475 -1.3912 -1.4295
16044TIP3    H269548   4.625   5.764   2.936  2.2222  0.3562 -0.3400
16045TIP3   OH269549   2.028   0.735  12.095 -0.6591  0.4973  0.3292
16045TIP3    H169550   2.047   0.681  12.018 -1.8287  0.1026  0.2936
16045TIP3    H269551   1.933   0.738  12.099 -0.6288  0.3466  1.8763
16046TIP3   OH269552   1.808   1.463  16.187  0.4998  0.6612  0.0005
16046TIP3    H169553   1.719   1.478  16.220  1.1573 -0.5671  2.5884
16046TIP3    H269554   1.809   1.372  16.158  0.5329  1.1213 -1.5506
16047TIP3   OH269555   6.337   2.684  14.885 -0.0918 -0.6791 -0.2351
16047TIP3    H169556   6.370   2.767  14.920  2.2388 -0.6161 -2.3430
16047TIP3    H269557   6.353   2.621  14.955  1.1352  0.0802  0.1997
16048TIP3   OH269558   3.830   6.414   5.103  0.5943 -0.2991  0.0352
16048TIP3    H169559   3.876   6.424   5.186 -0.4615 -0.7085  0.6944
16048TIP3    H269560   3.741   6.446   5.121  0.2347 -0.7851 -0.8169
16049TIP3   OH269561   1.013   0.525  11.541  0.3167 -0.0316  0.1681
16049TIP3    H169562   0.932   0.478  11.558  0.0405  0.1140 -0.7035
16049TIP3    H269563   1.006   0.605  11.593 -0.3744  0.2652 -0.3608
16050TIP3   OH269564   0.410   5.755   2.721 -0.3059 -0.3939  0.2632
16050TIP3    H169565   0.379   5.802   2.643  0.1559  0.9056  0.8412
16050TIP3    H269566   0.339   5.764   2.784 -0.1446 -0.3157  0.4354
16051TIP3   OH269567   3.583   1.898   5.757 -0.0186  0.0583 -0.0980
16051TIP3    H169568   3.627   1.981   5.775  0.3088  0.0350 -0.7728
16051TIP3    H269569   3.637   1.833   5.801  0.4556  0.0633 -0.6668
16052TIP3   OH269570   4.422   4.725  15.419  0.3996 -0.0096  0.3442
16052TIP3    H169571   4.422   4.632  15.440  1.7450 -0.0114  0.4254
16052TIP3    H269572   4.445   4.729  15.326 -0.6546  0.2159  0.0768
16053TIP3   OH269573   0.174   5.169  13.797 -0.5728 -0.6791 -0.4102
16053TIP3    H169574   0.131   5.240  13.749 -1.3272 -0.4078  0.6192
16053TIP3    H269575   0.176   5.096  13.736 -1.9756 -0.5147 -0.6948
16054TIP3   OH269576   4.258   2.222   4.661 -0.1272  0.1261 -0.2004
16054TIP3    H169577   4.186   2.231   4.599 -0.2295  0.3740 -0.0466
16054TIP3    H269578   4.332   2.194   4.607 -0.0169  1.0879 -0.5688
16055TIP3   OH269579   6.232   0.801   5.294 -0.2715  0.5828  0.2152
16055TIP3    H169580   6.316   0.794   5.339 -0.3206  0.6667  0.3223
16055TIP3    H269581   6.225   0.894   5.273  0.1199  0.4145 -0.6845
16056TIP3   OH269582   6.707   2.877  13.479 -0.5573  0.1463 -0.0938
16056TIP3    H169583   6.795   2.890  13.445 -1.2731  0.4524 -2.0170
16056TIP3    H269584   6.701   2.934  13.556  1.2583 -0.7845  0.7852
16057TIP3   OH269585   4.543   0.369  11.406  0.1109  0.1221  0.4397
16057TIP3    H169586   4.594   0.291  11.386  0.9436  0.9457 -0.7072
16057TIP3    H269587   4.577   0.399  11.490  0.3437 -0.2656  0.4880
16058TIP3   OH269588   6.325   3.080  12.857 -0.2759  0.0267 -0.0213
16058TIP3    H169589   6.324   3.016  12.787 -0.7698 -1.1747  1.0460
16058TIP3    H269590   6.305   3.030  12.936 -1.0496  1.5500  0.7973
16059TIP3   OH269591   3.553   1.627   2.961 -0.3627 -0.4907  0.3821
16059TIP3    H169592   3.645   1.605   2.974 -0.8524 -2.5184  0.7123
16059TIP3    H269593   3.549   1.721   2.976  1.2985 -0.6896  2.5668
16060TIP3   OH269594   3.719   6.721  16.739  0.0981  0.2060  0.3198
16060TIP3    H169595   3.630   6.703  16.771  0.5111 -0.1914  1.3086
16060TIP3    H269596   3.707   6.776  16.662 -0.9859  0.6318  0.7779
16061TIP3   OH269597   0.454   4.871  14.627 -0.7299  0.2294 -0.1851
16061TIP3    H169598   0.542   4.833  14.624 -0.3366  1.0829  0.4375
16061TIP3    H269599   0.462   4.954  14.580 -1.0244  0.6691  0.5349
16062TIP3   OH269600   4.983   4.732  16.577 -0.1231  0.4343  0.0734
16062TIP3    H169601   5.007   4.710  16.667 -0.7095  2.7767  0.8685
16062TIP3    H269602   4.900   4.778  16.584  0.4179  1.8012 -1.4957
16063TIP3   OH269603   5.403   0.558   1.654 -0.8177  0.2781  0.1661
16063TIP3    H169604   5.463   0.491   1.686  0.0594  0.9121 -0.1395
16063TIP3    H269605   5.457   0.617   1.602 -1.4591  1.6008  0.9464
16064TIP3   OH269606   0.156   4.638   0.694 -0.4497 -0.3118  0.4757
16064TIP3    H169607   0.067   4.648   0.659 -0.1051  0.6514 -0.1859
16064TIP3    H269608   0.199   4.721   0.673  1.0813 -1.3322 -0.6151
16065TIP3   OH269609   0.442   0.673  11.778 -0.8426  0.1790 -0.3957
16065TIP3    H169610   0.442   0.766  11.753  1.2958  0.1090 -0.8640
16065TIP3    H269611   0.532   0.656  11.806 -1.5949 -1.3675  1.2897
16066TIP3   OH269612   5.090   4.451   5.024  0.5974  0.4077 -0.2523
16066TIP3    H169613   5.109   4.380   5.086  1.1648 -0.2982 -1.2046
16066TIP3    H269614   5.170   4.503   5.024  0.2756  0.9139  0.2507
16067TIP3   OH269615   2.309   0.738  14.071  0.3098 -0.2011  0.3499
16067TIP3    H169616   2.351   0.680  14.135  0.2898  0.2522  0.7833
16067TIP3    H269617   2.368   0.739  13.996  1.3472  0.8379  1.1561
16068TIP3   OH269618   1.199   6.175  14.334  0.1583 -0.1388 -0.5706
16068TIP3    H169619   1.180   6.184  14.428  1.7469 -0.1097 -0.2275
16068TIP3    H269620   1.168   6.087  14.312  0.0850 -0.2747  0.0567
16069TIP3   OH269621   3.444   0.225   0.149 -0.1143 -0.7946 -0.6665
16069TIP3    H169622   3.378   0.214   0.080 -0.6623  0.3779 -0.3585
16069TIP3    H269623   3.472   0.136   0.170 -1.5541 -1.3194 -0.8688
16070TIP3   OH269624   5.964   0.747  15.249 -0.4411  0.1790  0.4305
16070TIP3    H169625   6.008   0.725  15.331  2.1434 -0.2568 -1.0002
16070TIP3    H269626   5.883   0.695  15.251  0.8387 -1.8834  1.5229
16071TIP3   OH269627   2.935   0.739  13.523 -0.2926  0.2607 -0.7650
16071TIP3    H169628   2.948   0.827  13.488 -0.6984  1.1522  1.1815
16071TIP3    H269629   2.843   0.721  13.506 -0.8402  1.2429  0.8962
16072TIP3   OH269630   2.712   5.191  15.385 -0.2392  0.2824  0.5534
16072TIP3    H169631   2.795   5.157  15.354  0.4604  1.5683  0.9463
16072TIP3    H269632   2.680   5.124  15.446 -0.7182 -1.3705 -1.3850
16073TIP3   OH269633   4.698   2.000  17.084 -0.2705  0.0348 -0.2329
16073TIP3    H169634   4.648   2.036  17.157 -0.9183 -2.1291  0.4593
16073TIP3    H269635   4.723   1.912  17.112  1.6607  0.0616 -1.6371
16074TIP3   OH269636   3.379   0.960  11.702 -0.0041 -0.1968 -0.0064
16074TIP3    H169637   3.287   0.937  11.715 -0.8316  2.6564 -0.0891
16074TIP3    H269638   3.398   0.929  11.613 -1.5178  0.8667 -0.7528
16075TIP3   OH269639   3.832   1.461   3.184 -0.0883  0.0179  0.3434
16075TIP3    H169640   3.746   1.426   3.210  0.6441 -0.4015  2.3595
16075TIP3    H269641   3.864   1.399   3.118 -1.4312  0.3362 -0.6509
16076TIP3   OH269642   5.643   3.683  12.610  0.6239  0.7089 -0.3039
16076TIP3    H169643   5.685   3.666  12.694 -0.0059  2.9879  0.5590
16076TIP3    H269644   5.686   3.761  12.576 -1.2834  1.7527 -0.4950
16077TIP3   OH269645   1.918   5.823   0.994 -0.0912  0.4568 -0.6752
16077TIP3    H169646   2.009   5.825   0.962 -0.0090  1.4915 -0.4145
16077TIP3    H269647   1.894   5.731   0.992  1.8526 -0.2100  1.7279
16078TIP3   OH269648   0.935   5.869  14.840  0.2897 -0.2238 -0.4161
16078TIP3    H169649   0.867   5.935  14.850  1.7889  1.2741  0.4923
16078TIP3    H269650   0.928   5.840  14.749 -0.7689  0.7697 -0.6689
16079TIP3   OH269651   1.117   1.518  11.344  0.1733  0.5470 -0.4345
16079TIP3    H169652   1.052   1.499  11.277  1.2043  2.2726 -2.0055
16079TIP3    H269653   1.145   1.432  11.375  1.0651 -0.4425 -3.6060
16080TIP3   OH269654   0.958   1.001   2.387  0.4249  0.3553 -0.5209
16080TIP3    H169655   0.874   0.959   2.371  1.0149 -0.4169 -1.6579
16080TIP3    H269656   0.945   1.049   2.469 -1.2065  0.4961 -0.8274
16081TIP3   OH269657   4.528   1.378   1.229  0.4703 -0.0271  0.0039
16081TIP3    H169658   4.475   1.447   1.189 -0.7460 -1.3215 -0.6982
16081TIP3    H269659   4.603   1.367   1.170 -0.8203 -1.2617 -1.4821
16082TIP3   OH269660   1.594   4.690  16.047  0.5446  0.6407  0.1277
16082TIP3    H169661   1.601   4.617  16.109  0.5507 -0.0993 -0.7388
16082TIP3    H269662   1.685   4.718  16.033  0.5896  0.4451  0.0262
16083TIP3   OH269663   6.781   2.207  16.059 -0.9751 -0.4063 -0.4158
16083TIP3    H169664   6.702   2.178  16.014 -2.5820  0.8569  1.4064
16083TIP3    H269665   6.749   2.257  16.134  1.5895  0.9916 -0.1387
16084TIP3   OH269666   2.379   3.948   4.203  0.3398 -0.4089  0.7221
16084TIP3    H169667   2.417   3.879   4.257 -1.3431 -2.2872 -0.3422
16084TIP3    H269668   2.414   3.932   4.115 -0.6230 -0.3820  0.3174
16085TIP3   OH269669   6.230   4.381   6.760 -0.2006  0.2734 -0.4621
16085TIP3    H169670   6.204   4.374   6.669 -1.4047  2.5414 -0.3806
16085TIP3    H269671   6.237   4.475   6.776 -0.3200 -0.0401  1.8558
16086TIP3   OH269672   4.146   1.037  17.011  0.3374 -0.9686  0.1427
16086TIP3    H169673   4.230   1.069  16.979 -0.3169  0.5543 -0.1392
16086TIP3    H269674   4.096   1.016  16.932 -1.1545  2.4732 -0.0470
16087TIP3   OH269675   1.747   1.570   0.867  0.0473  0.2282  0.1052
16087TIP3    H169676   1.829   1.521   0.871  0.9101  1.5007 -0.8784
16087TIP3    H269677   1.696   1.525   0.800 -0.0799 -0.5867  0.7369
16088TIP3   OH269678   4.907   2.145  10.668  0.3279 -0.6312  0.0512
16088TIP3    H169679   4.902   2.054  10.698  0.7305 -0.3069  1.1224
16088TIP3    H269680   4.984   2.181  10.712 -1.5206  1.1081  2.0979
16089TIP3   OH269681   0.262   3.076  13.705  0.0918  0.2711  0.5398
16089TIP3    H169682   0.194   3.143  13.703 -0.0019  0.1628 -0.3090
16089TIP3    H269683   0.345   3.124  13.709  0.0393  0.4481 -0.4467
16090TIP3   OH269684   5.294   1.949   5.253 -0.3430 -0.7570 -0.0089
16090TIP3    H169685   5.336   1.894   5.319 -0.3323 -0.7098  0.0234
16090TIP3    H269686   5.205   1.915   5.246  0.2240 -2.1007 -1.4375
16091TIP3   OH269687   2.594   5.515   4.353  0.0295 -0.2497  0.2145
16091TIP3    H169688   2.679   5.559   4.355  0.0871 -0.2580 -0.9404
16091TIP3    H269689   2.596   5.466   4.271 -1.0572 -0.3290  0.2284
16092TIP3   OH269690   6.455   4.117  13.800  0.6182 -0.0937  0.4187
16092TIP3    H169691   6.441   4.023  13.783  2.1307 -0.2874  0.1367
16092TIP3    H269692   6.376   4.159  13.766 -0.2720 -1.2860  0.9085
16093TIP3   OH269693   5.281   2.200   3.430  0.2058 -0.0955  0.1617
16093TIP3    H169694   5.271   2.113   3.392  1.4510 -1.1506  2.0876
16093TIP3    H269695   5.279   2.259   3.355 -1.9819 -1.6262 -1.1002
16094TIP3   OH269696   3.510   1.309  13.766 -0.6105  0.0583  0.5467
16094TIP3    H169697   3.575   1.348  13.708  0.4542 -3.7019 -1.1244
16094TIP3    H269698   3.561   1.269  13.837 -1.0237 -2.3307 -0.4021
16095TIP3   OH269699   4.339   4.145   2.476 -0.6479 -0.0403 -0.2507
16095TIP3    H169700   4.395   4.111   2.406 -0.1709  0.9075 -0.3447
16095TIP3    H269701   4.401   4.184   2.539 -1.2243  1.8131 -0.7814
16096TIP3   OH269702   2.785   6.019  13.650 -0.1666  0.4162  0.0097
16096TIP3    H169703   2.878   6.038  13.637 -0.2450  1.3168  0.6284
16096TIP3    H269704   2.739   6.090  13.605 -0.5407  0.3725  0.3116
16097TIP3   OH269705   4.513   6.580  15.936 -0.1975 -0.0369  0.4766
16097TIP3    H169706   4.608   6.586  15.932 -0.2077 -0.0150  0.2331
16097TIP3    H269707   4.485   6.662  15.976 -0.1478  0.2120  0.0109
16098TIP3   OH269708   5.935   0.577  14.315 -0.2081 -0.1879 -0.2238
16098TIP3    H169709   5.984   0.535  14.244 -0.4929  0.6489 -0.9257
16098TIP3    H269710   5.954   0.523  14.392 -0.8054 -1.7941 -1.1437
16099TIP3   OH269711   3.612   4.785  17.080  0.0726 -0.6574 -0.8523
16099TIP3    H169712   3.546   4.744  17.023 -0.6775 -1.4373  0.4926
16099TIP3    H269713   3.568   4.863  17.114 -0.0216 -0.9590 -0.2700
16100TIP3   OH269714   5.158   1.803   5.980  0.5515 -0.2298 -0.0088
16100TIP3    H169715   5.063   1.793   5.991 -0.0336  0.7003 -3.0343
16100TIP3    H269716   5.177   1.891   6.012 -0.2314  0.7106 -1.9414
16101TIP3   OH269717   1.066   2.892  16.052  0.2702  0.5140  0.2332
16101TIP3    H169718   1.048   2.911  16.145 -1.8964 -0.6967  0.1150
16101TIP3    H269719   1.011   2.955  16.005  1.0994  0.8833 -0.2670
16102TIP3   OH269720   6.300   4.873   4.037 -0.0126 -0.4984 -0.3360
16102TIP3    H169721   6.209   4.894   4.018  0.1594  0.6205 -0.0395
16102TIP3    H269722   6.333   4.834   3.956 -0.5041 -0.0271 -0.7791
16103TIP3   OH269723   0.321   0.331  12.315  0.5029  0.5843 -0.0152
16103TIP3    H169724   0.344   0.393  12.246 -1.2752  0.1257 -1.1108
16103TIP3    H269725   0.231   0.304  12.294  0.1063 -0.0299  2.1602
16104TIP3   OH269726   6.110   6.645  12.051  0.0026 -0.4828 -0.3335
16104TIP3    H169727   6.069   6.732  12.054  1.1709  0.1028  2.7408
16104TIP3    H269728   6.046   6.587  12.093  0.7547 -0.2846  1.1469
16105TIP3   OH269729   1.255   2.127  13.082 -0.1492  0.3958 -0.5328
16105TIP3    H169730   1.273   2.066  13.010  0.6835  1.4668 -1.2631
16105TIP3    H269731   1.224   2.072  13.153 -1.3809 -0.6652 -1.8295
16106TIP3   OH269732   5.827   5.333   5.836  0.1810 -0.8308 -0.0322
16106TIP3    H169733   5.819   5.285   5.754  1.2886 -1.2612  0.0925
16106TIP3    H269734   5.753   5.305   5.889 -0.8784 -0.1132 -1.0861
16107TIP3   OH269735   5.486   2.796  15.017  0.2140 -0.4714  0.2591
16107TIP3    H169736   5.540   2.767  15.090 -0.7263 -1.9107  0.4304
16107TIP3    H269737   5.423   2.857  15.057  1.1471  0.5521  0.2062
16108TIP3   OH269738   1.796   2.231  13.033  0.3122 -0.1756  0.1649
16108TIP3    H169739   1.708   2.201  13.057 -1.0468  1.7042 -2.0072
16108TIP3    H269740   1.831   2.271  13.113 -1.1008 -0.3101  0.8778
16109TIP3   OH269741   2.718   1.265   3.218 -0.1946  0.3351  0.1674
16109TIP3    H169742   2.719   1.182   3.169 -0.6882  0.9305 -0.8930
16109TIP3    H269743   2.787   1.317   3.178  0.3433  0.3125  1.0616
16110TIP3   OH269744   4.913   3.089   0.244  0.0422  0.4388  0.1589
16110TIP3    H169745   4.892   2.996   0.259 -2.0131  0.9716  0.9104
16110TIP3    H269746   4.920   3.126   0.332  1.9592  0.8155 -0.1115
16111TIP3   OH269747   1.442   2.359   5.335 -0.2862  0.2297 -0.1622
16111TIP3    H169748   1.366   2.339   5.281  0.0940 -0.5104 -0.4388
16111TIP3    H269749   1.440   2.293   5.405  0.4073 -0.1534 -0.4930
16112TIP3   OH269750   5.851   1.482  13.085  0.1967  0.3675  0.3057
16112TIP3    H169751   5.773   1.505  13.035 -0.3513  1.4231  1.6070
16112TIP3    H269752   5.864   1.389  13.066 -0.0940  0.6797 -1.6187
16113TIP3   OH269753   6.555   2.848  14.082 -0.2326 -0.0801  0.2340
16113TIP3    H169754   6.630   2.847  14.021 -0.7361 -1.9542 -0.4252
16113TIP3    H269755   6.588   2.895  14.159  1.2651  0.0905 -0.4591
16114TIP3   OH269756   4.717   3.836  16.719  0.1870  0.0374 -0.4254
16114TIP3    H169757   4.695   3.749  16.686  2.1811 -0.7291  0.0925
16114TIP3    H269758   4.739   3.822  16.811 -1.2459  1.4317  0.1776
16115TIP3   OH269759   6.548   0.388  16.855 -0.3632 -0.2546  0.1187
16115TIP3    H169760   6.565   0.430  16.772 -2.3608  0.8258  0.2094
16115TIP3    H269761   6.514   0.457  16.911 -0.0178 -1.1794  1.5393
16116TIP3   OH269762   5.271   1.311  15.236 -0.0849 -0.1188 -0.2302
16116TIP3    H169763   5.227   1.374  15.179  1.6704  0.6109 -0.8142
16116TIP3    H269764   5.201   1.250  15.262 -1.3522  0.7682 -1.4264
16117TIP3   OH269765   4.752   3.539  11.035  0.5592  0.1203  1.0449
16117TIP3    H169766   4.776   3.621  10.991  1.4426 -0.4794  0.3724
16117TIP3    H269767   4.668   3.515  10.997  0.9286  0.0329  0.2638
16118TIP3   OH269768   4.226   0.019   0.116  0.1265  0.0567 -0.2750
16118TIP3    H169769   4.164   0.039   0.046 -1.3543 -3.3982 -0.1420
16118TIP3    H269770   4.174   0.026   0.196  0.7422  0.0759  0.1259
16119TIP3   OH269771   6.572   4.551  15.129 -0.0991  0.3414 -0.4213
16119TIP3    H169772   6.656   4.564  15.173 -0.2780 -1.3439  0.4884
16119TIP3    H269773   6.506   4.574  15.195 -0.3668  0.4194 -0.7124
16120TIP3   OH269774   0.109   3.377   1.128  0.4223 -0.0072  0.5317
16120TIP3    H169775   0.136   3.455   1.177 -2.2209  2.0032 -0.9514
16120TIP3    H269776   0.187   3.353   1.077  1.2878  1.7099  0.9768
16121TIP3   OH269777   1.932   0.648   3.853 -0.1659 -0.0150  0.1639
16121TIP3    H169778   1.938   0.561   3.893 -0.3228  0.6533  1.7129
16121TIP3    H269779   1.997   0.700   3.900  1.3666  0.2529 -2.0929
16122TIP3   OH269780   4.913   2.722   6.667  0.1726 -0.0172  0.3705
16122TIP3    H169781   4.990   2.678   6.702  0.1465  0.3658  0.9137
16122TIP3    H269782   4.946   2.802   6.626 -0.0179  0.5636  1.3287
16123TIP3   OH269783   1.959   5.973   4.081  0.2424  0.0547  0.2165
16123TIP3    H169784   1.892   5.942   4.020  2.1288 -2.0803 -0.8826
16123TIP3    H269785   1.979   6.062   4.050 -0.3094 -0.2123 -0.9705
16124TIP3   OH269786   6.512   4.512  13.668 -0.0320 -0.1544 -0.3393
16124TIP3    H169787   6.487   4.504  13.760  1.3309 -0.6387  0.0199
16124TIP3    H269788   6.604   4.485  13.666 -0.3385 -1.2145 -2.0150
16125TIP3   OH269789   0.750   0.865   1.603  0.3753 -0.3154  0.2655
16125TIP3    H169790   0.662   0.865   1.640 -0.2846 -2.1019 -1.1593
16125TIP3    H269791   0.744   0.920   1.525  0.8230  0.4701  0.7762
16126TIP3   OH269792   2.122   0.741  10.617  0.2446 -0.6910  0.0922
16126TIP3    H169793   2.165   0.700  10.542  1.1542 -0.6871  0.5979
16126TIP3    H269794   2.193   0.756  10.680 -0.4191 -0.2165  0.7385
16127TIP3   OH269795   1.873   3.678  13.736 -0.1154 -0.3424 -0.1354
16127TIP3    H169796   1.901   3.728  13.660  1.7832 -0.7446  0.2599
16127TIP3    H269797   1.900   3.731  13.811 -1.7759 -0.0518  0.2896
16128TIP3   OH269798   2.761   3.117  14.751 -0.5006 -0.0691  0.3121
16128TIP3    H169799   2.687   3.176  14.739 -0.9808 -0.6145  0.5028
16128TIP3    H269800   2.730   3.032  14.718  0.0964 -0.2706  0.2424
16129TIP3   OH269801   4.668   0.154  13.951  0.4283  0.4598 -0.2952
16129TIP3    H169802   4.730   0.085  13.976  1.2363  0.6723 -1.5998
16129TIP3    H269803   4.722   0.219  13.906 -0.5652  1.2278 -0.3990
16130TIP3   OH269804   1.112   3.512  12.442  0.4357 -0.0258 -0.3618
16130TIP3    H169805   1.050   3.471  12.382 -0.1155 -0.3616  0.4261
16130TIP3    H269806   1.140   3.441  12.501  0.1692  0.5188  0.4381
16131TIP3   OH269807   1.606   5.673   4.461 -0.5285  0.0938  0.0998
16131TIP3    H169808   1.636   5.654   4.550  0.9303 -0.1997 -0.4351
16131TIP3    H269809   1.517   5.638   4.458  0.6717 -3.3323  0.3349
16132TIP3   OH269810   4.908   0.693  16.496 -0.0440 -0.2876  0.2204
16132TIP3    H169811   5.000   0.682  16.472  0.0998 -0.6207  0.9030
16132TIP3    H269812   4.896   0.788  16.500  0.1931 -0.2392 -0.1340
16133TIP3   OH269813   1.857   4.366   0.575 -0.4839 -0.7748  0.0124
16133TIP3    H169814   1.847   4.382   0.669  0.6657  1.0751 -0.1301
16133TIP3    H269815   1.934   4.311   0.568 -0.7125 -1.1148  0.1691
16134TIP3   OH269816   1.114   2.137  13.960 -0.4924 -0.1011 -0.7014
16134TIP3    H169817   1.167   2.206  14.001  0.3383 -0.0179 -1.8561
16134TIP3    H269818   1.106   2.069  14.028  2.9945 -1.1293 -1.1159
16135TIP3   OH269819   0.035   3.625  12.071  0.3738  0.3573 -0.5990
16135TIP3    H169820   0.006   3.575  11.995 -0.4989  0.4581 -0.3451
16135TIP3    H269821   0.023   3.717  12.045  0.0059  0.3902 -0.3214
16136TIP3   OH269822   3.348   2.116  11.614 -0.6389  0.0629 -0.0914
16136TIP3    H169823   3.299   2.112  11.531 -0.7879  2.4186 -0.1931
16136TIP3    H269824   3.410   2.187  11.601 -0.7382  0.5494  1.8484
16137TIP3   OH269825   3.592   4.887   3.094  0.2435 -0.2320  0.3113
16137TIP3    H169826   3.622   4.973   3.066  0.9105 -0.4714  0.2779
16137TIP3    H269827   3.501   4.901   3.120 -0.0704  0.2087 -0.9466
16138TIP3   OH269828   3.628   1.471  13.310  0.2096  0.0634  0.0890
16138TIP3    H169829   3.614   1.376  13.309 -0.4431  0.1458  0.7997
16138TIP3    H269830   3.672   1.488  13.393  0.7487  0.3325 -0.2483
16139TIP3   OH269831   3.503   0.373  14.633 -0.1385 -0.2684 -0.5710
16139TIP3    H169832   3.430   0.435  14.625  0.1413  0.0914 -0.4101
16139TIP3    H269833   3.523   0.373  14.727 -0.9239 -1.5401 -0.3753
16140TIP3   OH269834   0.567   4.326   2.449 -0.0657  0.4332  0.3107
16140TIP3    H169835   0.514   4.353   2.524 -0.6631  1.4520 -0.4493
16140TIP3    H269836   0.597   4.408   2.410  1.6480 -0.1157  0.3976
16141TIP3   OH269837   2.454   2.704   3.984 -0.1644 -0.1961  0.3320
16141TIP3    H169838   2.465   2.798   3.998 -1.2137  0.2067 -1.2091
16141TIP3    H269839   2.359   2.691   3.980 -0.0432 -1.3767  0.7953
16142TIP3   OH269840   0.891   2.332   5.283  0.1361 -0.0734 -0.0824
16142TIP3    H169841   0.901   2.426   5.303  3.9113 -0.2694 -0.2953
16142TIP3    H269842   0.833   2.299   5.352  2.0333  1.7371  2.6005
16143TIP3   OH269843   4.157   5.270   4.057 -0.2927 -0.1803  0.0198
16143TIP3    H169844   4.099   5.315   3.995  0.3889 -0.4623 -0.8462
16143TIP3    H269845   4.212   5.214   4.002  0.1004 -0.6988  0.9185
16144TIP3   OH269846   6.106   0.968   3.193 -0.0677 -0.2788 -0.4647
16144TIP3    H169847   6.052   0.966   3.272  0.0798  1.2897 -0.2916
16144TIP3    H269848   6.054   1.020   3.130  0.5917  0.0091 -0.7816
16145TIP3   OH269849   0.949   4.488   4.821 -0.3559 -0.4362 -0.2385
16145TIP3    H169850   0.960   4.566   4.768  0.8662 -1.5808 -1.7698
16145TIP3    H269851   1.033   4.443   4.816 -0.7474 -1.4319  1.3027
16146TIP3   OH269852   5.267   4.308  12.943  0.5835 -0.0631 -0.1278
16146TIP3    H169853   5.202   4.374  12.968  0.8262 -0.0286  0.4429
16146TIP3    H269854   5.218   4.243  12.893  0.8372  1.9335 -3.2243
16147TIP3   OH269855   4.495   6.033   2.892 -0.4013 -0.1502  0.0768
16147TIP3    H169856   4.452   6.008   2.974 -0.3704 -2.3440 -0.4982
16147TIP3    H269857   4.434   6.095   2.852 -1.4767 -0.6881  0.7969
16148TIP3   OH269858   6.190   3.049  11.923  0.1230 -0.5392 -0.0145
16148TIP3    H169859   6.236   3.110  11.865 -0.1513 -1.8033 -1.6260
16148TIP3    H269860   6.114   3.098  11.955  0.0825  0.0772 -1.0202
16149TIP3   OH269861   5.171   5.091  15.094  0.3768  0.3849  0.6448
16149TIP3    H169862   5.160   5.179  15.131  1.8750  0.1959  1.6086
16149TIP3    H269863   5.236   5.102  15.025 -0.8000  0.3316 -0.5202
16150TIP3   OH269864   5.354   4.235  16.396  0.3326 -0.1830 -0.1536
16150TIP3    H169865   5.344   4.140  16.398 -2.4270  0.0406  0.8356
16150TIP3    H269866   5.265   4.269  16.397  1.2220  2.4493 -0.6014
16151TIP3   OH269867   1.284   3.522   5.617  0.6513  0.3329  0.1825
16151TIP3    H169868   1.300   3.561   5.531 -0.3710  0.8469  0.1999
16151TIP3    H269869   1.350   3.561   5.674  0.5789  0.9069 -0.1222
16152TIP3   OH269870   4.816   4.618  16.407  0.1376  0.1826  0.1508
16152TIP3    H169871   4.752   4.658  16.465  1.5055  1.7447  0.6653
16152TIP3    H269872   4.900   4.629  16.452  0.9089 -1.0120 -0.8969
16153TIP3   OH269873   0.907   3.660   5.607  0.2067 -0.0134 -0.1271
16153TIP3    H169874   0.816   3.669   5.634  0.5412  1.8278  0.5703
16153TIP3    H269875   0.904   3.652   5.512 -0.6623  0.6612 -0.1681
16154TIP3   OH269876   5.943   5.530   3.022 -0.0091 -0.3783 -0.1777
16154TIP3    H169877   5.996   5.475   3.081 -2.5169 -1.6462  1.0709
16154TIP3    H269878   5.907   5.597   3.080 -1.9926 -1.2541 -0.3154
16155TIP3   OH269879   3.377   4.714  14.379 -0.1746 -0.5388  0.0473
16155TIP3    H169880   3.385   4.654  14.453  2.2357 -1.0134 -0.5078
16155TIP3    H269881   3.397   4.661  14.302  0.6839  0.6669 -0.5882
16156TIP3   OH269882   5.216   1.398   1.461 -0.1919  0.3701  0.1022
16156TIP3    H169883   5.151   1.340   1.501 -0.6285 -1.3085 -2.7058
16156TIP3    H269884   5.298   1.348   1.465 -0.2915  0.0642 -1.1803
16157TIP3   OH269885   4.745   5.274  13.858  0.1869  0.4603 -0.2612
16157TIP3    H169886   4.797   5.209  13.906 -0.6728 -0.9301 -1.1446
16157TIP3    H269887   4.790   5.357  13.874  1.8541 -0.4756  0.1592
16158TIP3   OH269888   5.216   0.824   4.268  0.0966 -0.1164  0.0375
16158TIP3    H169889   5.297   0.785   4.234  0.1981  0.2287 -0.1205
16158TIP3    H269890   5.216   0.803   4.361  0.5497  0.1962  0.1079
16159TIP3   OH269891   3.132   6.232  13.090  0.1026 -0.5438 -0.0444
16159TIP3    H169892   3.101   6.265  13.174 -0.2900  0.3799 -0.5380
16159TIP3    H269893   3.135   6.137  13.100 -0.7280 -0.4909  0.7380
16160TIP3   OH269894   3.109   5.665  13.822 -0.4518  0.0584  0.2844
16160TIP3    H169895   3.157   5.586  13.846  0.2976  0.9148  1.7711
16160TIP3    H269896   3.160   5.704  13.751 -0.1089 -0.1339  0.4223
16161TIP3   OH269897   5.994   0.439   1.106 -0.1305 -0.4131 -0.3289
16161TIP3    H169898   6.088   0.443   1.124 -0.1406 -0.4482 -0.2676
16161TIP3    H269899   5.964   0.362   1.156 -0.0728 -0.7902 -0.8652
16162TIP3   OH269900   0.622   2.697  11.161  0.5895  0.1110 -0.2015
16162TIP3    H169901   0.689   2.766  11.161 -1.0167  1.7838 -1.0637
16162TIP3    H269902   0.653   2.634  11.096  3.0148 -1.0613  1.8943
16163TIP3   OH269903   6.176   5.410   0.308 -0.2816  0.1913 -0.6320
16163TIP3    H169904   6.193   5.392   0.215  1.5072 -0.1340 -0.2853
16163TIP3    H269905   6.168   5.505   0.314  1.6135  0.4067 -0.8688
16164TIP3   OH269906   0.759   2.664  11.453  0.3065 -0.7837  0.4983
16164TIP3    H169907   0.746   2.640  11.544  0.1426 -0.4167  0.5751
16164TIP3    H269908   0.687   2.724  11.433  0.8377 -0.1529  0.4000
16165TIP3   OH269909   2.115   5.458   4.015 -0.1878  0.3375 -0.1117
16165TIP3    H169910   2.150   5.420   3.934 -3.7014  0.9598 -2.1453
16165TIP3    H269911   2.032   5.412   4.030 -0.4083  1.3471  2.2795
16166TIP3   OH269912   5.366   3.941   4.911 -0.1339 -0.3466 -0.0763
16166TIP3    H169913   5.288   3.959   4.860 -0.0102 -1.5020 -0.7041
16166TIP3    H269914   5.401   3.859   4.875  1.7336  0.4744 -0.2592
16167TIP3   OH269915   3.923   6.487   1.536  0.4937  0.1463 -0.1170
16167TIP3    H169916   3.935   6.516   1.626  0.5620  0.5760 -0.2627
16167TIP3    H269917   3.871   6.407   1.543 -0.2542  0.6486  0.2592
16168TIP3   OH269918   2.831   2.271  11.588  0.1360  0.1419 -0.2031
16168TIP3    H169919   2.760   2.263  11.652  1.1216 -0.0666  0.8767
16168TIP3    H269920   2.814   2.202  11.524  0.4711 -1.2051  1.1333
16169TIP3   OH269921   0.057   2.281   4.013  0.4473 -0.2685  0.1891
16169TIP3    H169922   0.015   2.220   3.952 -0.7889 -0.8607  1.5734
16169TIP3    H269923   0.068   2.361   3.962  0.9998 -1.2498 -1.3044
16170TIP3   OH269924   4.515   2.661  15.008 -0.2635 -0.4312 -0.3472
16170TIP3    H169925   4.460   2.593  14.971 -0.7482 -0.2159 -0.0391
16170TIP3    H269926   4.486   2.742  14.965 -0.4872 -0.2539  0.1307
16171TIP3   OH269927   5.852   3.044   4.751  0.0835  0.0978 -0.0335
16171TIP3    H169928   5.766   3.082   4.762  0.1472  0.5877 -1.1547
16171TIP3    H269929   5.884   3.031   4.840 -1.3595 -0.6231  0.4150
16172TIP3   OH269930   0.694   0.766  11.637 -0.0379  0.2864  0.0836
16172TIP3    H169931   0.767   0.741  11.694  0.6904  0.2353 -0.8542
16172TIP3    H269932   0.734   0.817  11.567 -0.7706 -0.4501 -0.9083
16173TIP3   OH269933   3.990   4.005  12.544 -0.3717 -0.2134  0.0251
16173TIP3    H169934   4.009   4.019  12.452 -0.6265  0.4536  0.0662
16173TIP3    H269935   3.900   4.036  12.555 -0.7555 -1.3500  0.2630
16174TIP3   OH269936   5.394   0.665   2.033  0.0402  0.5387  0.2890
16174TIP3    H169937   5.300   0.682   2.031  0.2687  1.9980 -2.4107
16174TIP3    H269938   5.402   0.572   2.011 -0.7621  0.7410 -0.9603
16175TIP3   OH269939   0.653   2.703   1.994  0.3259  0.0729 -0.7945
16175TIP3    H169940   0.635   2.787   1.951  1.5889  1.4258  1.1777
16175TIP3    H269941   0.740   2.713   2.032 -0.2407 -1.4498  1.0675
16176TIP3   OH269942   0.495   5.059  16.776  0.5486  0.7278  0.7339
16176TIP3    H169943   0.421   4.999  16.787 -0.0571  1.1719 -0.8096
16176TIP3    H269944   0.557   5.030  16.843 -1.0988  0.5205  2.2659
16177TIP3   OH269945   5.785   5.217   1.320 -0.0391 -0.0566  0.1227
16177TIP3    H169946   5.775   5.297   1.269  0.9807 -0.6688 -1.1064
16177TIP3    H269947   5.755   5.240   1.408 -1.6679  1.0968 -0.6871
16178TIP3   OH269948   3.995   4.321  16.664  0.3478 -0.3117  0.3877
16178TIP3    H169949   3.937   4.368  16.723  0.1936 -0.8740  0.6882
16178TIP3    H269950   4.042   4.390  16.617  0.4027  0.1411  1.0896
16179TIP3   OH269951   1.964   4.077  15.501 -0.5478 -0.9814 -0.4778
16179TIP3    H169952   1.952   4.155  15.555 -0.9744 -0.2398 -1.6092
16179TIP3    H269953   2.010   4.015  15.558 -0.9852 -0.2358  0.7283
16180TIP3   OH269954   5.281   1.495  14.686 -0.4624 -0.1087 -0.0311
16180TIP3    H169955   5.374   1.510  14.675 -0.3424 -2.0239 -3.0425
16180TIP3    H269956   5.271   1.400  14.674 -2.8540  0.1922 -1.0655
16181TIP3   OH269957   0.162   6.312  12.979  0.0996  0.5731  0.2360
16181TIP3    H169958   0.153   6.262  13.059  1.3375  0.5760  0.3899
16181TIP3    H269959   0.095   6.276  12.920  0.5175 -0.8058  0.5714
16182TIP3   OH269960   2.597   6.231  14.908  0.0098  0.0784 -0.4537
16182TIP3    H169961   2.623   6.139  14.921 -2.1794 -0.6039 -0.4151
16182TIP3    H269962   2.506   6.225  14.877 -0.8893  2.2853  1.5211
16183TIP3   OH269963   2.566   5.726  16.274  0.1286 -0.4654  0.6757
16183TIP3    H169964   2.644   5.681  16.307  1.3842  0.1534 -1.2841
16183TIP3    H269965   2.572   5.718  16.178 -2.5323 -0.8891  0.4614
16184TIP3   OH269966   3.327   4.456   0.202 -0.1352 -0.3067 -0.2099
16184TIP3    H169967   3.405   4.484   0.155  0.3132 -0.0557  0.6657
16184TIP3    H269968   3.281   4.537   0.222 -1.0627 -0.4941 -1.4244
16185TIP3   OH269969   6.223   4.073  14.692 -0.3246  0.3224 -0.3317
16185TIP3    H169970   6.182   4.140  14.637  0.0789  0.2426 -0.7372
16185TIP3    H269971   6.300   4.045  14.642 -0.2845 -0.1790  0.0037
16186TIP3   OH269972   6.500   1.568  13.397  0.1713  0.2277  0.1344
16186TIP3    H169973   6.568   1.501  13.387 -0.5357 -0.4461 -0.1739
16186TIP3    H269974   6.418   1.519  13.403 -0.5734  1.1078 -2.0059
16187TIP3   OH269975   2.320   4.203  15.774  0.1991  0.2869  0.4808
16187TIP3    H169976   2.386   4.178  15.709  0.0418 -0.7832  0.7059
16187TIP3    H269977   2.331   4.140  15.845 -0.4874  0.6314  0.9033
16188TIP3   OH269978   2.040   4.668  12.847 -0.0800 -0.4786  0.1097
16188TIP3    H169979   2.110   4.732  12.862 -2.1677  1.4829  2.5689
16188TIP3    H269980   2.031   4.663  12.752  3.1816 -0.6802 -0.2987
16189TIP3   OH269981   5.798   4.294  10.468  0.3964 -0.5869  0.1553
16189TIP3    H169982   5.775   4.332  10.553 -1.5279 -0.3929 -0.4220
16189TIP3    H269983   5.720   4.249  10.439  0.1429  1.3511 -2.5906
16190TIP3   OH269984   5.935   6.198   5.252 -0.0670  0.0531 -0.3161
16190TIP3    H169985   5.971   6.280   5.219 -0.4635 -0.3943 -1.9426
16190TIP3    H269986   5.987   6.178   5.330  1.3772  0.8155 -1.0499
16191TIP3   OH269987   0.684   2.065   3.535 -0.2842 -0.3336  0.8099
16191TIP3    H169988   0.620   2.051   3.605 -0.5824 -2.0888  0.2301
16191TIP3    H269989   0.723   1.979   3.520  1.2170  0.4175  0.1703
16192TIP3   OH269990   1.981   6.121  17.031 -0.1403 -0.1421 -0.5030
16192TIP3    H169991   1.963   6.169  17.112  0.1323 -1.2789  0.2542
16192TIP3    H269992   1.942   6.176  16.962 -1.5312  0.2293  0.5178
16193TIP3   OH269993   4.474   5.596  12.176 -0.0669 -0.1424 -0.3195
16193TIP3    H169994   4.532   5.628  12.244 -0.4727  0.5138 -0.2801
16193TIP3    H269995   4.510   5.510  12.153  1.9230  0.9176 -1.4777
16194TIP3   OH269996   6.675   1.796  16.908 -0.6111 -0.3234 -0.0898
16194TIP3    H169997   6.691   1.863  16.843 -1.2196  0.5917  0.6662
16194TIP3    H269998   6.743   1.809  16.974 -0.2384 -0.9849 -0.3355
16195TIP3   OH269999   4.207   0.962  12.274  0.4432  0.4539  0.1360
16195TIP3    H170000   4.228   0.919  12.358 -0.9870 -1.0375 -0.2167
16195TIP3    H270001   4.112   0.967  12.273  0.4291  0.3329 -1.4502
16196TIP3   OH270002   5.832   5.164  12.875  0.1195  0.4372  0.0973
16196TIP3    H170003   5.768   5.202  12.815  0.1427  0.7244  0.2551
16196TIP3    H270004   5.794   5.079  12.899 -0.9853  1.2654  1.4330
16197TIP3   OH270005   2.514   3.904   3.955 -0.2677 -0.2330 -1.1877
16197TIP3    H170006   2.565   3.848   3.896 -0.6300  0.0746 -1.7978
16197TIP3    H270007   2.445   3.941   3.900 -0.8478 -0.2379 -0.4875
16198TIP3   OH270008   0.039   5.154   5.680  0.6332  0.1844 -0.1921
16198TIP3    H170009   0.089   5.117   5.752 -0.9190  1.6109  1.7364
16198TIP3    H270010  -0.005   5.230   5.718 -0.7966  0.5990 -2.4802
16199TIP3   OH270011   0.175   2.128   2.381  0.1269  0.1056 -0.1873
16199TIP3    H170012   0.216   2.116   2.296 -0.1241 -0.1196 -0.2784
16199TIP3    H270013   0.168   2.223   2.391  2.6864  0.2676  0.8040
16200TIP3   OH270014   0.072   0.407   2.710  0.2741 -0.6886  0.5930
16200TIP3    H170015   0.164   0.398   2.734  0.6715  0.2451 -0.5012
16200TIP3    H270016   0.072   0.413   2.614 -0.9083 -0.5210  0.5813
16201TIP3   OH270017   6.482   1.776   4.081 -0.7737 -0.0889  0.3980
16201TIP3    H170018   6.416   1.801   4.016 -0.7169  2.3069  1.1611
16201TIP3    H270019   6.547   1.727   4.031 -3.0614 -2.6151 -0.3649
16202TIP3   OH270020   3.435   1.897  12.638  0.0096  0.0391 -0.5383
16202TIP3    H170021   3.466   1.987  12.648  0.4697 -0.2272  0.6914
16202TIP3    H270022   3.491   1.846  12.696 -3.2096 -0.3671  2.5895
16203TIP3   OH270023   4.149   4.104  16.563  0.2562 -0.6817  0.3011
16203TIP3    H170024   4.223   4.161  16.548  0.8541 -1.3762  0.5527
16203TIP3    H270025   4.077   4.163  16.586  0.4539  0.0602 -0.9489
16204TIP3   OH270026   0.671   3.754   1.961 -0.5826  0.1586  0.2749
16204TIP3    H170027   0.681   3.659   1.971  1.4342  0.3258  0.3088
16204TIP3    H270028   0.577   3.769   1.971 -0.9746 -1.8397  0.1579
16205TIP3   OH270029   5.965   0.490  16.871 -0.1080 -0.5457  0.4330
16205TIP3    H170030   5.998   0.526  16.953 -2.1692  2.0840  0.2252
16205TIP3    H270031   5.991   0.554  16.805 -0.6795 -1.3273 -0.5772
16206TIP3   OH270032   0.123   5.533   6.019  0.2498 -0.6581  0.1386
16206TIP3    H170033   0.172   5.597   6.070 -0.9400  0.5177 -0.1503
16206TIP3    H270034   0.046   5.513   6.073 -0.3344 -0.4237 -0.5983
16207TIP3   OH270035   1.141   4.027   2.449  0.5255 -0.3508 -0.2550
16207TIP3    H170036   1.206   3.999   2.513  0.2311  0.7259  0.5562
16207TIP3    H270037   1.066   4.055   2.502  0.0667  0.0403 -1.0901
16208TIP3   OH270038   2.945   0.917  14.976  0.3585  0.7477  0.2216
16208TIP3    H170039   2.885   0.843  14.974  1.1352  0.1154  0.0879
16208TIP3    H270040   2.897   0.988  14.933 -0.2848  0.2472  0.1100
16209TIP3   OH270041   4.101   6.540  16.545 -0.3903  0.6630 -0.0122
16209TIP3    H170042   4.177   6.494  16.580 -0.2037  0.6816 -0.3937
16209TIP3    H270043   4.105   6.527  16.451 -1.3557 -0.0825  0.0304
16210TIP3   OH270044   5.230   6.685  16.420  0.7467  0.3555 -0.4262
16210TIP3    H170045   5.305   6.643  16.461  1.1626  1.5772  0.1221
16210TIP3    H270046   5.265   6.766  16.383 -0.3350  1.0838  0.0727
16211TIP3   OH270047   5.024   3.574   2.937  0.0096  0.0513  0.3847
16211TIP3    H170048   5.000   3.487   2.905  0.2358 -0.1320  0.7123
16211TIP3    H270049   5.087   3.607   2.872 -1.5653  0.8012 -0.8453
16212TIP3   OH270050   3.488   3.265  16.439  0.1188  0.2588 -0.6282
16212TIP3    H170051   3.462   3.346  16.394 -0.7961  0.2586 -0.1215
16212TIP3    H270052   3.439   3.267  16.521  0.1006 -0.8076 -0.6078
16213TIP3   OH270053   2.398   0.217   0.265 -0.4596  0.0901 -0.3552
16213TIP3    H170054   2.468   0.212   0.330  2.1885 -1.6215 -3.0908
16213TIP3    H270055   2.350   0.135   0.276 -1.7459  0.9832  1.0974
16214TIP3   OH270056   2.473   4.268  14.586  0.1411 -0.0348 -0.1513
16214TIP3    H170057   2.426   4.350  14.574 -2.2870 -1.0858  1.3824
16214TIP3    H270058   2.563   4.294  14.606 -0.0944  2.1311 -1.5515
16215TIP3   OH270059   6.596   3.488  13.012 -0.0581 -0.1406  0.4241
16215TIP3    H170060   6.525   3.425  12.998  0.8157 -1.3866  1.4284
16215TIP3    H270061   6.591   3.547  12.936 -0.6899 -1.6048 -0.7184
16216TIP3   OH270062   3.617   2.703  17.120 -0.8829  0.0664 -0.2983
16216TIP3    H170063   3.621   2.737  17.031 -2.8522 -0.3098 -0.5920
16216TIP3    H270064   3.525   2.715  17.146 -0.7353 -1.3450  1.0611
16217TIP3   OH270065   5.116   6.246   5.452  0.3763 -0.1086  0.4608
16217TIP3    H170066   5.137   6.156   5.425 -0.1145 -0.6080  1.6742
16217TIP3    H270067   5.160   6.301   5.387  0.4069 -1.2278 -0.4974
16218TIP3   OH270068   2.940   3.527   5.015 -0.7418 -0.2274 -0.0543
16218TIP3    H170069   2.906   3.443   4.986 -1.9634 -0.1403  1.0419
16218TIP3    H270070   2.959   3.515   5.108  0.6740  0.2365 -0.2588
16219TIP3   OH270071   6.660   0.253  14.790  0.4620  0.1920  0.5198
16219TIP3    H170072   6.637   0.274  14.700 -0.3206 -1.9746  0.1750
16219TIP3    H270073   6.744   0.208  14.783  0.1973 -0.3539  0.8201
16220TIP3   OH270074   5.410   3.534   0.836  0.0249 -0.1344  0.0320
16220TIP3    H170075   5.408   3.455   0.782 -0.2261 -0.1564  0.0706
16220TIP3    H270076   5.502   3.561   0.837 -0.2827  1.2602 -2.4195
16221TIP3   OH270077   3.873   5.961  12.755 -0.3380  0.3621 -0.0942
16221TIP3    H170078   3.852   5.953  12.662 -2.0918  0.6181  0.2437
16221TIP3    H270079   3.910   5.875  12.778 -0.7643 -0.0296 -0.8184
16222TIP3   OH270080   2.684   1.862  14.413 -0.5535  0.0305 -0.3604
16222TIP3    H170081   2.763   1.845  14.361  0.3638 -2.0167  1.5571
16222TIP3    H270082   2.683   1.957  14.424  1.5361  0.1363 -0.6276
16223TIP3   OH270083   0.319   0.306   1.296 -0.0022  0.0129 -0.3312
16223TIP3    H170084   0.254   0.256   1.248 -0.7172  1.4001 -0.8761
16223TIP3    H270085   0.376   0.343   1.228 -0.3543  1.0897 -0.0571
16224TIP3   OH270086   5.815   6.426   0.096 -0.6261 -0.2799 -0.1273
16224TIP3    H170087   5.871   6.392   0.026 -0.4307  0.2526 -0.2271
16224TIP3    H270088   5.840   6.518   0.105 -1.2830 -0.1155  0.0278
16225TIP3   OH270089   1.837   0.662   3.000  0.3464 -0.7562 -0.7113
16225TIP3    H170090   1.918   0.627   3.038  1.4134  0.1791 -2.0291
16225TIP3    H270091   1.866   0.733   2.943 -1.4810  0.0570 -0.6849
16226TIP3   OH270092   5.411   1.237  14.794 -0.8813 -0.6095  0.1999
16226TIP3    H170093   5.332   1.230  14.740 -1.3015 -0.3524  0.7736
16226TIP3    H270094   5.483   1.241  14.731 -1.3749 -0.1631 -0.3430
16227TIP3   OH270095   0.238   0.531  14.359 -0.4403  0.5142 -0.3744
16227TIP3    H170096   0.275   0.524  14.271  0.7157  1.4744  0.0071
16227TIP3    H270097   0.182   0.609  14.356 -0.8551  0.2199 -0.4033
16228TIP3   OH270098   1.108   2.301   0.218 -0.3608  0.3610 -0.1552
16228TIP3    H170099   1.038   2.366   0.218 -0.8203 -0.1316 -0.0308
16228TIP3    H270100   1.099   2.256   0.302  0.9050  1.1471  0.4327
16229TIP3   OH270101   1.057   5.585  12.961  0.1366  0.2201  0.0742
16229TIP3    H170102   1.103   5.587  13.045 -1.4263 -0.4290  0.9838
16229TIP3    H270103   1.103   5.649  12.907  1.1178  0.7278  1.4470
16230TIP3   OH270104   1.954   0.531  16.050 -0.0991 -0.4081 -0.1752
16230TIP3    H170105   1.886   0.524  15.983  0.4969 -0.7960 -0.7392
16230TIP3    H270106   2.028   0.572  16.005 -0.3489  1.1440  0.7354
16231TIP3   OH270107   3.501   6.307  13.083 -0.2564  0.6115 -0.0356
16231TIP3    H170108   3.520   6.276  12.995  1.6148  2.3463 -0.3123
16231TIP3    H270109   3.529   6.236  13.141 -0.3794 -0.0453 -0.7722
16232TIP3   OH270110   6.195   5.425  13.976 -0.4898 -0.0302 -0.2338
16232TIP3    H170111   6.168   5.496  14.036  2.5818  1.0874  0.0463
16232TIP3    H270112   6.228   5.471  13.899 -0.2065 -1.2559 -0.8575
16233TIP3   OH270113   4.531   6.033   4.362  0.2648 -0.4813 -0.0577
16233TIP3    H170114   4.590   6.068   4.429  1.8818  1.7092 -2.4307
16233TIP3    H270115   4.589   6.000   4.294 -1.3244 -3.4126 -0.1370
16234TIP3   OH270116   5.775   0.043  12.651  0.1061  0.4724  0.1787
16234TIP3    H170117   5.866   0.034  12.679  0.1585 -1.9256 -0.5571
16234TIP3    H270118   5.770   0.131  12.613  2.6307 -0.0467 -1.5708
16235TIP3   OH270119   2.615   0.941  15.239 -0.3300  0.2215 -0.7359
16235TIP3    H170120   2.662   0.940  15.156 -0.5131 -1.0386 -0.8392
16235TIP3    H270121   2.523   0.943  15.214 -0.4141 -1.1516 -0.5956
16236TIP3   OH270122   4.387   2.781  11.684  0.0868  0.2252 -0.6703
16236TIP3    H170123   4.459   2.795  11.623  1.5768 -0.3347  0.8759
16236TIP3    H270124   4.358   2.691  11.667  0.9431 -0.1626 -0.1220
16237TIP3   OH270125   6.101   4.361  11.885  0.4276  0.2288 -0.1025
16237TIP3    H170126   6.120   4.454  11.892  0.5784  0.1158  1.3651
16237TIP3    H270127   6.078   4.335  11.974  1.4593 -1.3686 -0.2757
16238TIP3   OH270128   1.982   6.380  11.371 -0.7423  0.3471  0.6133
16238TIP3    H170129   1.898   6.425  11.358 -0.4864  1.1758  1.6210
16238TIP3    H270130   2.048   6.448  11.357 -0.1845 -0.4967 -0.9869
16239TIP3   OH270131   4.435   4.628   3.247  0.0449 -0.0279 -0.3904
16239TIP3    H170132   4.511   4.600   3.196  1.4847 -0.5970  1.9329
16239TIP3    H270133   4.450   4.592   3.335 -3.4283 -1.0540 -0.0499
16240TIP3   OH270134   3.550   0.299   2.410 -0.2006  0.1523 -0.7348
16240TIP3    H170135   3.600   0.219   2.427 -1.8271 -0.5026  1.3183
16240TIP3    H270136   3.513   0.286   2.323 -0.3051 -1.2585 -0.4988
16241TIP3   OH270137   4.860   1.140  13.863 -0.2959 -0.0905 -0.5603
16241TIP3    H170138   4.888   1.073  13.925 -1.8393  0.9519  1.3630
16241TIP3    H270139   4.933   1.201  13.858  1.4469 -2.1242 -2.8926
16242TIP3   OH270140   4.735   5.825  11.564 -0.1086 -0.5007  0.0023
16242TIP3    H170141   4.694   5.781  11.490 -0.5686 -0.4154  0.2022
16242TIP3    H270142   4.750   5.755  11.628  2.3287 -1.0045 -1.0146
16243TIP3   OH270143   0.889   5.714   3.236 -0.2184  0.0585  0.0895
16243TIP3    H170144   0.883   5.642   3.173 -2.2365 -1.0053  1.3934
16243TIP3    H270145   0.923   5.674   3.316 -0.3062  0.7915  0.5027
16244TIP3   OH270146   4.268   5.238   4.544 -0.1225  0.2342 -0.1624
16244TIP3    H170147   4.213   5.282   4.609  0.7176  1.8259 -0.4651
16244TIP3    H270148   4.229   5.262   4.460 -0.0552 -0.1722 -0.3118
16245TIP3   OH270149   6.290   2.737   2.675 -0.0087 -0.4777 -0.1413
16245TIP3    H170150   6.379   2.761   2.698  0.6315 -1.0971 -1.8257
16245TIP3    H270151   6.257   2.812   2.625 -0.5511 -0.1240  0.7305
16246TIP3   OH270152   1.788   0.588  12.791 -0.0956  0.2794  0.7248
16246TIP3    H170153   1.738   0.665  12.819 -1.1198 -0.2149  0.3296
16246TIP3    H270154   1.815   0.608  12.702  0.7755  0.7127  1.0789
16247TIP3   OH270155   3.725   0.317  15.995  0.1112  0.3167 -0.4642
16247TIP3    H170156   3.634   0.295  16.013  0.3863 -0.9468 -0.5127
16247TIP3    H270157   3.724   0.356  15.908 -0.3740  0.2115 -0.5058
16248TIP3   OH270158   1.007   2.224   2.107 -0.2221  0.3118  0.1568
16248TIP3    H170159   0.972   2.254   2.191  1.2093  0.8420  0.5936
16248TIP3    H270160   1.004   2.129   2.112 -0.1205  0.3424  0.8268
16249TIP3   OH270161   5.605   1.851   2.644 -0.0965  0.1053  0.1024
16249TIP3    H170162   5.598   1.817   2.554 -1.9930 -0.5571  0.4457
16249TIP3    H270163   5.699   1.858   2.659  0.2859  0.6532 -2.0809
16250TIP3   OH270164   2.183   3.619   4.113  0.1428  0.0112  0.2236
16250TIP3    H170165   2.277   3.635   4.106 -0.0113  0.3309 -1.4998
16250TIP3    H270166   2.176   3.525   4.129  0.7685  0.0975  1.0622
16251TIP3   OH270167   2.220   6.358   3.397 -0.2374  0.1384 -0.4855
16251TIP3    H170168   2.190   6.448   3.410 -1.2523 -0.3443  0.6341
16251TIP3    H270169   2.310   6.358   3.430 -0.8996  0.3006  1.4216
16252TIP3   OH270170   3.847   3.741  12.228 -0.0165 -0.3135  0.3276
16252TIP3    H170171   3.753   3.757  12.218  0.0628 -0.9898 -2.6856
16252TIP3    H270172   3.888   3.804  12.169  1.2851 -1.0742  0.3857
16253TIP3   OH270173   3.449   1.305   0.725 -0.2736  0.2115 -0.5169
16253TIP3    H170174   3.410   1.315   0.812  0.5472  1.8666 -0.2902
16253TIP3    H270175   3.462   1.211   0.714  0.9588  0.0430  1.7879
16254TIP3   OH270176   5.964   0.455   5.404  0.6926  0.0132 -0.3320
16254TIP3    H170177   6.014   0.503   5.470  0.9980 -0.2374 -0.3761
16254TIP3    H270178   5.881   0.434   5.446  0.8463 -0.0581 -0.0605
16255TIP3   OH270179   2.099   5.206   5.155 -0.2027 -0.1710  0.3235
16255TIP3    H170180   2.175   5.188   5.100 -1.4090  0.5277 -1.7031
16255TIP3    H270181   2.093   5.301   5.157 -0.1294 -0.1768  1.8061
16256TIP3   OH270182   1.384   2.196   0.652 -0.6006  0.1488 -0.1605
16256TIP3    H170183   1.460   2.253   0.654 -0.4031 -0.0559  2.7248
16256TIP3    H270184   1.312   2.251   0.684 -0.7943 -0.6669  0.8608
16257TIP3   OH270185   5.142   0.211   4.400 -0.4390  0.4864 -0.0802
16257TIP3    H170186   5.173   0.148   4.465  1.4712  1.2607 -0.1834
16257TIP3    H270187   5.076   0.163   4.350 -1.0244 -0.5256  1.5863
16258TIP3   OH270188   1.863   1.510   4.940 -0.5103 -0.1670  0.0367
16258TIP3    H170189   1.929   1.441   4.932  0.3953  0.4905  1.4469
16258TIP3    H270190   1.857   1.548   4.852  2.5559  1.1268  0.2592
16259TIP3   OH270191   0.691   1.023   0.872  0.3184  0.2600 -0.1054
16259TIP3    H170192   0.708   0.933   0.900 -0.0257  0.3331  0.3596
16259TIP3    H270193   0.713   1.076   0.949 -0.2636  0.5017 -0.0988
16260TIP3   OH270194   3.437   1.615  11.158  0.5522  0.1809  0.2977
16260TIP3    H170195   3.502   1.670  11.114  1.8407 -0.5609  1.1683
16260TIP3    H270196   3.445   1.638  11.251  0.5846 -0.8971  0.5850
16261TIP3   OH270197   3.734   0.672  11.080 -0.3577  0.0494  0.2370
16261TIP3    H170198   3.823   0.686  11.047  0.2646 -0.0490  1.8218
16261TIP3    H270199   3.727   0.577  11.089 -1.0833 -0.0395 -1.0606
16262TIP3   OH270200   4.812   5.986   2.561 -0.3841 -0.3322 -0.4711
16262TIP3    H170201   4.733   5.964   2.510  1.1612 -2.5436 -2.0957
16262TIP3    H270202   4.848   6.062   2.516 -0.4875 -0.6167 -1.0552
16263TIP3   OH270203   4.379   4.992   4.653 -0.0371  0.0913 -0.4510
16263TIP3    H170204   4.319   4.918   4.650 -0.0749  0.1660 -1.7479
16263TIP3    H270205   4.329   5.066   4.620  0.2704  0.5224  0.0170
16264TIP3   OH270206   0.746   4.884   4.604  0.2609 -0.6924  0.2673
16264TIP3    H170207   0.772   4.878   4.512  1.8676  0.0280  0.6573
16264TIP3    H270208   0.822   4.852   4.653 -1.0146 -2.2638  1.3343
16265TIP3   OH270209   3.526   6.080   3.788  0.1026 -0.5661  0.3846
16265TIP3    H170210   3.487   5.993   3.799 -2.0975  0.2170 -0.6222
16265TIP3    H270211   3.559   6.081   3.698 -0.9614  0.0106 -0.0147
16266TIP3   OH270212   4.243   4.790  14.092 -0.2280 -0.4276  0.1279
16266TIP3    H170213   4.335   4.815  14.097 -0.6456  0.9984  1.2165
16266TIP3    H270214   4.228   4.736  14.170 -0.6298  0.5000  0.7070
16267TIP3   OH270215   4.763   4.206   5.509  0.1379  0.8421  0.6166
16267TIP3    H170216   4.842   4.156   5.529 -1.3550 -1.5544  0.9621
16267TIP3    H270217   4.696   4.168   5.567 -2.1030  0.2888 -2.1418
16268TIP3   OH270218   5.463   5.632  12.687  0.4898 -0.2845  0.0082
16268TIP3    H170219   5.465   5.643  12.782 -0.8052  2.0482 -0.1496
16268TIP3    H270220   5.535   5.687  12.655  0.0072  0.1225 -0.4037
16269TIP3   OH270221   6.206   1.626  12.424 -0.0118 -0.4060 -0.4192
16269TIP3    H170222   6.223   1.678  12.503 -0.1316  0.4653 -0.9570
16269TIP3    H270223   6.258   1.668  12.356 -3.1533  1.5374 -1.8032
16270TIP3   OH270224   5.422   6.159   0.048  1.0275  0.0109 -0.4578
16270TIP3    H170225   5.479   6.207  -0.012 -0.3064  0.3628 -1.4830
16270TIP3    H270226   5.407   6.075   0.005 -0.5098  0.5349 -0.9951
16271TIP3   OH270227   3.860   3.067   4.335 -0.2316 -0.3486  0.4973
16271TIP3    H170228   3.765   3.062   4.331 -0.4546  2.8112 -0.4293
16271TIP3    H270229   3.889   3.041   4.247 -0.2949 -0.1774  0.4276
16272TIP3   OH270230   0.334   4.665  11.543 -0.0956 -0.0286  0.4174
16272TIP3    H170231   0.424   4.696  11.538  0.3834 -0.8014  2.7725
16272TIP3    H270232   0.340   4.571  11.528 -1.0497  0.2944 -2.8751
16273TIP3   OH270233   0.194   2.139   4.863  0.0277 -0.8516  0.0442
16273TIP3    H170234   0.189   2.086   4.943  1.1991 -1.7029 -0.4057
16273TIP3    H270235   0.258   2.093   4.808 -1.1256 -0.5730 -1.6063
16274TIP3   OH270236   0.122   5.066   0.986 -0.1823  0.4641  0.1918
16274TIP3    H170237   0.208   5.091   0.952 -1.0293  0.4862 -2.1171
16274TIP3    H270238   0.129   4.972   1.002 -0.1865  0.0916 -1.7102
16275TIP3   OH270239   0.784   5.781  16.531  0.8935  0.6670  0.0723
16275TIP3    H170240   0.712   5.721  16.549  2.0932 -0.8031  0.1535
16275TIP3    H270241   0.755   5.865  16.568 -0.3739 -0.1188  0.9247
16276TIP3   OH270242   3.428   6.421  15.016 -0.2226 -0.0184  0.0616
16276TIP3    H170243   3.338   6.390  15.027 -0.0300 -0.1404  1.4993
16276TIP3    H270244   3.479   6.367  15.076  0.7218  0.4318 -0.3239
16277TIP3   OH270245   3.148   4.900   2.487  0.0731  0.3501 -0.2501
16277TIP3    H170246   3.160   4.911   2.392  0.6158 -0.7034 -0.3243
16277TIP3    H270247   3.087   4.828   2.495 -0.4466  0.8372  0.2118
16278TIP3   OH270248   6.119   4.171   6.257 -0.1683 -0.1587  0.0861
16278TIP3    H170249   6.067   4.090   6.259 -1.7157  0.7627 -0.8300
16278TIP3    H270250   6.204   4.143   6.225 -0.5450 -1.5002  0.1938
16279TIP3   OH270251   3.449   0.194   2.704  0.3924  0.2123 -0.4899
16279TIP3    H170252   3.485   0.283   2.701  4.0604 -1.0470  0.9483
16279TIP3    H270253   3.384   0.197   2.774 -1.1425  2.1652 -1.8733
16280TIP3   OH270254   0.262   1.247   4.801 -0.0442  1.0445  0.2222
16280TIP3    H170255   0.352   1.277   4.819  2.9085 -4.3971 -2.8893
16280TIP3    H270256   0.237   1.297   4.723  1.4329  0.8609 -0.4097
16281TIP3   OH270257   2.276   5.437   0.319 -0.4404  0.2666 -0.5905
16281TIP3    H170258   2.216   5.510   0.334  0.1409  0.6323  0.0073
16281TIP3    H270259   2.363   5.477   0.320 -0.1307 -0.3947 -0.5505
16282TIP3   OH270260   4.929   1.988   5.128  0.1426 -0.1984  0.1677
16282TIP3    H170261   4.910   2.048   5.200  2.4438  2.1850 -1.0395
16282TIP3    H270262   4.842   1.965   5.093 -0.8608  2.0774  0.9709
16283TIP3   OH270263   4.447   1.701   4.991  0.7011  0.2325  0.5828
16283TIP3    H170264   4.363   1.684   4.949  1.1378 -2.8007  0.6991
16283TIP3    H270265   4.436   1.671   5.081  2.3266 -2.0739  0.1232
16284TIP3   OH270266   5.718   3.429   4.774 -0.3774  0.5122  0.6074
16284TIP3    H170267   5.656   3.363   4.803 -0.1828 -1.0159 -2.1003
16284TIP3    H270268   5.804   3.393   4.794 -0.2967  0.4628  0.1947
16285TIP3   OH270269   1.868   4.717   5.868  0.6844 -0.1347 -0.2444
16285TIP3    H170270   1.889   4.728   5.775 -0.8070 -0.2745 -0.6270
16285TIP3    H270271   1.774   4.701   5.869  0.4262  1.1938  1.3980
16286TIP3   OH270272   3.203   4.431   6.040  0.1222  0.0198 -0.1692
16286TIP3    H170273   3.204   4.521   6.072  0.6136  0.1323 -0.4980
16286TIP3    H270274   3.136   4.388   6.093 -0.4848  0.7065 -0.3556
16287TIP3   OH270275   3.111   4.070  13.590  0.0614 -0.5477  0.8024
16287TIP3    H170276   3.179   4.010  13.620  0.0765 -1.0563 -0.2015
16287TIP3    H270277   3.034   4.015  13.578 -0.2812 -0.1315  1.1133
16288TIP3   OH270278   2.707   3.599   5.753  0.6153 -0.0865 -0.0485
16288TIP3    H170279   2.653   3.675   5.774  1.8299  0.6427  0.5374
16288TIP3    H270280   2.722   3.606   5.659  0.7231  0.4095  0.0001
16289TIP3   OH270281   5.675   5.418  16.046  0.3719  0.2791 -0.3905
16289TIP3    H170282   5.718   5.484  16.101  0.8460 -0.5116  0.2083
16289TIP3    H270283   5.618   5.370  16.107 -1.3098  1.2391 -1.1406
16290TIP3   OH270284   2.560   4.171   0.679 -0.1617 -0.0198 -0.3249
16290TIP3    H170285   2.563   4.233   0.606 -0.4260 -0.0192 -0.3389
16290TIP3    H270286   2.480   4.120   0.664 -0.2633  0.0361  0.0086
16291TIP3   OH270287   1.513   2.504   2.547 -0.7579  0.6521  0.0528
16291TIP3    H170288   1.552   2.418   2.534 -0.5373  0.6208  0.8753
16291TIP3    H270289   1.564   2.562   2.491 -1.7632  0.0419 -1.5544
16292TIP3   OH270290   1.764   5.161   1.994  0.4642  0.8352 -0.2889
16292TIP3    H170291   1.760   5.078   2.041  2.1549  0.2988 -1.0227
16292TIP3    H270292   1.828   5.213   2.042 -0.3231  1.6066 -0.0417
16293TIP3   OH270293   5.852   3.227  16.318  0.4446 -0.7432 -0.3279
16293TIP3    H170294   5.815   3.220  16.230  1.5152 -1.6532 -0.7277
16293TIP3    H270295   5.836   3.142  16.358 -2.4987  0.4967  1.4250
16294TIP3   OH270296   5.900   1.063   5.992 -0.3398 -0.5030 -0.2798
16294TIP3    H170297   5.970   1.102   6.046 -0.4674 -1.5007  0.6426
16294TIP3    H270298   5.923   1.088   5.902  0.6514  0.0341  0.1000
16295TIP3   OH270299   0.008   3.383   4.650 -0.5647  0.6831  0.0728
16295TIP3    H170300   0.092   3.430   4.653 -1.2451  2.0576 -1.2653
16295TIP3    H270301   0.008   3.340   4.565 -2.0248  2.3066 -0.7854
16296TIP3   OH270302   4.007   0.300  11.288  0.1112 -0.1484 -0.7071
16296TIP3    H170303   3.923   0.283  11.245  0.5750  0.5865 -1.9578
16296TIP3    H270304   4.071   0.297  11.217  0.9952  0.4867  0.0390
16297TIP3   OH270305   1.655   4.658  16.391 -0.0084 -0.1780 -0.2406
16297TIP3    H170306   1.680   4.749  16.371  1.2355 -0.5215 -0.3261
16297TIP3    H270307   1.687   4.608  16.316 -1.6920 -0.5577 -0.7332
16298TIP3   OH270308   1.344   5.146  13.155 -0.4112  0.0127 -0.0836
16298TIP3    H170309   1.321   5.190  13.236  1.0376  3.2425 -1.2573
16298TIP3    H270310   1.267   5.156  13.099 -0.8961 -0.9693  0.3956
16299TIP3   OH270311   0.916   0.328  13.702 -0.1501 -0.4679 -0.1441
16299TIP3    H170312   0.910   0.273  13.625  0.0703  0.3146 -0.7289
16299TIP3    H270313   0.835   0.379  13.702 -0.2769 -0.6572  0.2994
16300TIP3   OH270314   3.153   2.621   2.383 -0.0544  0.1503 -0.6221
16300TIP3    H170315   3.080   2.562   2.404 -0.6830  1.7981  2.3051
16300TIP3    H270316   3.118   2.708   2.397  1.9425  1.0876 -1.1140
16301TIP3   OH270317   3.850   4.107  11.340 -0.3566 -0.4797  0.6722
16301TIP3    H170318   3.803   4.112  11.424  0.1983 -2.7784  1.1994
16301TIP3    H270319   3.863   4.198  11.314 -4.8416  0.3882  0.5946
16302TIP3   OH270320   6.692   0.516   2.150 -0.3753  0.3742 -0.0303
16302TIP3    H170321   6.771   0.472   2.180 -1.1104 -0.2064  1.1269
16302TIP3    H270322   6.664   0.569   2.225 -1.5390 -0.0801 -0.1186
16303TIP3   OH270323   0.564   5.190   4.798  0.5423  0.4028 -0.2571
16303TIP3    H170324   0.566   5.261   4.734  1.0702  1.3353  0.7669
16303TIP3    H270325   0.654   5.182   4.828 -0.0692  1.5957  2.0736
16304TIP3   OH270326   6.362   6.454  14.487 -0.1106  0.5787 -0.1942
16304TIP3    H170327   6.352   6.472  14.394  1.8961  1.4135 -0.3057
16304TIP3    H270328   6.319   6.528  14.530  2.0877  2.1666 -0.5660
16305TIP3   OH270329   4.291   4.257  11.121 -0.4753  0.8110 -0.4652
16305TIP3    H170330   4.273   4.350  11.111 -3.4862  0.4679  0.7525
16305TIP3    H270331   4.213   4.221  11.163  2.2986 -1.4627  3.4770
16306TIP3   OH270332   0.057   6.298   5.341  0.2233  0.0906 -0.2988
16306TIP3    H170333   0.054   6.320   5.434  2.3805  0.9839 -0.3859
16306TIP3    H270334   0.007   6.367   5.298 -1.1015 -0.5344  0.2084
16307TIP3   OH270335   2.556   4.072  16.610  0.2376  0.0872  0.5608
16307TIP3    H170336   2.626   4.137  16.605  0.4125 -0.1731 -0.8324
16307TIP3    H270337   2.514   4.089  16.694  1.5535  0.6670  1.1316
16308TIP3   OH270338   5.594   1.493   3.735  0.1165 -0.8160  0.6344
16308TIP3    H170339   5.647   1.424   3.774  3.4798  1.0068 -0.3163
16308TIP3    H270340   5.599   1.477   3.641  0.6158  0.4584  0.4266
16309TIP3   OH270341   4.780   5.688   1.603 -0.3068  0.3957 -0.6046
16309TIP3    H170342   4.718   5.676   1.675 -1.1912  0.0971 -1.4032
16309TIP3    H270343   4.770   5.779   1.577 -1.2265  0.0747 -1.4458
16310TIP3   OH270344   5.866   2.872   3.568 -0.6852  0.0856 -0.2321
16310TIP3    H170345   5.851   2.796   3.512 -2.4386  1.3503 -1.5983
16310TIP3    H270346   5.797   2.867   3.634 -0.6164  0.3354 -0.1395
16311TIP3   OH270347   5.967   5.211   4.626 -0.0022 -0.1503 -0.5029
16311TIP3    H170348   5.905   5.275   4.661 -0.2229  0.3022 -1.6857
16311TIP3    H270349   6.038   5.264   4.588  1.4962 -0.6490  1.3993
16312TIP3   OH270350   2.606   4.783  13.366  0.1667 -0.6497 -0.0250
16312TIP3    H170351   2.562   4.804  13.284 -1.6746  0.0953  1.0766
16312TIP3    H270352   2.638   4.694  13.354 -0.2372 -0.6244 -1.4639
16313TIP3   OH270353   5.024   3.849   3.858 -0.7758 -0.1718  0.6185
16313TIP3    H170354   5.069   3.925   3.895 -0.0676 -0.3225  0.0863
16313TIP3    H270355   5.033   3.860   3.763  0.3929 -1.5342  0.5428
16314TIP3   OH270356   3.980   2.718  14.676 -0.0242 -0.0987  0.9633
16314TIP3    H170357   3.919   2.676  14.737 -0.3733  2.4293  2.5227
16314TIP3    H270358   3.936   2.799  14.649  0.6820 -0.5125 -1.7149
16315TIP3   OH270359   1.783   1.029  17.038 -0.3676  0.0657  0.1778
16315TIP3    H170360   1.772   1.092  17.109  1.8326  0.6555  0.0517
16315TIP3    H270361   1.731   0.953  17.066  2.1320 -0.6139  3.6016
16316TIP3   OH270362   4.760   2.397   5.170 -0.0200  0.1884 -0.5776
16316TIP3    H170363   4.711   2.323   5.137  0.7787 -1.0897  0.9377
16316TIP3    H270364   4.783   2.448   5.093 -0.8995 -0.9425 -1.6183
16317TIP3   OH270365   5.538   5.298  11.401 -0.2068 -0.2017  0.3303
16317TIP3    H170366   5.621   5.262  11.430  0.4224 -0.3660 -1.5164
16317TIP3    H270367   5.485   5.222  11.380 -1.2449 -0.1298  2.4209
16318TIP3   OH270368   1.450   1.512   5.606  0.5283  0.1535 -0.3832
16318TIP3    H170369   1.428   1.516   5.699  1.0760 -2.8379 -0.0204
16318TIP3    H270370   1.546   1.514   5.603  0.5416 -0.6311 -0.7918
16319TIP3   OH270371   0.143   4.306  15.240  0.0608 -0.4172 -0.2823
16319TIP3    H170372   0.204   4.247  15.284 -1.5832 -2.7697 -0.9870
16319TIP3    H270373   0.064   4.254  15.227 -1.3335  1.8181 -1.4083
16320TIP3   OH270374   1.346   2.715   2.313  0.2893 -0.1873  0.1806
16320TIP3    H170375   1.411   2.781   2.336  0.9928 -0.9973  0.5688
16320TIP3    H270376   1.381   2.674   2.234  0.0643 -0.3812  0.1818
16321TIP3   OH270377   0.195   0.360   5.774 -0.1680 -0.4192 -0.6059
16321TIP3    H170378   0.215   0.391   5.686 -1.4517 -0.4202 -0.9230
16321TIP3    H270379   0.258   0.290   5.791  1.4148  0.9289 -0.7049
16322TIP3   OH270380   0.981   4.791   5.321  0.3410 -0.2783  0.4652
16322TIP3    H170381   1.063   4.824   5.356 -0.0382  1.0092  0.1691
16322TIP3    H270382   0.915   4.811   5.388  0.2647 -1.4446  0.7735
16323TIP3   OH270383   5.472   0.490  14.115  0.0232  0.1988  0.3771
16323TIP3    H170384   5.548   0.448  14.156  1.4785  2.1122 -0.1736
16323TIP3    H270385   5.508   0.531  14.036 -1.5725  1.2683  0.1552
16324TIP3   OH270386   1.222   3.057   2.682 -0.6331 -0.4405 -0.0285
16324TIP3    H170387   1.192   3.034   2.595 -0.5254 -0.0865 -0.1619
16324TIP3    H270388   1.299   3.113   2.667 -1.0917  0.2881  0.2742
16325TIP3   OH270389   5.505   6.555  11.665 -0.1992  0.4497  0.7544
16325TIP3    H170390   5.480   6.562  11.757  2.0948 -0.0767  1.4796
16325TIP3    H270391   5.574   6.489  11.664 -0.7688 -0.1941 -1.5004
16326TIP3   OH270392   2.935   0.601   3.985  0.5547 -0.0095  0.2633
16326TIP3    H170393   2.982   0.677   3.951 -0.7135  0.7724  0.2180
16326TIP3    H270394   2.989   0.570   4.058  2.0159 -0.1887 -0.8374
16327TIP3   OH270395   3.261   2.134   1.440  0.1630  0.4686  0.2382
16327TIP3    H170396   3.199   2.063   1.424  2.5167 -1.3541 -1.6015
16327TIP3    H270397   3.314   2.104   1.513 -0.8483  1.8704  1.6010
16328TIP3   OH270398   0.515   1.848  14.671 -0.6414 -0.5427 -0.3058
16328TIP3    H170399   0.434   1.864  14.720 -0.5665 -1.4969  0.1608
16328TIP3    H270400   0.577   1.816  14.737  0.3394  0.8079 -0.5353
16329TIP3   OH270401   0.522   3.515   6.661 -0.2064 -0.0788  0.0322
16329TIP3    H170402   0.567   3.598   6.674  1.0717 -0.9222  1.3183
16329TIP3    H270403   0.530   3.497   6.567  2.9824 -0.5988  0.3067
16330TIP3   OH270404   1.825   6.501  10.668  0.2299 -0.1196  0.1859
16330TIP3    H170405   1.786   6.435  10.724 -2.1505  1.7851  0.9637
16330TIP3    H270406   1.902   6.532  10.716 -0.3009 -0.3081  1.1650
16331TIP3   OH270407   5.326   5.629  16.641 -0.6372 -0.2244  0.4109
16331TIP3    H170408   5.262   5.565  16.672 -0.9469 -0.5206 -0.7872
16331TIP3    H270409   5.291   5.660  16.558 -0.3323  1.2824  0.8106
16332TIP3   OH270410   2.517   3.090   5.697  0.2752 -0.3701  0.1080
16332TIP3    H170411   2.473   3.167   5.659  0.4989 -0.8210 -1.1072
16332TIP3    H270412   2.547   3.040   5.621  1.6252 -0.8083  0.9014
16333TIP3   OH270413   4.784   1.148   2.806  0.6369  0.3238  0.6521
16333TIP3    H170414   4.823   1.068   2.770  2.6879  0.6126  2.0380
16333TIP3    H270415   4.730   1.118   2.879 -2.3050 -0.1167 -1.5127
16334TIP3   OH270416   0.414   5.402  11.010 -0.2133  0.0755 -0.3016
16334TIP3    H170417   0.486   5.447  10.966 -0.1091 -0.1191 -0.3315
16334TIP3    H270418   0.380   5.342  10.945 -1.7643  1.6234 -0.9931
16335TIP3   OH270419   6.291   1.566  15.971  0.0105 -0.0964  0.5627
16335TIP3    H170420   6.204   1.580  15.934 -0.5429 -1.3344  1.3294
16335TIP3    H270421   6.279   1.578  16.065  0.5173 -0.9531  0.7420
16336TIP3   OH270422   2.123   3.535   2.164  0.6296 -0.7532 -0.2960
16336TIP3    H170423   2.044   3.482   2.159  0.1451 -0.1230  0.4765
16336TIP3    H270424   2.184   3.483   2.215 -0.0521 -0.3460  0.9830
16337TIP3   OH270425   4.022   6.702  11.337  0.0470  0.5141  0.0376
16337TIP3    H170426   4.013   6.730  11.246 -2.4267 -1.4650 -0.4452
16337TIP3    H270427   3.944   6.735  11.380  0.6915  0.5524  1.2198
16338TIP3   OH270428   2.747   4.198   3.854 -0.6194 -0.0879  0.1105
16338TIP3    H170429   2.813   4.131   3.837 -0.4095 -0.7978  3.2055
16338TIP3    H270430   2.798   4.274   3.884 -1.0356  0.6235 -0.9166
16339TIP3   OH270431   4.257   3.426   4.411  0.4502  0.3114 -0.2813
16339TIP3    H170432   4.278   3.519   4.420  1.0706  0.1038  0.5324
16339TIP3    H270433   4.207   3.421   4.329  0.6453  1.3147 -0.4820
16340TIP3   OH270434   0.532   4.769   4.184 -0.7060 -0.2342  0.3865
16340TIP3    H170435   0.552   4.744   4.094 -1.6024  0.2671  0.0399
16340TIP3    H270436   0.472   4.701   4.215 -0.7566 -0.1608  0.4498
16341TIP3   OH270437   1.896   1.514  11.163 -0.0623  0.2153  0.4857
16341TIP3    H170438   1.871   1.436  11.112 -0.1700  0.0860  0.7373
16341TIP3    H270439   1.864   1.587  11.110 -2.0697  0.0314  1.3550
16342TIP3   OH270440   6.353   6.459   2.128 -0.4126 -0.0638  0.3170
16342TIP3    H170441   6.434   6.467   2.178 -0.2635  0.8292 -0.0519
16342TIP3    H270442   6.324   6.369   2.143 -0.7480  0.3739  2.5899
16343TIP3   OH270443   1.903   4.258   4.582  0.0622  0.3769  0.2756
16343TIP3    H170444   1.952   4.296   4.509  0.9462  0.9196  1.1214
16343TIP3    H270445   1.927   4.166   4.582  2.0252  0.8277  1.3386
16344TIP3   OH270446   4.465   5.265  14.140  0.1066 -0.8199 -0.1029
16344TIP3    H170447   4.416   5.266  14.222 -0.2515  2.1222 -0.2281
16344TIP3    H270448   4.550   5.229  14.163 -0.9714 -2.9202  0.8379
16345TIP3   OH270449   5.027   3.815   6.104 -0.2809  0.2953 -0.1131
16345TIP3    H170450   5.047   3.754   6.033 -0.6330  0.5285 -0.4190
16345TIP3    H270451   4.932   3.829   6.098 -0.4873 -0.4589  1.0446
16346TIP3   OH270452   1.390   3.743  13.081  0.9197 -0.0050  0.3924
16346TIP3    H170453   1.408   3.831  13.115  0.7673 -0.3830  1.4885
16346TIP3    H270454   1.333   3.758  13.005 -0.7839  0.7472  1.7540
16347TIP3   OH270455   2.960   4.280  12.921 -0.1155  0.2177 -0.0896
16347TIP3    H170456   2.867   4.256  12.924 -0.1159  0.1335 -0.6627
16347TIP3    H270457   2.976   4.326  13.003 -0.8258  0.7943 -0.2656
16348TIP3   OH270458   1.646   5.730  11.469 -0.2568  0.2769 -0.3580
16348TIP3    H170459   1.652   5.680  11.550 -0.1347 -1.7669 -1.5517
16348TIP3    H270460   1.696   5.809  11.486 -0.8041  0.2225  1.7639
16349TIP3   OH270461   6.363   0.218  10.467  0.3699  0.0558  0.2483
16349TIP3    H170462   6.294   0.180  10.521  0.5362 -1.4685 -0.5359
16349TIP3    H270463   6.436   0.156  10.475  0.7081  0.2690 -0.9705
16350TIP3   OH270464   2.830   5.283   5.017  0.2157  0.1215  0.8448
16350TIP3    H170465   2.893   5.309   5.085  1.1805 -0.5575  0.2394
16350TIP3    H270466   2.746   5.319   5.047  0.8288  0.7993  1.8226
16351TIP3   OH270467   0.463   1.060   4.286  0.0395 -0.0499 -0.3999
16351TIP3    H170468   0.503   0.973   4.287 -1.2601 -0.6727 -0.8897
16351TIP3    H270469   0.404   1.060   4.360 -0.8389 -0.0219 -1.0873
16352TIP3   OH270470   1.179   2.869  11.978  0.1197  0.3620 -0.0819
16352TIP3    H170471   1.261   2.920  11.975  1.0126 -1.0477 -0.7096
16352TIP3    H270472   1.206   2.780  11.955 -1.5722 -0.1817 -0.0478
16353TIP3   OH270473   4.502   4.055   2.285 -0.0520  0.3453  0.4661
16353TIP3    H170474   4.528   3.982   2.229 -0.0581  0.1264  0.7481
16353TIP3    H270475   4.492   4.129   2.225 -0.5464 -0.0058  0.1079
16354TIP3   OH270476   0.476   6.307  15.883 -0.1135 -0.5181  0.1237
16354TIP3    H170477   0.491   6.364  15.808 -0.7332  0.5908  0.8225
16354TIP3    H270478   0.537   6.340  15.950 -1.9030  0.7093  1.2355
16355TIP3   OH270479   6.414   4.494   2.220 -0.0518 -0.0072 -0.0874
16355TIP3    H170480   6.380   4.471   2.134 -0.9412  0.6806  0.0676
16355TIP3    H270481   6.508   4.505   2.207 -0.3305  1.2011 -1.2175
16356TIP3   OH270482   0.539   3.628   1.018 -0.0990 -0.6219  0.0817
16356TIP3    H170483   0.515   3.707   0.971 -0.3753 -1.0108 -0.4416
16356TIP3    H270484   0.515   3.645   1.109 -0.5052 -0.2512 -0.0948
16357TIP3   OH270485   1.557   4.295  12.355  0.5395 -0.0679  0.2514
16357TIP3    H170486   1.639   4.247  12.346  0.6529 -0.2261  1.8505
16357TIP3    H270487   1.489   4.228  12.347  0.4624  0.2559 -2.4592
16358TIP3   OH270488   0.653   1.905  17.016 -0.1709  0.1485 -0.3018
16358TIP3    H170489   0.654   2.000  17.026  2.6165  0.0929  0.9765
16358TIP3    H270490   0.665   1.872  17.105 -0.6647 -1.4110 -0.7874
16359TIP3   OH270491   6.419   1.719   1.884  0.4747 -0.4069  0.3069
16359TIP3    H170492   6.348   1.755   1.831  1.3694  0.9635 -0.0051
16359TIP3    H270493   6.469   1.795   1.912  1.3143 -1.2838  1.2622
16360TIP3   OH270494   3.249   3.652   5.063 -0.0518  0.4603  0.1240
16360TIP3    H170495   3.276   3.561   5.070 -1.1124  0.2272  2.4123
16360TIP3    H270496   3.156   3.651   5.083 -0.1685  2.0126 -0.1825
16361TIP3   OH270497   1.421   0.919   4.209 -0.3645  0.0591 -0.1252
16361TIP3    H170498   1.361   0.993   4.200 -0.4608 -0.1850 -1.8116
16361TIP3    H270499   1.441   0.893   4.119  2.5531  0.3446  0.3340
16362TIP3   OH270500   5.972   5.962  16.664  0.5313  0.5466 -0.2153
16362TIP3    H170501   5.992   5.879  16.708 -0.2452  1.4856  2.0224
16362TIP3    H270502   6.056   6.007  16.661  0.5418  0.6046  0.6460
16363TIP3   OH270503   0.685   3.167   0.938  0.3868  0.1248  0.2395
16363TIP3    H170504   0.702   3.104   1.007  0.0782  2.9677  3.1524
16363TIP3    H270505   0.604   3.138   0.898  0.0586 -1.1168  1.7246
16364TIP3   OH270506   3.660   5.414   0.102  0.2262 -0.2277  0.6920
16364TIP3    H170507   3.643   5.503   0.135 -0.4960 -0.3877  0.7689
16364TIP3    H270508   3.751   5.397   0.126  0.1156  0.1752  1.4298
16365TIP3   OH270509   5.149   3.488  14.008  0.3461 -0.3125 -0.4048
16365TIP3    H170510   5.157   3.414  13.948  1.8236  0.7872 -1.6652
16365TIP3    H270511   5.110   3.557  13.954  1.2782  0.5593  0.0103
16366TIP3   OH270512   4.141   1.720  14.742 -0.1156  0.1061  0.7475
16366TIP3    H170513   4.126   1.815  14.743  1.5887  0.4340 -0.3466
16366TIP3    H270514   4.234   1.711  14.724  0.0162 -1.7924  2.0734
16367TIP3   OH270515   3.398   6.537  13.345 -0.0303  0.1543  0.1860
16367TIP3    H170516   3.466   6.600  13.366  0.0875 -0.8964  3.4438
16367TIP3    H270517   3.425   6.500  13.260  2.2684  1.2852  0.3560
16368TIP3   OH270518   2.123   5.491  11.446 -0.1756 -0.0869  0.2258
16368TIP3    H170519   2.113   5.527  11.358  2.9159 -0.3744 -0.3564
16368TIP3    H270520   2.101   5.564  11.504 -1.5314  0.3252 -0.7643
16369TIP3   OH270521   3.632   2.060  13.288  0.0994  0.2201  0.1526
16369TIP3    H170522   3.652   2.152  13.269 -1.1944  0.4460 -0.2013
16369TIP3    H270523   3.537   2.055  13.283  0.1988 -1.3881 -0.9847
16370TIP3   OH270524   1.298   0.562  10.623 -0.4162  0.6407 -0.2291
16370TIP3    H170525   1.248   0.480  10.629 -0.2883  0.0738 -4.2523
16370TIP3    H270526   1.353   0.562  10.702 -0.8154 -2.8835  0.2324
16371TIP3   OH270527   3.154   4.959   2.227 -0.3870 -0.3964  0.2932
16371TIP3    H170528   3.247   4.976   2.242 -0.4511  1.4416 -0.9320
16371TIP3    H270529   3.152   4.886   2.166  0.2928 -0.2224  0.0508
16372TIP3   OH270530   3.145   3.166  16.446 -0.1933 -0.3850 -0.4132
16372TIP3    H170531   3.184   3.084  16.478 -0.9294 -1.4375 -2.0529
16372TIP3    H270532   3.137   3.221  16.524  2.9789 -0.7206  0.2816
16373TIP3   OH270533   5.559   4.732   2.046  0.2585 -0.6744  0.0444
16373TIP3    H170534   5.572   4.817   2.003 -1.7331 -0.6482 -0.6248
16373TIP3    H270535   5.513   4.679   1.981 -1.8260 -1.0128  1.6929
16374TIP3   OH270536   5.940   4.826   4.989 -0.1498  0.3555 -0.6237
16374TIP3    H170537   5.929   4.885   5.064 -3.1193 -1.7314  0.7682
16374TIP3    H270538   5.914   4.879   4.914 -0.8549  1.4073  0.3208
16375TIP3   OH270539   4.921   5.237   0.882  0.9700 -0.1587  0.4180
16375TIP3    H170540   4.901   5.146   0.860  0.0130  0.0739  0.2661
16375TIP3    H270541   4.887   5.288   0.808  1.6108  0.3101  0.4415
16376TIP3   OH270542   0.776   2.391   2.349  0.1943  0.0792 -0.1094
16376TIP3    H170543   0.744   2.341   2.424 -0.5549 -0.3141 -0.6738
16376TIP3    H270544   0.872   2.386   2.356  0.3811 -4.5834 -2.0539
16377TIP3   OH270545   4.365   3.447  10.503  0.0728  0.3953  0.2146
16377TIP3    H170546   4.439   3.425  10.448 -0.0530  0.0162  0.1969
16377TIP3    H270547   4.388   3.414  10.590  0.3361  1.1248  0.4274
16378TIP3   OH270548   4.339   0.118  15.973 -0.2162 -0.1286 -0.0696
16378TIP3    H170549   4.291   0.060  15.914 -3.0807 -0.1056  2.0318
16378TIP3    H270550   4.348   0.067  16.054  2.3915  0.3229  0.0256
16379TIP3   OH270551   5.494   1.516  15.894 -0.7236 -0.7115 -0.2519
16379TIP3    H170552   5.410   1.560  15.887 -0.2525  0.2364 -0.0776
16379TIP3    H270553   5.490   1.468  15.977  0.0209  1.8283  1.3633
16380TIP3   OH270554   2.148   2.766   1.732  0.2654 -0.0437 -0.3568
16380TIP3    H170555   2.191   2.826   1.792  0.6032  0.0947 -0.7362
16380TIP3    H270556   2.123   2.821   1.657  0.1771 -0.2887 -0.5078
16381TIP3   OH270557   2.518   4.134   3.430 -0.1001  0.2492  0.5021
16381TIP3    H170558   2.481   4.046   3.440  0.2385  0.0876  0.3658
16381TIP3    H270559   2.500   4.177   3.513  1.0407 -0.4491  1.1346
16382TIP3   OH270560   0.511   1.357  13.983 -0.0710  0.3875  1.0200
16382TIP3    H170561   0.512   1.442  13.939  0.5103 -0.9386 -1.7777
16382TIP3    H270562   0.425   1.352  14.024 -0.4150  2.0202  0.5608
16383TIP3   OH270563   6.445   5.334  15.777  0.3179 -0.1493 -0.7341
16383TIP3    H170564   6.506   5.323  15.704  0.5632  2.7859 -1.0905
16383TIP3    H270565   6.439   5.428  15.789 -2.6789 -0.3970  0.5845
16384TIP3   OH270566   5.072   4.826  13.523  0.1969  0.3991 -0.2848
16384TIP3    H170567   5.009   4.830  13.451 -0.8785  1.8030  0.6547
16384TIP3    H270568   5.120   4.909  13.517  1.9509 -0.6147 -0.9308
16385TIP3   OH270569   5.286   1.037   5.474 -0.4673 -0.6926  0.0029
16385TIP3    H170570   5.251   1.006   5.390  0.9612 -3.1894  0.2176
16385TIP3    H270571   5.372   1.073   5.453 -0.5350 -0.3752  0.2631
16386TIP3   OH270572   1.105   0.788   5.113 -0.4459 -0.0198 -0.1442
16386TIP3    H170573   1.156   0.836   5.047  1.1230 -0.3707  0.7749
16386TIP3    H270574   1.087   0.703   5.072  0.5523 -0.2506 -0.1295
16387TIP3   OH270575   4.946   3.154  16.729  0.1076 -0.1200  0.1352
16387TIP3    H170576   4.896   3.108  16.797  0.6235 -1.5422 -0.4162
16387TIP3    H270577   5.031   3.171  16.769 -0.1340  0.5328  0.3929
16388TIP3   OH270578   1.273   0.410  11.481 -0.2157 -1.0770 -0.8933
16388TIP3    H170579   1.311   0.487  11.524  2.2141 -2.0026 -1.2168
16388TIP3    H270580   1.183   0.406  11.514  0.2740  0.6157  0.8462
16389TIP3   OH270581   1.952   2.807   2.698 -0.0615 -1.0855 -0.1031
16389TIP3    H170582   1.923   2.717   2.711 -2.2839 -0.4890 -0.3822
16389TIP3    H270583   2.045   2.807   2.718 -0.2331 -3.2298  0.8553
16390TIP3   OH270584   4.374   4.782  13.353  0.4419  0.4488  0.0380
16390TIP3    H170585   4.452   4.836  13.360 -0.6097  1.9138  1.4397
16390TIP3    H270586   4.383   4.716  13.421 -0.2540  1.6759  1.3787
16391TIP3   OH270587   5.772   0.196  13.057  0.5864 -0.2199 -0.3345
16391TIP3    H170588   5.820   0.178  13.138 -2.0703 -0.1255  1.3844
16391TIP3    H270589   5.839   0.220  12.994  2.6592  1.7887  2.4211
16392TIP3   OH270590   2.804   0.132   1.430 -0.7386  0.1049 -0.2192
16392TIP3    H170591   2.776   0.106   1.342 -0.0609 -0.6449 -0.2307
16392TIP3    H270592   2.835   0.050   1.470  2.2420  0.9375 -0.5372
16393TIP3   OH270593   0.435   0.798  11.458 -0.0220  0.2335  0.7018
16393TIP3    H170594   0.357   0.854  11.466 -0.3243 -0.1901  0.7329
16393TIP3    H270595   0.481   0.810  11.542 -1.3339 -1.4136  1.7144
16394TIP3   OH270596   2.499   2.524  12.215  0.0568  0.7949  0.2812
16394TIP3    H170597   2.503   2.456  12.148  0.4411 -0.0482  1.1264
16394TIP3    H270598   2.590   2.549  12.230 -0.0695  1.3912  0.0891
16395TIP3   OH270599   3.096   5.630   5.153 -0.1120  0.0881  0.0162
16395TIP3    H170600   3.172   5.616   5.098  0.3473  0.9370  0.4195
16395TIP3    H270601   3.028   5.663   5.093  0.8017  2.3615  0.1348
16396TIP3   OH270602   2.442   3.408  13.119 -0.3867 -0.1929  0.2547
16396TIP3    H170603   2.515   3.433  13.062  0.8726 -3.0930  0.4108
16396TIP3    H270604   2.378   3.478  13.108  1.8246  1.7948 -0.9546
16397TIP3   OH270605   4.838   2.122  11.883  1.0988 -0.1842  0.0834
16397TIP3    H170606   4.808   2.033  11.903 -1.8679  0.4792 -0.8733
16397TIP3    H270607   4.764   2.178  11.907  2.9887  2.1191  0.9529
16398TIP3   OH270608   5.699   2.553  12.184  0.6262  0.2811 -0.2615
16398TIP3    H170609   5.711   2.579  12.093 -0.6539  0.4800 -0.3944
16398TIP3    H270610   5.610   2.579  12.205  1.7469  2.7946  1.9276
16399TIP3   OH270611   4.844   4.344   1.156 -0.1889  0.0531  0.4274
16399TIP3    H170612   4.786   4.347   1.080  0.6356  0.0910 -0.2106
16399TIP3    H270613   4.866   4.436   1.173  3.0021 -0.1117 -1.9605
16400TIP3   OH270614   4.484   0.905  11.358  0.6780 -0.1124  0.3692
16400TIP3    H170615   4.443   0.862  11.283  1.3593 -0.6866  0.3223
16400TIP3    H270616   4.572   0.926  11.329  0.3981  1.2767  0.4115
16401TIP3   OH270617   0.967   1.798  14.908  0.5241 -0.8007 -0.0058
16401TIP3    H170618   0.878   1.772  14.884  0.1498  1.3627 -1.2406
16401TIP3    H270619   1.015   1.801  14.825  1.7158 -1.6665  0.6094
16402TIP3   OH270620   6.757   2.746  13.771  0.7843  0.3160  0.1937
16402TIP3    H170621   6.788   2.827  13.813 -0.7165  0.7250  0.5555
16402TIP3    H270622   6.722   2.694  13.843 -1.0598  0.6645 -0.4185
16403TIP3   OH270623   1.692   1.068  14.037  0.1356 -0.1670  0.1420
16403TIP3    H170624   1.601   1.075  14.006 -0.2236  0.8840  1.3214
16403TIP3    H270625   1.718   0.979  14.014 -0.6176  0.0314 -1.6876
16404TIP3   OH270626   2.424   5.555   5.845 -0.5076  0.0100 -0.3604
16404TIP3    H170627   2.387   5.628   5.795  2.0453  1.9174  0.3050
16404TIP3    H270628   2.471   5.598   5.917  1.0158 -2.3333  0.1237
16405TIP3   OH270629   6.612   2.274   0.204 -0.2687  0.9364  0.6088
16405TIP3    H170630   6.603   2.347   0.144 -2.2989 -0.8394 -1.4441
16405TIP3    H270631   6.693   2.292   0.252 -0.2905  4.0789 -0.3098
16406TIP3   OH270632   3.508   2.009   3.517  0.1012  0.1396  0.4987
16406TIP3    H170633   3.438   1.944   3.510  1.1482 -1.0138  0.2240
16406TIP3    H270634   3.575   1.966   3.572  0.3882  1.4051  1.1875
16407TIP3   OH270635   4.380   5.931   2.135 -0.1172  0.0918 -0.4004
16407TIP3    H170636   4.394   5.838   2.155 -0.4438  0.2254  0.5240
16407TIP3    H270637   4.376   5.973   2.221  1.0356  1.1255 -0.8422
16408TIP3   OH270638   6.121   1.717   3.558  0.1889 -0.1577 -0.0804
16408TIP3    H170639   6.192   1.718   3.494  0.8127 -1.5032  0.5436
16408TIP3    H270640   6.071   1.638   3.538 -0.4597  0.1704  0.2001
16409TIP3   OH270641   0.338   1.238   2.022 -0.3171 -0.0393  0.2871
16409TIP3    H170642   0.274   1.265   1.957 -1.1296 -1.5881  0.4198
16409TIP3    H270643   0.410   1.200   1.971  0.3156  1.2530  0.1690
16410TIP3   OH270644   5.816   1.031   4.755  0.2277 -0.0148 -0.6610
16410TIP3    H170645   5.788   0.953   4.802  0.8547 -0.1411 -0.4913
16410TIP3    H270646   5.882   1.000   4.693  1.6653  0.5905  0.5071
16411TIP3   OH270647   3.078   4.784   1.916  0.4166  0.4209 -0.4123
16411TIP3    H170648   3.040   4.798   1.829  1.3123  1.8973 -0.6082
16411TIP3    H270649   3.006   4.748   1.968 -0.2724 -0.0113 -1.6263
16412TIP3   OH270650   4.027   4.513   3.561 -0.0153  0.0530 -0.2089
16412TIP3    H170651   4.026   4.513   3.466 -2.0573  1.6524 -0.2362
16412TIP3    H270652   4.090   4.582   3.584 -0.7578  0.8117 -0.4300
16413TIP3   OH270653   6.283   4.716   1.688  0.1005 -0.0822 -0.2995
16413TIP3    H170654   6.342   4.641   1.676  0.7688  0.0047  1.9315
16413TIP3    H270655   6.217   4.685   1.750  1.0482  1.4269  1.5963
16414TIP3   OH270656   0.547   2.663  13.333 -0.0618 -0.5834 -0.5734
16414TIP3    H170657   0.536   2.568  13.333  1.8044 -0.8460  0.2168
16414TIP3    H270658   0.581   2.684  13.246 -0.2413 -0.6807 -0.6657
16415TIP3   OH270659   5.399   5.937  11.137 -0.0579  0.6512  0.1073
16415TIP3    H170660   5.307   5.944  11.163 -0.4555  0.5103 -1.1883
16415TIP3    H270661   5.396   5.920  11.043  1.2652 -1.0064  0.3169
16416TIP3   OH270662   4.882   4.912  12.814 -0.3467  0.6707 -0.0577
16416TIP3    H170663   4.834   4.828  12.814  0.8082 -0.0242 -1.4221
16416TIP3    H270664   4.923   4.915  12.900  0.1950 -0.5362 -0.2485
16417TIP3   OH270665   3.828   0.579  10.732 -0.3444  0.4119 -0.0037
16417TIP3    H170666   3.887   0.651  10.753 -1.3366  0.6766  2.2008
16417TIP3    H270667   3.842   0.515  10.803 -1.2709 -0.4146 -0.5422
16418TIP3   OH270668   0.557   5.094  14.135  0.1405 -0.2030  0.7491
16418TIP3    H170669   0.548   5.005  14.100  1.4851  0.3483 -1.1207
16418TIP3    H270670   0.485   5.143  14.096 -1.3359 -0.6548  2.7080
16419TIP3   OH270671   1.048   2.522  13.628  0.1834  0.7732 -0.2126
16419TIP3    H170672   1.067   2.434  13.661  0.8792  0.9611 -0.0946
16419TIP3    H270673   1.036   2.511  13.534  0.1463  0.5378 -0.1801
16420TIP3   OH270674   2.813   6.248   0.535  0.5089  0.2179  0.2204
16420TIP3    H170675   2.857   6.308   0.595 -0.1030  1.4463 -0.5170
16420TIP3    H270676   2.880   6.184   0.510  1.5806  1.4223 -0.0632
16421TIP3   OH270677   1.411   0.025  13.662  0.4176 -0.4317 -0.3215
16421TIP3    H170678   1.387  -0.045  13.602 -0.8528 -1.3921  1.2178
16421TIP3    H270679   1.328   0.070  13.681  0.4996 -1.0555  1.7615
16422TIP3   OH270680   2.305   3.046  10.651  0.2232 -0.2586 -0.3025
16422TIP3    H170681   2.241   3.100  10.605 -0.1950  0.0198  0.5918
16422TIP3    H270682   2.318   3.090  10.735  0.6236 -1.0072  0.0348
16423TIP3   OH270683   6.346   2.238   5.610 -0.7667  0.1315 -0.4559
16423TIP3    H170684   6.426   2.262   5.657 -1.6378  0.2353  1.0223
16423TIP3    H270685   6.374   2.170   5.548  0.1724 -1.2060  1.3256
16424TIP3   OH270686   4.295   4.352   3.117 -0.5736 -0.6893  0.2179
16424TIP3    H170687   4.208   4.369   3.153 -0.5284  0.1477 -0.0531
16424TIP3    H270688   4.302   4.256   3.114 -2.2562 -0.7971 -1.5950
16425TIP3   OH270689   0.104   0.510   3.765  0.1271  0.0490 -0.3298
16425TIP3    H170690   0.183   0.550   3.728  0.2024 -1.7710 -2.3384
16425TIP3    H270691   0.053   0.584   3.799  1.1226  1.6412 -2.0872
16426TIP3   OH270692   3.122   5.547  11.193 -0.1527  0.1745  0.4385
16426TIP3    H170693   3.124   5.629  11.145 -1.3373  0.0638  0.1825
16426TIP3    H270694   3.187   5.492  11.149  2.0519  1.5617  1.7817
16427TIP3   OH270695   2.665   0.684  10.701  0.0410  0.4099 -0.0217
16427TIP3    H170696   2.753   0.715  10.680 -0.0450  1.3891  0.9499
16427TIP3    H270697   2.620   0.680  10.617  0.8379  0.4569 -0.4586
16428TIP3   OH270698   1.534   5.257  10.504  0.5725  0.2036  0.2793
16428TIP3    H170699   1.444   5.290  10.511  0.2670 -0.7827  1.2996
16428TIP3    H270700   1.588   5.335  10.516 -0.0759  1.3578 -3.1679
16429TIP3   OH270701   0.398   6.492   0.061 -0.2358 -0.3663 -0.4759
16429TIP3    H170702   0.350   6.461  -0.015  1.1091 -2.2476 -0.6168
16429TIP3    H270703   0.357   6.448   0.136 -0.2202 -0.1350 -0.3272
16430TIP3   OH270704   2.405   4.647  12.777 -0.0951  0.1929 -0.2467
16430TIP3    H170705   2.425   4.565  12.823 -0.2537  0.4390  0.2742
16430TIP3    H270706   2.489   4.694  12.775  0.1858 -0.3359 -1.2860
16431TIP3   OH270707   2.501   3.374   2.025 -0.4877 -0.0183 -0.5264
16431TIP3    H170708   2.432   3.433   1.997 -0.4555 -0.2016 -1.0108
16431TIP3    H270709   2.557   3.426   2.083 -0.8283  0.2300 -0.4256
16432TIP3   OH270710   4.054   1.627   2.433  0.4135 -0.0362 -0.2820
16432TIP3    H170711   4.125   1.631   2.369  0.8161 -0.0886  0.1598
16432TIP3    H270712   4.095   1.594   2.513  0.2453  1.4556  0.4531
16433TIP3   OH270713   1.698   0.378  14.029  0.1973  0.0832 -0.2357
16433TIP3    H170714   1.604   0.394  14.020 -0.1667 -1.6269  0.0906
16433TIP3    H270715   1.724   0.344  13.944  0.4286  0.1354 -0.1860
16434TIP3   OH270716   2.494   3.385  13.394 -0.2423  0.2651  0.2553
16434TIP3    H170717   2.482   3.376  13.299 -2.2177  1.2985  0.3519
16434TIP3    H270718   2.541   3.306  13.420  2.4029  0.9855 -1.8730
16435TIP3   OH270719   0.958   3.600   0.163 -0.1981 -0.2960 -0.0206
16435TIP3    H170720   0.885   3.588   0.103 -0.4282 -1.4608  0.4627
16435TIP3    H270721   0.917   3.625   0.246  0.0076 -0.1591  0.0411
16436TIP3   OH270722   3.288   0.555  14.714  0.0530 -0.1100  0.1738
16436TIP3    H170723   3.199   0.590  14.706  0.0012  0.1405  1.5553
16436TIP3    H270724   3.310   0.567  14.807  1.1631 -1.0552  0.0562
16437TIP3   OH270725   3.060   0.742  16.332 -0.3999 -0.1680 -0.5108
16437TIP3    H170726   3.056   0.647  16.336 -2.0847 -0.1043 -0.1017
16437TIP3    H270727   3.129   0.765  16.395 -1.9979 -1.0134  1.6596
16438TIP3   OH270728   6.347   5.135   4.142  1.1880 -0.0103  0.3677
16438TIP3    H170729   6.329   5.053   4.095  3.2943  0.8025 -2.0805
16438TIP3    H270730   6.286   5.199   4.104  1.7585  0.2802 -0.0602
16439TIP3   OH270731   0.781   0.240   2.329  0.0821  0.4465  0.2871
16439TIP3    H170732   0.872   0.254   2.304  0.3412 -1.6345 -0.0927
16439TIP3    H270733   0.775   0.146   2.346 -1.8674  0.6371  0.8716
16440TIP3   OH270734   2.014   3.398  16.410  0.2012 -0.4388 -0.0924
16440TIP3    H170735   2.105   3.410  16.437  0.4532 -1.6383 -0.3819
16440TIP3    H270736   1.996   3.306  16.425 -0.0564 -0.8953 -2.7040
16441TIP3   OH270737   0.626   3.194  15.451  0.0705  0.5297 -0.0111
16441TIP3    H170738   0.678   3.250  15.508  0.3998  1.6111 -1.3163
16441TIP3    H270739   0.673   3.111  15.448  1.1775  1.1569 -0.3424
16442TIP3   OH270740   1.318   6.019   0.626  0.3894  0.0673 -0.3553
16442TIP3    H170741   1.350   5.951   0.685 -2.5077 -1.8473 -0.7896
16442TIP3    H270742   1.236   5.984   0.592  0.0356  2.7531 -2.5858
16443TIP3   OH270743   4.248   2.403  14.989  0.1334  0.3451 -0.5066
16443TIP3    H170744   4.323   2.395  15.048 -1.9804  0.0980  2.3675
16443TIP3    H270745   4.240   2.497  14.973  0.4505  0.4695  0.0233
16444TIP3   OH270746   3.736   3.184  11.046 -0.6285  0.3248  0.1614
16444TIP3    H170747   3.831   3.178  11.053 -0.5974  0.8463  0.2343
16444TIP3    H270748   3.711   3.111  10.989 -0.2016  0.0998  0.2623
16445TIP3   OH270749   0.563   1.894   4.250  0.1318  0.0403  0.0672
16445TIP3    H170750   0.630   1.937   4.198  1.0451 -0.5480  0.7069
16445TIP3    H270751   0.505   1.964   4.279  1.2913  0.7832  0.6662
16446TIP3   OH270752   3.021   4.798  13.191 -0.2095  0.0978 -0.0033
16446TIP3    H170753   2.998   4.787  13.099  0.4417  0.2979 -0.1918
16446TIP3    H270754   3.002   4.890  13.209  2.2975  0.8213 -0.7107
16447TIP3   OH270755   1.996   1.922  16.914  0.2905  1.1872  0.0421
16447TIP3    H170756   1.921   1.864  16.906  0.4920  0.7174  1.2790
16447TIP3    H270757   2.066   1.878  16.865 -0.1010  1.3969 -0.7178
16448TIP3   OH270758   3.101   1.979  13.426  0.6852 -0.2211  0.4504
16448TIP3    H170759   3.070   2.063  13.392 -0.4761 -0.7257  0.2461
16448TIP3    H270760   3.093   1.919  13.352  0.4598 -0.7683  0.9197
16449TIP3   OH270761   3.640   2.473   0.222 -0.2753 -0.2024  0.3561
16449TIP3    H170762   3.594   2.413   0.162  1.5078  0.4664 -1.8053
16449TIP3    H270763   3.732   2.464   0.198  0.2311  1.9795  1.3042
16450TIP3   OH270764   5.020   4.119  12.318 -0.3115 -0.0737 -0.3543
16450TIP3    H170765   5.111   4.097  12.339 -1.0170 -1.4137  1.5686
16450TIP3    H270766   4.983   4.150  12.401 -1.6330  0.3634 -1.0834
16451TIP3   OH270767   3.519   2.057   4.027  0.1072 -0.2498  0.2570
16451TIP3    H170768   3.603   2.047   3.981  0.2314  0.8277  0.2363
16451TIP3    H270769   3.465   2.109   3.968 -0.5724 -0.9038  0.2951
16452TIP3   OH270770   1.812   6.490  11.848 -0.5335  0.1792  0.4570
16452TIP3    H170771   1.761   6.558  11.803  0.0771  0.1944 -0.2233
16452TIP3    H270772   1.781   6.408  11.809 -1.2752  0.0477  1.2832
16453TIP3   OH270773   2.685   0.010   1.234 -0.8051 -0.2116  0.3003
16453TIP3    H170774   2.592   0.007   1.255 -0.4842 -1.4278  1.7267
16453TIP3    H270775   2.711  -0.082   1.223  0.1748  0.1169 -0.3413
16454TIP3   OH270776   1.175   3.285  13.427 -0.0441  0.1485 -0.0748
16454TIP3    H170777   1.167   3.197  13.391 -2.0054 -0.0385  0.6621
16454TIP3    H270778   1.168   3.273  13.522  1.4114  0.9564  0.1641
16455TIP3   OH270779   4.043   5.111  14.238 -0.2486 -0.0167 -0.2137
16455TIP3    H170780   4.042   5.019  14.263 -1.5337  0.1948  0.6040
16455TIP3    H270781   3.952   5.130  14.214 -0.5021  1.5853  1.7731
16456TIP3   OH270782   5.225   1.739   1.650 -0.6380  0.5952 -0.0821
16456TIP3    H170783   5.266   1.727   1.565 -2.2610  0.7629 -0.9318
16456TIP3    H270784   5.264   1.819   1.685  0.2713  0.3461 -0.5156
16457TIP3   OH270785   4.072   0.257  14.094 -0.0043 -0.0626 -0.1353
16457TIP3    H170786   3.984   0.294  14.099  0.2068  0.5213 -0.6620
16457TIP3    H270787   4.126   0.327  14.058  1.1105  0.3126  2.0653
16458TIP3   OH270788   6.142   0.222   6.093  0.0866  0.2853 -0.0099
16458TIP3    H170789   6.085   0.221   6.170 -1.2748  0.4575 -0.9813
16458TIP3    H270790   6.209   0.287   6.114 -1.0709  1.3647  0.5088
16459TIP3   OH270791   2.529   5.527   6.105  0.5106  0.1083  0.4726
16459TIP3    H170792   2.592   5.458   6.124  1.6439  0.4944 -1.6485
16459TIP3    H270793   2.456   5.482   6.062  1.1648  0.1797 -0.7374
16460TIP3   OH270794   4.847   4.521  12.366  0.2171  0.1235 -0.3359
16460TIP3    H170795   4.801   4.578  12.427  0.1283  0.1646 -0.4404
16460TIP3    H270796   4.935   4.513  12.402  0.5422  1.1612 -0.8666
16461TIP3   OH270797   5.057   4.597  14.275 -0.0370 -0.6401  0.4267
16461TIP3    H170798   5.127   4.631  14.331 -0.2403 -0.1173  0.3698
16461TIP3    H270799   4.981   4.652  14.295 -0.6574 -1.6625  1.0287
16462TIP3   OH270800   0.809   0.776   1.870 -0.4560 -0.0597 -0.1055
16462TIP3    H170801   0.855   0.856   1.845 -0.6181 -0.4530 -1.8583
16462TIP3    H270802   0.836   0.759   1.960  2.0697  0.2868 -0.6973
16463TIP3   OH270803   1.482   4.467  11.768 -0.2519 -0.8199  0.3266
16463TIP3    H170804   1.388   4.473  11.752  0.0030 -0.0635 -1.0608
16463TIP3    H270805   1.512   4.397  11.710 -0.0593 -1.6303  1.3683
16464TIP3   OH270806   1.007   1.672   5.170  0.2937  0.7671 -0.4300
16464TIP3    H170807   0.919   1.639   5.152 -0.4700  1.4958  1.6157
16464TIP3    H270808   1.003   1.764   5.144  0.8357  0.5218 -1.4134
16465TIP3   OH270809   4.135   1.794  12.554 -0.2409 -0.6067 -0.2588
16465TIP3    H170810   4.043   1.781  12.533 -0.7511  0.2263  1.2723
16465TIP3    H270811   4.173   1.836  12.477 -0.5839 -2.8894 -1.7796
16466TIP3   OH270812   0.048   3.745  12.856 -0.3532  0.4180  0.0555
16466TIP3    H170813  -0.002   3.803  12.913 -0.9028 -1.3856  1.5023
16466TIP3    H270814  -0.011   3.725  12.784 -1.0280 -0.1710  0.7591
16467TIP3   OH270815   1.434   5.974   4.062 -0.4166 -0.2688  0.4746
16467TIP3    H170816   1.424   5.879   4.075 -0.0627 -0.2788  0.7148
16467TIP3    H270817   1.485   5.981   3.981  0.6101 -0.3333  1.0867
16468TIP3   OH270818   0.641   4.601  15.560  0.9204  0.2299 -0.0915
16468TIP3    H170819   0.686   4.537  15.504  1.0360 -0.0664  0.3351
16468TIP3    H270820   0.548   4.587  15.543  0.9755  1.3311 -1.5194
16469TIP3   OH270821   5.137   3.917  14.494 -0.6193 -0.7153  0.0146
16469TIP3    H170822   5.178   3.993  14.536 -0.0484 -0.3269 -1.1956
16469TIP3    H270823   5.210   3.860  14.472 -0.8431 -0.5894 -1.0688
16470TIP3   OH270824   2.273   1.487  16.298  0.6059 -0.1749  0.3850
16470TIP3    H170825   2.325   1.478  16.218 -1.2429 -0.0221 -0.9285
16470TIP3    H270826   2.262   1.582  16.308 -2.0484 -0.2087 -1.2786
16471TIP3   OH270827   1.258   3.615   0.898  0.2817 -0.1681  0.1564
16471TIP3    H170828   1.302   3.585   0.819  0.7604 -0.5739  0.5667
16471TIP3    H270829   1.247   3.709   0.885  1.3808 -0.0292  0.0841
16472TIP3   OH270830   3.382   4.701  16.190  0.0240 -0.2451 -0.4017
16472TIP3    H170831   3.438   4.623  16.183  1.3315  0.6457 -0.2618
16472TIP3    H270832   3.304   4.670  16.237  0.9557 -1.2533  0.5624
16473TIP3   OH270833   5.600   0.979  12.381  0.4263 -0.3165  0.6199
16473TIP3    H170834   5.563   0.895  12.355 -0.8671  0.3542  0.1606
16473TIP3    H270835   5.694   0.969  12.369  0.1107 -0.6085 -2.9255
16474TIP3   OH270836   4.232   5.190  14.023 -0.7535  0.5853 -0.6267
16474TIP3    H170837   4.321   5.210  14.053 -0.5229 -1.8091  0.5014
16474TIP3    H270838   4.180   5.186  14.103 -1.2540 -0.7686 -0.9898
16475TIP3   OH270839   0.778   4.920  16.758  0.0487 -0.7941  0.6894
16475TIP3    H170840   0.833   4.850  16.794  2.1618 -0.7830 -2.1823
16475TIP3    H270841   0.813   5.000  16.797  2.5179 -0.7489 -1.3520
16476TIP3   OH270842   5.260   6.286  14.321 -0.4014  0.2361  0.4125
16476TIP3    H170843   5.185   6.294  14.380 -0.2708  0.9917  0.4888
16476TIP3    H270844   5.317   6.359  14.345  0.4563 -0.4375  0.4853
16477TIP3   OH270845   4.375   1.810  14.294  0.6617  0.2747  0.1604
16477TIP3    H170846   4.461   1.775  14.271  0.3102 -2.8186  2.7808
16477TIP3    H270847   4.392   1.867  14.369  0.5024  0.0762  0.3490
16478TIP3   OH270848   3.328   3.368   4.322 -0.2042 -0.0590  0.0623
16478TIP3    H170849   3.411   3.382   4.367  0.1030 -0.1289 -0.4793
16478TIP3    H270850   3.345   3.394   4.231 -0.1084 -2.3064 -0.6034
16479TIP3   OH270851   2.884   3.519  15.163 -0.0173 -0.3619 -0.2191
16479TIP3    H170852   2.856   3.585  15.100 -2.8688 -0.2387  1.0294
16479TIP3    H270853   2.839   3.439  15.136  3.0891 -1.8368 -1.4856
16480TIP3   OH270854   4.006   2.306   4.503  0.1932 -0.0507 -0.4559
16480TIP3    H170855   3.921   2.266   4.524  0.1217 -0.3265 -1.2436
16480TIP3    H270856   4.011   2.303   4.407  1.0876 -0.0280 -0.4192
16481TIP3   OH270857   1.599   5.465  15.899  0.0751 -0.1347 -0.3847
16481TIP3    H170858   1.552   5.488  15.819 -2.1661 -0.1031  0.8720
16481TIP3    H270859   1.691   5.480  15.878 -0.5916  1.5693 -2.3735
16482TIP3   OH270860   5.096   6.136   2.727  0.1790  0.0924 -0.0076
16482TIP3    H170861   5.114   6.159   2.636  1.4463  0.0328  0.2093
16482TIP3    H270862   5.154   6.192   2.778  0.2076 -0.5835  0.7199
16483TIP3   OH270863   4.381   0.098   5.283  0.3476 -0.1203 -0.5968
16483TIP3    H170864   4.475   0.113   5.275  0.0327  1.5330 -1.6398
16483TIP3    H270865   4.356   0.055   5.201  0.2988 -1.3029  0.0136
16484TIP3   OH270866   4.050   0.706  10.960 -0.7867 -0.0726 -0.6156
16484TIP3    H170867   4.029   0.715  10.867  0.9300 -0.9056 -1.1195
16484TIP3    H270868   4.145   0.710  10.964 -0.8314  3.8278  1.5572
16485TIP3   OH270869   0.159   0.563   3.069 -0.4888  0.5259 -0.1873
16485TIP3    H170870   0.170   0.509   3.148 -1.5555  1.3153  0.5393
16485TIP3    H270871   0.106   0.509   3.011 -1.4756  0.7194  0.4989
16486TIP3   OH270872   6.589   3.337   3.920 -0.3221 -0.0446 -0.5948
16486TIP3    H170873   6.619   3.424   3.895  0.5599 -0.5940 -1.5186
16486TIP3    H270874   6.493   3.340   3.912 -0.1659  0.2045 -2.7934
16487TIP3   OH270875   1.583   3.446  11.774 -1.0773 -0.0625  0.0751
16487TIP3    H170876   1.675   3.468  11.793 -0.5917 -0.0751 -1.9919
16487TIP3    H270877   1.549   3.412  11.857  0.3616  1.2782  1.2883
16488TIP3   OH270878   4.899   2.468  13.773  0.8520  0.4809 -0.3099
16488TIP3    H170879   4.826   2.455  13.712  0.8118  0.8140 -0.3314
16488TIP3    H270880   4.893   2.559  13.799  0.6795  0.2589  0.4368
16489TIP3   OH270881   2.681   5.249  13.884 -0.2920  0.4161  0.2406
16489TIP3    H170882   2.759   5.299  13.861 -0.5519  0.3897 -0.7401
16489TIP3    H270883   2.643   5.223  13.800 -0.9075 -0.2727  0.7154
16490TIP3   OH270884   1.235   4.578   5.884 -0.2106 -0.4563 -0.2846
16490TIP3    H170885   1.215   4.617   5.800  0.2166  0.1670 -0.1029
16490TIP3    H270886   1.273   4.649   5.936 -0.4763 -0.8271  0.4365
16491TIP3   OH270887   2.515   5.350   6.379 -0.3600  0.2594 -0.5124
16491TIP3    H170888   2.499   5.435   6.338 -0.0813  0.2967 -0.5486
16491TIP3    H270889   2.495   5.286   6.310  1.0679  0.3508 -1.0575
16492TIP3   OH270890   2.848   4.481   1.303 -0.2207  0.0010 -0.5858
16492TIP3    H170891   2.852   4.434   1.219  2.2363  1.3476 -1.3043
16492TIP3    H270892   2.760   4.519   1.304 -1.8039 -3.2778 -0.6224
16493TIP3   OH270893   2.428   0.356   2.821 -0.3282  0.1069 -0.7402
16493TIP3    H170894   2.502   0.317   2.868 -1.0304 -0.6339 -0.2295
16493TIP3    H270895   2.418   0.301   2.743 -1.9146 -1.3735  0.4470
16494TIP3   OH270896   0.240   1.549  13.594 -0.1611  0.3262  0.7906
16494TIP3    H170897   0.148   1.526  13.595  0.0801 -0.7684 -0.1706
16494TIP3    H270898   0.248   1.614  13.525 -0.2968  0.8489  1.2601
16495TIP3   OH270899   2.849   1.658  12.831  0.2711  0.2233 -0.5768
16495TIP3    H170900   2.878   1.567  12.820 -3.1148 -1.2347  1.3298
16495TIP3    H270901   2.846   1.692  12.742  1.0749 -1.7110 -1.4121
16496TIP3   OH270902   6.535   4.032  14.481 -0.3685  0.1330 -0.4346
16496TIP3    H170903   6.619   3.998  14.513  0.3579  0.4933 -1.8425
16496TIP3    H270904   6.473   3.960  14.494  0.3963 -0.5180 -0.3092
16497TIP3   OH270905   4.450   4.298  13.081  0.3889  0.6812  0.6030
16497TIP3    H170906   4.358   4.324  13.082 -0.0874 -0.8319 -0.2239
16497TIP3    H270907   4.470   4.275  13.172 -0.0266  1.0711  0.7941
16498TIP3   OH270908   6.014   0.690  11.955 -0.0076 -0.6323 -0.3559
16498TIP3    H170909   6.016   0.637  11.875 -1.7900 -2.2648  0.6042
16498TIP3    H270910   6.090   0.661  12.005 -0.5916 -1.8531 -0.1398
16499TIP3   OH270911   4.783   1.871  13.263  0.1942  0.5727  1.1532
16499TIP3    H170912   4.854   1.833  13.212 -1.8837 -1.4782 -0.3707
16499TIP3    H270913   4.753   1.800  13.320 -1.2194  1.0765  1.0856
16500TIP3   OH270914   4.577   5.400   0.222 -0.2349 -0.1964  0.1380
16500TIP3    H170915   4.510   5.335   0.204 -0.1738  0.2803 -2.0500
16500TIP3    H270916   4.542   5.481   0.186  1.3152  0.1517 -0.6659
16501TIP3   OH270917   2.069   1.321   2.200  0.7521 -0.2396  0.2354
16501TIP3    H170918   2.137   1.299   2.136  1.0856  0.0273  0.4896
16501TIP3    H270919   2.114   1.317   2.285  0.1243 -1.3707  0.5344
16502TIP3   OH270920   5.795   6.229   5.786  0.3306  0.4723 -0.1260
16502TIP3    H170921   5.756   6.307   5.824 -2.3385  0.4249 -2.4266
16502TIP3    H270922   5.800   6.248   5.692 -0.0672 -1.9337 -0.7165
16503TIP3   OH270923   4.264   0.754   4.515 -0.3368  0.6113  0.0896
16503TIP3    H170924   4.355   0.785   4.515 -0.6003  1.4512 -0.7812
16503TIP3    H270925   4.255   0.707   4.432 -0.5125 -0.0865  0.4943
16504TIP3   OH270926   6.410   6.561  13.433  0.3398 -0.4868 -0.4607
16504TIP3    H170927   6.497   6.564  13.471  1.0930 -0.0555 -2.1167
16504TIP3    H270928   6.407   6.479  13.384 -0.8820 -1.4079  1.0650
16505TIP3   OH270929   5.972   2.023  10.937 -0.5986 -0.0163 -0.6536
16505TIP3    H170930   5.918   1.987  10.867 -0.0566  1.3738 -1.8354
16505TIP3    H270931   6.061   1.992  10.918 -0.6638 -0.8031  0.2510
16506TIP3   OH270932   0.753   6.763   2.483 -0.7267  0.0189 -0.0939
16506TIP3    H170933   0.705   6.705   2.425  0.9161 -0.1527 -1.3466
16506TIP3    H270934   0.806   6.704   2.537 -1.0911  0.2572  0.5439
16507TIP3   OH270935   4.407   4.057  15.390 -0.2207 -0.4397 -0.5019
16507TIP3    H170936   4.337   4.119  15.370 -2.3465 -2.7728 -0.8350
16507TIP3    H270937   4.377   3.974  15.353  2.1895 -1.8368  0.4231
16508TIP3   OH270938   0.232   5.779  12.102  0.2380 -0.1090 -0.3203
16508TIP3    H170939   0.271   5.810  12.021  1.1006  0.2577  0.2238
16508TIP3    H270940   0.301   5.729  12.146  0.3328  1.0573  0.9347
16509TIP3   OH270941   0.277   3.604  11.766  0.3419  0.0036 -0.4619
16509TIP3    H170942   0.233   3.688  11.754  1.1945  0.5343  0.0408
16509TIP3    H270943   0.210   3.548  11.806 -0.2974  0.3691 -0.9956
16510TIP3   OH270944   5.765   4.834   0.413  0.4539  0.0489 -0.2117
16510TIP3    H170945   5.687   4.889   0.411  1.5099  1.6402  0.0610
16510TIP3    H270946   5.836   4.894   0.437  1.5888 -1.5548  0.6292
16511TIP3   OH270947   5.802   0.569  13.619 -0.2974 -0.1549 -0.4846
16511TIP3    H170948   5.851   0.622  13.682  0.3995  0.8117 -1.7697
16511TIP3    H270949   5.750   0.633  13.570 -0.0141 -0.7254 -1.5705
16512TIP3   OH270950   6.591   0.577  11.256 -0.2721 -0.0700  0.3761
16512TIP3    H170951   6.653   0.627  11.308  0.1604  0.9815 -1.0904
16512TIP3    H270952   6.505   0.610  11.283  0.0253  2.0885 -1.0854
16513TIP3   OH270953   2.974   5.356   6.321  0.3182  0.3206  0.0313
16513TIP3    H170954   2.970   5.364   6.416 -1.4924 -0.9375  0.1357
16513TIP3    H270955   2.989   5.445   6.289  3.2022  0.4691  1.5108
16514TIP3   OH270956   4.942   3.342   0.698 -0.2079 -0.4560  0.0223
16514TIP3    H170957   4.905   3.430   0.709 -2.0717 -1.0770 -0.9322
16514TIP3    H270958   4.940   3.305   0.786  0.0072  0.2249  0.3266
16515TIP3   OH270959   4.123   6.449   2.380  0.0166 -0.2161  0.4134
16515TIP3    H170960   4.155   6.507   2.449  2.0864 -0.6312 -0.1384
16515TIP3    H270961   4.170   6.477   2.301  0.2658 -1.9259 -0.0863
16516TIP3   OH270962   2.035   6.322  15.987  0.7897  0.2157  0.1669
16516TIP3    H170963   2.110   6.285  15.940  0.4731  1.4702 -1.4475
16516TIP3    H270964   2.060   6.318  16.079  1.6033 -2.0259 -0.0853
16517TIP3   OH270965   1.317   3.969  11.490 -0.1092  0.2238 -0.1433
16517TIP3    H170966   1.329   4.027  11.565 -2.8786  0.5355  0.1665
16517TIP3    H270967   1.396   3.914  11.488  1.1044  1.8106  1.5003
16518TIP3   OH270968   2.673   2.977  12.862 -0.6075  0.2534  0.1080
16518TIP3    H170969   2.606   3.043  12.880 -0.2220  0.4184  0.9736
16518TIP3    H270970   2.749   3.027  12.831 -1.2728 -0.0247 -2.1675
16519TIP3   OH270971   2.061   6.065  11.158  0.3856 -0.1267  0.2957
16519TIP3    H170972   2.120   6.040  11.229  0.0720 -2.6399 -0.2454
16519TIP3    H270973   2.100   6.027  11.079 -0.7912  0.0784 -0.4208
16520TIP3   OH270974   3.875   3.033   3.064  0.1192  0.4014 -0.1182
16520TIP3    H170975   3.970   3.020   3.066  0.2680  1.4286  2.2725
16520TIP3    H270976   3.841   2.975   3.133 -0.5141  2.8210  1.7492
16521TIP3   OH270977   2.781   2.905  11.178  0.6701 -0.2742 -0.4211
16521TIP3    H170978   2.793   2.811  11.164  1.2125 -0.0868 -1.2974
16521TIP3    H270979   2.770   2.941  11.090  1.1635  0.5685 -0.1500
16522TIP3   OH270980   2.055   6.236  15.616  0.5714 -0.2427  0.8278
16522TIP3    H170981   1.964   6.248  15.642  0.6002  0.4217  0.6273
16522TIP3    H270982   2.071   6.142  15.628  0.0328 -0.2641  1.4064
16523TIP3   OH270983   3.551   5.481  15.423 -0.0177 -0.2785 -0.2979
16523TIP3    H170984   3.613   5.446  15.487  2.2270 -1.5115 -2.9279
16523TIP3    H270985   3.566   5.576  15.425 -0.3252 -0.2333  1.2308
16524TIP3   OH270986   1.450   4.380  12.061  0.4848  0.3663  0.1009
16524TIP3    H170987   1.521   4.333  12.106  0.7192  0.8851  0.2809
16524TIP3    H270988   1.478   4.382  11.969 -1.0095 -2.5999 -0.5268
16525TIP3   OH270989   3.534   3.029  15.128 -0.3226  0.1393  0.2568
16525TIP3    H170990   3.586   3.046  15.050  0.1875 -1.7413  0.1382
16525TIP3    H270991   3.580   3.074  15.198  0.1056  0.5056 -0.2580
16526TIP3   OH270992   1.403   1.797   4.446 -0.4198 -0.2243 -0.0878
16526TIP3    H170993   1.401   1.886   4.410 -0.7584  1.1670  3.0255
16526TIP3    H270994   1.454   1.746   4.382  0.0408  2.2423 -1.8332
16527TIP3   OH270995   1.242   6.172   0.994 -0.1653  0.3642  0.2880
16527TIP3    H170996   1.296   6.192   0.918  2.5765 -0.0997  1.9398
16527TIP3    H270997   1.166   6.229   0.986  0.9035  1.6278 -1.8478
16528TIP3   OH270998   6.362   1.336  13.429  0.1344  0.4896 -0.2701
16528TIP3    H170999   6.314   1.281  13.367  0.8353  1.4009 -1.6716
16528TIP3    H271000   6.396   1.275  13.494  0.7911 -0.7296 -1.7076
16529TIP3   OH271001   2.544   6.652  14.734  0.0366 -0.3865 -0.6937
16529TIP3    H171002   2.609   6.582  14.733 -1.3000 -1.6988 -0.8739
16529TIP3    H271003   2.568   6.708  14.807  2.3933  0.2410 -1.8622
16530TIP3   OH271004   5.132   4.489   1.847  0.1055 -0.4221 -0.4943
16530TIP3    H171005   5.134   4.569   1.899  0.2572 -1.0815  0.5485
16530TIP3    H271006   5.175   4.513   1.765  2.0912  0.0227  0.6090
16531TIP3   OH271007   6.470   4.436  14.253 -0.3065 -0.7672 -0.0437
16531TIP3    H171008   6.512   4.369  14.199  1.5786 -1.1188  1.7585
16531TIP3    H271009   6.449   4.391  14.335  0.2701  0.6258  0.9086
16532TIP3   OH271010   6.011   6.166   1.693  0.2115  0.8682  0.2505
16532TIP3    H171011   6.078   6.104   1.720  2.0134  2.1007 -1.1682
16532TIP3    H271012   6.030   6.246   1.743 -0.3676  1.1480  0.0368
16533TIP3   OH271013   6.556   2.806  14.403  0.5882  0.2725  0.4829
16533TIP3    H171014   6.483   2.755  14.368  0.4335  0.2960  0.7676
16533TIP3    H271015   6.580   2.761  14.484  1.3775 -0.1664  0.0187
16534TIP3   OH271016   5.632   0.782   4.058 -0.0014 -0.2778 -0.2236
16534TIP3    H171017   5.633   0.864   4.108  1.0124 -0.0890 -0.5211
16534TIP3    H271018   5.714   0.784   4.009  0.6926 -2.0708  0.7545
16535TIP3   OH271019   6.093   6.450  14.067 -0.1251 -0.5934 -1.1078
16535TIP3    H171020   6.005   6.445  14.028 -0.7071  0.3672  0.0127
16535TIP3    H271021   6.144   6.386  14.018 -1.0009 -0.0003 -2.9225
16536TIP3   OH271022   3.567   3.576   4.659 -0.2019  0.6667  0.3266
16536TIP3    H171023   3.619   3.496   4.647  0.7735  1.1384  1.1703
16536TIP3    H271024   3.626   3.647   4.633 -0.4124  1.2115  1.2629
16537TIP3   OH271025   2.291   1.008   0.985 -0.3546  0.4996 -0.1764
16537TIP3    H171026   2.352   1.081   0.994 -0.1567  0.2977  0.1194
16537TIP3    H271027   2.345   0.929   0.990 -0.4343  0.3292 -1.4506
16538TIP3   OH271028   3.892   5.592   4.615 -0.3616 -0.5679 -0.0064
16538TIP3    H171029   3.903   5.593   4.520  1.7661 -1.4775  0.1808
16538TIP3    H271030   3.854   5.506   4.634 -0.3992 -0.5464  0.0181
16539TIP3   OH271031   4.534   0.153   2.491 -0.4975  0.1617 -0.5915
16539TIP3    H171032   4.626   0.179   2.488 -0.9779  1.9227 -0.6579
16539TIP3    H271033   4.532   0.068   2.445  1.4579 -1.1660  1.5544
16540TIP3   OH271034   2.037   4.498  14.039  0.1895  0.3743  0.2526
16540TIP3    H171035   1.980   4.489  13.963  0.4271  4.7473 -0.6960
16540TIP3    H271036   1.990   4.556  14.098  2.2381  1.4894  0.9042
16541TIP3   OH271037   1.318   3.542  16.057 -0.5506  0.0886 -0.5873
16541TIP3    H171038   1.352   3.453  16.055 -1.3081 -0.2061 -0.5394
16541TIP3    H271039   1.260   3.545  16.133  1.6516  1.4489  1.1614
16542TIP3   OH271040   2.179   2.573   0.459 -0.2001 -0.2807 -0.3232
16542TIP3    H171041   2.182   2.508   0.389 -1.6857 -1.0540  0.2923
16542TIP3    H271042   2.140   2.526   0.533 -1.3639  1.3350  0.1238
16543TIP3   OH271043   3.635   1.236  16.689 -0.5019  0.0321 -0.0283
16543TIP3    H171044   3.636   1.142  16.674  1.1242 -0.0475  0.3900
16543TIP3    H271045   3.543   1.261  16.679 -1.1569 -1.7682  0.9844
16544TIP3   OH271046   2.461   2.113   4.544  0.0937  0.2776  0.6099
16544TIP3    H171047   2.478   2.180   4.478  1.1838 -3.5242 -3.4708
16544TIP3    H271048   2.545   2.103   4.590  0.4202  0.5340  0.0755
16545TIP3   OH271049   5.537   3.031   5.677 -0.1755  0.1922 -0.4865
16545TIP3    H171050   5.453   2.988   5.665  0.9455 -2.2993 -0.1916
16545TIP3    H271051   5.572   2.993   5.758  1.5250  0.5768 -0.9970
16546TIP3   OH271052   4.368   0.996  11.993 -0.4957 -0.2879 -0.7680
16546TIP3    H171053   4.275   0.974  12.002 -0.5110  0.0076 -0.1877
16546TIP3    H271054   4.408   0.965  12.074  0.1529 -1.5945 -1.5522
16547TIP3   OH271055   4.627   3.961   4.050  0.1991  0.4146 -0.1808
16547TIP3    H171056   4.674   3.952   4.133 -0.3779 -0.6258  0.0521
16547TIP3    H271057   4.663   4.040   4.011  1.7519 -0.0279  0.2453
16548TIP3   OH271058   0.306   0.232  11.413 -0.4512  0.0041  0.1909
16548TIP3    H171059   0.346   0.314  11.384 -0.1813  0.3546  1.4718
16548TIP3    H271060   0.278   0.250  11.503  0.7155 -1.6721  0.9444
16549TIP3   OH271061   2.084   2.798  11.978  0.0097 -0.0659 -0.4771
16549TIP3    H171062   2.145   2.818  12.049 -2.2502 -1.6625  2.1200
16549TIP3    H271063   2.136   2.749  11.915  1.5129 -1.1107  1.4645
16550TIP3   OH271064   0.056   0.312  11.305 -0.2673  0.0053  0.1568
16550TIP3    H171065   0.077   0.317  11.211  0.0904  0.6652  0.2659
16550TIP3    H271066   0.141   0.306  11.348 -0.2883  1.8315  0.5552
16551TIP3   OH271067   0.258   3.239   5.364 -0.3235  0.4219  0.2470
16551TIP3    H171068   0.171   3.265   5.395  0.2056  0.8611  1.4293
16551TIP3    H271069   0.250   3.238   5.269 -1.1769  2.1392  0.2547
16552TIP3   OH271070   2.418   2.632   2.489 -0.1470 -0.6452  0.7178
16552TIP3    H171071   2.357   2.560   2.473 -0.5935 -0.5180  1.7734
16552TIP3    H271072   2.365   2.700   2.530  0.7145 -0.5722  1.7421
16553TIP3   OH271073   5.499   2.539  16.462 -0.0779 -0.2528 -0.5062
16553TIP3    H171074   5.449   2.515  16.384  0.3936  1.6197 -1.4533
16553TIP3    H271075   5.433   2.562  16.527 -0.4761 -0.0116 -0.9892
16554TIP3   OH271076   2.278   6.768   5.206  0.2789  0.4255  0.0671
16554TIP3    H171077   2.268   6.786   5.299 -1.2401  0.3945 -0.0543
16554TIP3    H271078   2.372   6.761   5.192  0.5046 -0.5117  1.7785
16555TIP3   OH271079   3.334   5.282   2.098  0.4514  0.0197  0.0070
16555TIP3    H171080   3.426   5.256   2.106  0.6036  0.6864  0.5126
16555TIP3    H271081   3.337   5.366   2.051  0.2548  1.0129  1.6975
16556TIP3   OH271082   3.658   2.786  15.353 -0.6726  0.3937 -0.0517
16556TIP3    H171083   3.586   2.808  15.412  0.1197  2.8108  0.0987
16556TIP3    H271084   3.623   2.802  15.266  0.2241  3.7479  0.0784
16557TIP3   OH271085   2.043   4.271   5.020  0.1967 -0.3439  0.0699
16557TIP3    H171086   1.968   4.212   5.017 -0.5470  0.6052 -0.3763
16557TIP3    H271087   2.058   4.296   4.929  0.2937  0.3992  0.2812
16558TIP3   OH271088   5.619   2.526   0.098 -0.0385  0.1645  0.4059
16558TIP3    H171089   5.617   2.440   0.141 -3.8254  0.2670  0.7641
16558TIP3    H271090   5.603   2.507   0.005  0.8180  0.4105  0.1989
16559TIP3   OH271091   4.087   6.683   5.565  0.4140 -0.4425 -0.0630
16559TIP3    H171092   3.998   6.674   5.599 -0.0422 -1.6836 -1.4571
16559TIP3    H271093   4.075   6.712   5.474  1.3140 -2.0929 -0.7569
16560TIP3   OH271094   0.057   4.653   5.179 -0.5256 -0.3660  0.0063
16560TIP3    H171095   0.052   4.641   5.084 -0.5690 -1.4663  0.1292
16560TIP3    H271096   0.102   4.737   5.190  1.0475 -1.0151 -0.9938
16561TIP3   OH271097   2.895   6.740   5.654  0.8153 -0.4571  0.0730
16561TIP3    H171098   2.939   6.658   5.674  0.7803  0.0334  2.4153
16561TIP3    H271099   2.812   6.713   5.615  0.6591 -1.5764  1.0974
16562TIP3   OH271100   5.964   0.621   5.865 -0.4060 -0.3829  0.1222
16562TIP3    H171101   5.980   0.646   5.956  0.0011  0.5911 -0.2071
16562TIP3    H271102   6.004   0.535   5.856 -0.7705 -0.6471  0.9578
16563TIP3   OH271103   1.380   2.628  11.591  0.2717 -0.1894  0.0187
16563TIP3    H171104   1.343   2.700  11.642 -0.8860 -0.5710 -0.2504
16563TIP3    H271105   1.370   2.656  11.500 -2.0926 -1.4937 -0.2134
16564TIP3   OH271106   5.030   1.385   1.823 -0.0346  0.1955 -0.6072
16564TIP3    H171107   5.116   1.427   1.824 -0.5156  1.2234  0.5849
16564TIP3    H271108   4.973   1.446   1.869 -1.1126 -1.0608 -0.2127
16565TIP3   OH271109   4.378   5.024  11.755  0.3087 -0.3842 -0.3234
16565TIP3    H171110   4.453   5.008  11.698 -0.5992 -1.2721 -1.3213
16565TIP3    H271111   4.337   5.104  11.720 -0.0619 -0.7463 -0.7288
16566TIP3   OH271112   6.291   2.797   0.342 -0.4331  0.0462 -0.9109
16566TIP3    H171113   6.250   2.823   0.260  1.1118  3.6577 -0.7060
16566TIP3    H271114   6.240   2.842   0.410  0.6368  0.2780 -0.2361
16567TIP3   OH271115   2.741   3.814  11.479 -0.0056  0.0403  0.4566
16567TIP3    H171116   2.695   3.731  11.463 -0.3324  0.3415 -0.2080
16567TIP3    H271117   2.754   3.816  11.574 -1.3777 -0.0547  0.6696
16568TIP3   OH271118   5.400   3.328   3.516  0.2787  0.4112  0.1291
16568TIP3    H171119   5.400   3.406   3.460  0.7520 -0.2168 -0.7737
16568TIP3    H271120   5.468   3.345   3.581  1.6718  0.0175 -1.1630
16569TIP3   OH271121   5.051   0.520   3.319 -0.2856  0.1797 -0.1587
16569TIP3    H171122   5.011   0.607   3.319 -1.0902 -0.1639  1.4136
16569TIP3    H271123   5.143   0.536   3.299 -0.9334  1.0931 -2.7429
16570TIP3   OH271124   4.344   5.046  12.013  0.6785 -0.1429 -0.6172
16570TIP3    H171125   4.249   5.056  12.010  0.6790  0.6669  0.9847
16570TIP3    H271126   4.374   5.080  11.929 -0.3315  1.2897 -0.4345
16571TIP3   OH271127   5.783   6.455   3.462  0.3269 -0.2269  0.7009
16571TIP3    H171128   5.847   6.422   3.398 -0.4426 -1.7782  0.7012
16571TIP3    H271129   5.799   6.550   3.463  0.8023 -0.2272 -1.3111
16572TIP3   OH271130   3.322   0.596   2.937 -0.4585  0.1197  0.0430
16572TIP3    H171131   3.259   0.592   2.864  1.7080  1.2512 -2.0510
16572TIP3    H271132   3.388   0.530   2.915  0.4727  0.7933  0.7680
16573TIP3   OH271133   6.303   5.414   1.634  0.2253 -0.3902 -0.5532
16573TIP3    H171134   6.226   5.357   1.634 -0.8857  1.0440 -1.2710
16573TIP3    H271135   6.325   5.425   1.541  2.4990 -2.2708 -0.3272
16574TIP3   OH271136   2.942   3.714   3.882 -0.7316  0.2100  0.1112
16574TIP3    H171137   2.999   3.733   3.957 -0.7139  1.9531 -0.2901
16574TIP3    H271138   2.868   3.666   3.919  0.4193 -1.0853  0.8293
16575TIP3   OH271139   6.545   2.053  13.673  0.0571  0.3215  0.9148
16575TIP3    H171140   6.629   2.070  13.631 -0.7804  1.6120 -0.3482
16575TIP3    H271141   6.550   2.100  13.756  0.7899 -0.1076  1.1218
16576TIP3   OH271142   5.386   1.906  16.807 -0.0502 -0.9463  0.5523
16576TIP3    H171143   5.383   1.867  16.719 -1.5319  0.5134 -0.0848
16576TIP3    H271144   5.465   1.960  16.807  0.2299 -1.3433  0.3221
16577TIP3   OH271145   4.517   3.974  16.556 -0.4293  0.2066 -0.1370
16577TIP3    H171146   4.585   3.954  16.620 -0.8756  2.1611  1.0181
16577TIP3    H271147   4.435   3.958  16.602 -0.7522  0.8591 -0.4755
16578TIP3   OH271148   1.079   3.574  11.337 -0.4882 -0.3330  0.4538
16578TIP3    H171149   1.172   3.558  11.320 -0.2785 -0.1644  1.4153
16578TIP3    H271150   1.051   3.629  11.263  0.4223  0.4487  0.6613
16579TIP3   OH271151   3.069   0.689  12.929  0.1530  0.5582 -0.6350
16579TIP3    H171152   3.156   0.710  12.962  0.4131 -0.1350 -0.8642
16579TIP3    H271153   3.066   0.593  12.928  0.4006  0.5095 -3.2092
16580TIP3   OH271154   5.374   1.947   4.745 -0.0606 -0.3518 -0.3755
16580TIP3    H171155   5.452   1.928   4.693  1.0773  2.8771 -0.1070
16580TIP3    H271156   5.396   1.916   4.833  0.1232 -1.2018 -0.7162
16581TIP3   OH271157   5.079   3.860   2.929  0.1526  0.7236  0.8111
16581TIP3    H171158   5.020   3.936   2.931  0.9619  1.3791  0.5131
16581TIP3    H271159   5.055   3.814   2.849 -1.0407  0.0740  1.5148
16582TIP3   OH271160   4.224   6.775   3.999 -0.1919 -0.3076 -0.0544
16582TIP3    H171161   4.149   6.817   4.041 -0.9395 -0.8697 -0.8103
16582TIP3    H271162   4.298   6.831   4.021 -0.7930  0.1364  0.8851
16583TIP3   OH271163   2.414   1.045  13.531 -0.0507  0.6836 -0.5837
16583TIP3    H171164   2.462   1.102  13.470 -1.3910 -0.7130 -3.1412
16583TIP3    H271165   2.322   1.059  13.508 -0.4213 -2.4084 -1.3095
16584TIP3   OH271166   5.428   3.729   5.266 -0.2961 -0.3536  0.0454
16584TIP3    H171167   5.456   3.725   5.175 -1.8480  0.7945 -0.5095
16584TIP3    H271168   5.508   3.752   5.314 -0.1901  3.0507 -1.4968
16585TIP3   OH271169   4.331   4.950   6.024  0.1137  0.3466  0.8401
16585TIP3    H171170   4.377   4.867   6.036 -0.6570 -0.1270  0.6683
16585TIP3    H271171   4.300   4.973   6.112 -0.4526 -0.0405  0.7558
16586TIP3   OH271172   2.331   6.556  14.882  0.2217  0.0546 -0.0567
16586TIP3    H171173   2.416   6.594  14.862 -0.0136  0.5306 -0.1640
16586TIP3    H271174   2.277   6.574  14.805  0.3232 -1.1815 -0.4407
16587TIP3   OH271175   0.595   6.755   1.788  0.6868  0.3641  0.0315
16587TIP3    H171176   0.640   6.788   1.866  1.6233  1.9738 -1.1177
16587TIP3    H271177   0.558   6.833   1.747  0.4362 -0.4079 -1.2674
16588TIP3   OH271178   1.597   6.340   3.253  0.5634  0.4646 -0.0685
16588TIP3    H171179   1.601   6.427   3.213  1.2235 -0.1307 -1.3690
16588TIP3    H271180   1.504   6.323   3.266  0.3875  1.0599 -0.5311
16589TIP3   OH271181   3.403   0.950  11.427  0.3871 -0.2401 -0.1206
16589TIP3    H171182   3.386   0.856  11.432 -0.7345 -0.0110  0.8759
16589TIP3    H271183   3.389   0.971  11.334  3.4689 -1.4899 -0.9968
16590TIP3   OH271184   2.764   1.979  10.308  0.0349 -0.6676  0.8607
16590TIP3    H171185   2.715   2.009  10.384 -1.1684  0.1878 -0.2206
16590TIP3    H271186   2.778   2.058  10.255  1.4672 -1.1150  0.5168
16591TIP3   OH271187   2.263   6.330  16.184  0.0391 -0.5496  1.0036
16591TIP3    H171188   2.307   6.412  16.162 -0.6379 -0.5798 -0.6262
16591TIP3    H271189   2.310   6.297  16.260  2.0053  0.0565  0.1036
16592TIP3   OH271190   0.829   4.035   2.295  0.1433  0.0006 -0.1804
16592TIP3    H171191   0.778   4.091   2.236 -3.0734 -2.2722  0.1474
16592TIP3    H271192   0.797   4.058   2.382 -0.5364 -1.5870  0.0270
16593TIP3   OH271193   1.626   2.128   4.755 -0.0467 -0.4165 -0.3506
16593TIP3    H171194   1.565   2.055   4.750 -1.9550  1.0446  0.5085
16593TIP3    H271195   1.624   2.167   4.667 -2.3307  1.0768  0.2798
16594TIP3   OH271196   0.521   3.734   5.081  0.6989  0.2567 -0.6127
16594TIP3    H171197   0.484   3.657   5.123 -0.6042  1.4185  0.4399
16594TIP3    H271198   0.504   3.722   4.988  2.1569 -1.5616 -0.7043
16595TIP3   OH271199   0.167   5.619  15.723  0.6513  0.4496  0.1871
16595TIP3    H171200   0.238   5.574  15.768  1.4486  2.6031  1.2095
16595TIP3    H271201   0.111   5.653  15.794  0.2379  1.3031 -0.5292
16596TIP3   OH271202   4.169   3.130  15.909  0.3764  0.2860 -0.1720
16596TIP3    H171203   4.174   3.224  15.924 -1.5025  0.1832  1.6243
16596TIP3    H271204   4.228   3.114  15.836  0.0700  2.9879 -1.1320
16597TIP3   OH271205   3.380   0.748   4.477 -0.2258 -0.0418 -0.1705
16597TIP3    H171206   3.390   0.781   4.567 -2.2468  0.1853  0.0261
16597TIP3    H271207   3.346   0.660   4.488  0.2975 -0.3199 -0.7295
16598TIP3   OH271208   3.994   4.386   1.485 -0.6450 -0.0298  0.1854
16598TIP3    H171209   3.930   4.361   1.551  0.6295 -0.4872  1.3033
16598TIP3    H271210   4.049   4.308   1.474 -0.7831  0.0510 -1.3845
16599TIP3   OH271211   0.235   3.629   1.197  0.2507 -0.2307 -0.6100
16599TIP3    H171212   0.212   3.680   1.120 -0.4361  1.1742  0.4767
16599TIP3    H271213   0.330   3.633   1.202  0.1790  2.3256  0.2820
16600TIP3   OH271214   0.915   5.057  14.636  0.2210 -0.1249 -0.5937
16600TIP3    H171215   0.911   5.040  14.730  1.9487  1.2242 -0.2318
16600TIP3    H271216   0.829   5.030  14.603 -0.7865  0.2877  1.5271
16601TIP3   OH271217   0.122   5.117  16.897 -0.6205  0.3372 -0.4775
16601TIP3    H171218   0.171   5.107  16.978  0.0908  0.0853 -0.9256
16601TIP3    H271219   0.164   5.056  16.836 -1.4205  0.2045 -0.9077
16602TIP3   OH271220   0.036   4.255  14.633  0.2858  0.6098  0.0033
16602TIP3    H171221   0.052   4.348  14.616  0.2106  0.6052 -0.0925
16602TIP3    H271222  -0.024   4.255  14.708 -1.1746  0.6872 -1.1168
16603TIP3   OH271223   6.309   6.065  14.665  0.2148  0.0278 -0.5544
16603TIP3    H171224   6.225   6.103  14.689  0.3536 -0.3712  0.6637
16603TIP3    H271225   6.291   5.971  14.659  0.9643 -0.3321  1.7987
16604TIP3   OH271226   3.623   0.879  12.475 -0.1355 -0.0047 -0.1592
16604TIP3    H171227   3.707   0.925  12.466  0.5478 -1.3048 -0.7164
16604TIP3    H271228   3.592   0.867  12.385 -0.4995 -0.2538 -0.0031
16605TIP3   OH271229   3.331   6.292   0.871 -0.6110 -0.2960  0.7989
16605TIP3    H171230   3.377   6.298   0.955 -0.7496 -3.1220  1.1709
16605TIP3    H271231   3.239   6.281   0.896 -0.8024 -0.0099  0.2239
16606TIP3   OH271232   6.670   5.799   1.641 -0.7721 -0.0531  0.1874
16606TIP3    H171233   6.740   5.783   1.704 -0.2097  0.0636 -0.3927
16606TIP3    H271234   6.616   5.720   1.644  0.8591 -1.3083 -1.2233
16607TIP3   OH271235   6.354   5.440  10.839 -0.2328 -0.8400 -0.1697
16607TIP3    H171236   6.407   5.427  10.760  0.7708  1.3110  0.0874
16607TIP3    H271237   6.277   5.385  10.825  0.0629 -0.7766 -2.5077
16608TIP3   OH271238   4.909   0.895   6.329  0.3428  0.0642  0.1022
16608TIP3    H171239   4.980   0.835   6.310 -0.3562 -0.2791 -1.5868
16608TIP3    H271240   4.836   0.864   6.276 -0.5943  1.3368  0.5877
16609TIP3   OH271241   4.889   4.799  10.445  0.4255  0.4391 -0.0585
16609TIP3    H171242   4.807   4.768  10.407  0.5768  0.2492 -0.2351
16609TIP3    H271243   4.957   4.757  10.392  0.6607 -0.7432  1.1370
16610TIP3   OH271244   1.185   4.158  15.298  0.4633  0.4409  0.0445
16610TIP3    H171245   1.231   4.097  15.241 -1.0899 -1.3646  0.6271
16610TIP3    H271246   1.157   4.105  15.373 -1.5936  1.6848  0.2385
16611TIP3   OH271247   5.010   5.042  16.673 -0.3757  0.5868  0.3793
16611TIP3    H171248   5.087   5.018  16.622 -1.1116  0.1837 -0.5728
16611TIP3    H271249   4.972   4.959  16.701 -0.8152  0.7563  0.2969
16612TIP3   OH271250   4.022   6.285  11.400  0.0056  0.1039 -0.9423
16612TIP3    H171251   4.041   6.224  11.328 -0.3306 -0.1354 -0.8321
16612TIP3    H271252   4.107   6.318  11.427  0.4338 -1.9367  0.4210
16613TIP3   OH271253   1.795   3.830   4.934  0.4184 -0.2496  0.0746
16613TIP3    H171254   1.796   3.735   4.926 -1.5393 -0.2053 -1.6814
16613TIP3    H271255   1.856   3.860   4.866 -0.5507 -0.2669 -0.8425
16614TIP3   OH271256   3.075   3.004  11.671  0.1129  0.1706  0.0986
16614TIP3    H171257   3.101   2.927  11.621 -0.9464  0.4371 -0.9137
16614TIP3    H271258   3.126   3.075  11.633 -0.8791  0.4183 -0.8191
16615TIP3   OH271259   2.018   3.833   0.220  0.0029 -0.4051 -0.3505
16615TIP3    H171260   2.105   3.857   0.187  0.3764 -0.6737  0.4035
16615TIP3    H271261   1.997   3.751   0.174  0.1191 -0.3030 -0.5846
16616TIP3   OH271262   5.135   5.247   6.512 -0.1212  0.1987 -0.0675
16616TIP3    H171263   5.071   5.175   6.519 -1.2824  1.0827 -1.1184
16616TIP3    H271264   5.085   5.325   6.534  0.9650  0.7854  0.3939
16617TIP3   OH271265   2.778   3.238   5.722  0.0879 -0.6739 -0.7076
16617TIP3    H171266   2.686   3.216   5.736  0.2312 -0.5462  0.5352
16617TIP3    H271267   2.808   3.269   5.807  0.9974  0.3269 -1.3748
16618TIP3   OH271268   3.042   6.674  12.299  0.0180 -0.2377 -0.0056
16618TIP3    H171269   3.109   6.687  12.366  0.5418 -1.2715 -0.3003
16618TIP3    H271270   2.986   6.751  12.304  0.7301  0.2281  0.8367
16619TIP3   OH271271   4.248   4.915   3.116 -1.1236 -0.1761  0.3050
16619TIP3    H171272   4.229   4.948   3.203  0.4324 -1.2326  1.0990
16619TIP3    H271273   4.162   4.894   3.079 -1.8016  0.0698  1.6723
16620TIP3   OH271274   5.165   0.296   5.608 -0.3777 -0.4914  0.6450
16620TIP3    H171275   5.258   0.317   5.606 -0.3335 -0.6687  0.9319
16620TIP3    H271276   5.127   0.356   5.672 -0.9236  1.4638 -1.3567
16621TIP3   OH271277   0.283   5.026   1.741  0.2068  0.6149 -0.5053
16621TIP3    H171278   0.369   5.006   1.704  0.8537  0.8858  0.7942
16621TIP3    H271279   0.262   4.950   1.795 -0.7022  0.2471 -1.3386
16622TIP3   OH271280   4.606   5.862   6.308 -0.6384  0.1874  0.1535
16622TIP3    H171281   4.687   5.835   6.351  0.3923  0.3309 -1.6138
16622TIP3    H271282   4.537   5.840   6.371  0.6499 -1.1266  1.1706
16623TIP3   OH271283   3.783   2.684  11.159 -0.3899 -0.1446 -0.2893
16623TIP3    H171284   3.773   2.772  11.195  1.7270  0.7296 -1.6433
16623TIP3    H271285   3.741   2.627  11.223  0.8729  1.5502  2.1998
16624TIP3   OH271286   5.685   2.096   4.890  0.2907  0.8555 -0.2113
16624TIP3    H171287   5.689   2.015   4.940 -0.0138  0.5825 -0.6224
16624TIP3    H271288   5.592   2.122   4.893  0.7252  2.3576  1.7464
16625TIP3   OH271289   6.012   2.436   2.317  0.3257 -0.5400  0.3495
16625TIP3    H171290   6.083   2.441   2.254  1.1415  0.8445  1.3230
16625TIP3    H271291   6.056   2.427   2.402 -0.5961  1.1784  1.0530
16626TIP3   OH271292   0.191   3.585  14.085 -0.0328  0.2024  0.0556
16626TIP3    H171293   0.258   3.649  14.059 -0.2368  1.0002  1.4135
16626TIP3    H271294   0.113   3.610  14.037  0.1724  0.3314 -0.2104
16627TIP3   OH271295   5.529   3.174  11.775  0.5214 -0.5559 -0.1611
16627TIP3    H171296   5.492   3.262  11.767  1.1414 -0.1470  1.1847
16627TIP3    H271297   5.504   3.145  11.862 -0.1701 -1.9734 -0.8067
16628TIP3   OH271298   0.490   3.222   6.043 -0.2787  0.0455 -0.4691
16628TIP3    H171299   0.395   3.212   6.057 -0.4266 -0.0409 -1.4453
16628TIP3    H271300   0.528   3.208   6.130 -1.1451 -0.1387 -0.0995
16629TIP3   OH271301   1.705   0.308   5.418  0.0605 -0.1969  0.0175
16629TIP3    H171302   1.621   0.348   5.441 -1.4025 -1.1931 -3.0589
16629TIP3    H271303   1.735   0.268   5.500 -1.4697  1.7800  1.6723
16630TIP3   OH271304   5.950   2.005   5.212  0.4391  0.0771 -0.3419
16630TIP3    H171305   6.036   2.008   5.255  0.8104  1.6075 -1.1169
16630TIP3    H271306   5.949   2.083   5.156 -0.6010 -1.0502 -1.9774
16631TIP3   OH271307   4.559   0.358  13.442  0.9785  0.5317 -0.0947
16631TIP3    H171308   4.626   0.316  13.496 -0.1462 -0.1467  0.8300
16631TIP3    H271309   4.484   0.368  13.501  0.7071  2.5412 -0.6983
16632TIP3   OH271310   3.541   0.917   5.095 -0.3686  0.5698  0.2077
16632TIP3    H171311   3.496   0.978   5.154 -2.8785  1.5381 -2.4257
16632TIP3    H271312   3.548   0.965   5.012  0.8128 -1.4999 -0.9679
16633TIP3   OH271313   1.830   5.614  13.466  0.3452 -0.7664 -0.4932
16633TIP3    H171314   1.807   5.623  13.374 -0.6121 -0.1518 -0.2025
16633TIP3    H271315   1.747   5.611  13.512  0.8061  0.5063  0.4944
16634TIP3   OH271316   2.713   6.122  15.724  0.1897 -0.1276  0.0439
16634TIP3    H171317   2.715   6.156  15.813  0.8738 -0.1298  0.0358
16634TIP3    H271318   2.664   6.187  15.674 -0.5200 -0.3123  0.4977
16635TIP3   OH271319   1.744   4.158   1.451 -0.1899 -0.2651  0.1611
16635TIP3    H171320   1.791   4.241   1.460 -0.2720 -0.2846  0.7474
16635TIP3    H271321   1.652   4.182   1.448 -0.2045 -0.3223  0.1553
16636TIP3   OH271322   4.981   0.589   4.336  0.4886 -0.2581  0.4338
16636TIP3    H171323   5.031   0.669   4.351 -0.5060  0.8068 -1.5924
16636TIP3    H271324   5.018   0.552   4.256 -1.3909  0.1290 -0.6664
16637TIP3   OH271325   0.327   5.417  12.771 -0.2449 -0.5344 -0.0208
16637TIP3    H171326   0.286   5.349  12.825 -0.1592 -1.1406 -0.7011
16637TIP3    H271327   0.259   5.441  12.708  0.4041 -1.5301 -1.1422
16638TIP3   OH271328   4.598   5.545  12.564 -0.3781 -0.0695  0.0457
16638TIP3    H171329   4.679   5.496  12.547 -0.4673 -0.2603  0.1763
16638TIP3    H271330   4.529   5.479  12.563 -0.7079  0.2555 -1.3906
16639TIP3   OH271331   2.172   2.249   2.828  0.0905 -0.2406 -0.2855
16639TIP3    H171332   2.145   2.176   2.772 -0.6580  1.0563 -1.6975
16639TIP3    H271333   2.089   2.289   2.856  0.4433 -0.8694  1.8324
16640TIP3   OH271334   1.616   0.708   0.869  0.0142  0.2214 -0.0165
16640TIP3    H171335   1.693   0.717   0.925  0.3652 -0.4238 -0.3873
16640TIP3    H271336   1.563   0.785   0.889 -0.0832 -0.2193  1.5108
16641TIP3   OH271337   2.041   6.568  15.279 -0.1929 -0.5619  0.2747
16641TIP3    H171338   2.023   6.651  15.322 -0.6781 -0.0441 -0.8924
16641TIP3    H271339   2.087   6.592  15.198 -1.3054 -1.3201 -0.6141
16642TIP3   OH271340   3.925   3.222  13.236 -0.3894 -0.2923  0.2608
16642TIP3    H171341   3.914   3.313  13.266 -1.9227 -0.7041  1.0392
16642TIP3    H271342   3.952   3.175  13.315 -0.4017 -0.6669  0.0398
16643TIP3   OH271343   4.476   4.218  14.947  0.3570 -0.4327  0.0643
16643TIP3    H171344   4.480   4.259  14.860 -0.3292  3.2478  1.6261
16643TIP3    H271345   4.429   4.136  14.932 -1.9817  1.2169 -2.7149
16644TIP3   OH271346   1.072   5.916   0.871  0.4022 -0.2861 -0.1467
16644TIP3    H171347   1.111   6.003   0.874  0.2625 -0.2019 -0.7701
16644TIP3    H271348   1.057   5.898   0.778 -0.4744 -0.5705  0.0369
16645TIP3   OH271349   0.960   4.985   0.603  0.3354  0.4387 -0.1943
16645TIP3    H171350   0.945   5.069   0.647 -0.7813 -1.1793  2.7750
16645TIP3    H271351   0.895   4.983   0.533 -1.2661  1.1221  1.1898
16646TIP3   OH271352   2.776   5.793   1.585 -0.2284  0.4505 -0.0544
16646TIP3    H171353   2.866   5.792   1.618 -0.2227  0.5525 -0.0682
16646TIP3    H271354   2.777   5.730   1.513 -0.2688  0.1383  0.2112
16647TIP3   OH271355   2.265   1.458   5.712 -0.0263  0.2518  0.0999
16647TIP3    H171356   2.181   1.492   5.744 -1.0895  0.1049 -2.3152
16647TIP3    H271357   2.314   1.536   5.686  0.9566  0.3924  2.1905
16648TIP3   OH271358   6.550   4.725  17.006  0.2258  0.3331 -0.1079
16648TIP3    H171359   6.545   4.672  16.927  0.9609  1.0516 -0.6571
16648TIP3    H271360   6.591   4.807  16.978  2.5181 -0.1789  1.3732
16649TIP3   OH271361   3.941   0.668  11.397 -0.3221  0.4950 -0.0860
16649TIP3    H171362   3.980   0.715  11.323 -1.6879  0.6343 -0.7508
16649TIP3    H271363   3.885   0.732  11.440 -0.7378 -0.0063  0.1315
16650TIP3   OH271364   2.351   2.029   2.452 -0.1097 -0.1458  0.3874
16650TIP3    H171365   2.413   1.961   2.478 -1.2535 -1.1786  0.4899
16650TIP3    H271366   2.363   2.099   2.517  3.5591  1.4140 -1.6484
16651TIP3   OH271367   6.607   0.078  10.589  0.2199  0.1096 -0.4529
16651TIP3    H171368   6.697   0.073  10.558 -0.2678  1.3505 -2.2323
16651TIP3    H271369   6.602   0.162  10.635  0.2697 -0.5453  0.8019
16652TIP3   OH271370   2.167   0.376   5.297  0.4418  0.0472 -0.1473
16652TIP3    H171371   2.123   0.405   5.377  0.7004  1.5147 -0.5073
16652TIP3    H271372   2.107   0.400   5.226  2.1040  2.9935 -0.7379
16653TIP3   OH271373   1.468   0.015   0.826 -0.2133 -0.1588 -0.0082
16653TIP3    H171374   1.405   0.002   0.755  0.2054  0.1335 -0.4454
16653TIP3    H271375   1.467   0.109   0.842 -1.5587 -0.3888  1.5736
16654TIP3   OH271376   5.716   0.706  10.968  0.0612  0.4495 -0.4862
16654TIP3    H171377   5.640   0.649  10.983 -0.3030  0.9991 -0.2036
16654TIP3    H271378   5.782   0.675  11.030  0.8508 -1.3839 -2.1293
16655TIP3   OH271379   3.221   4.820   5.586  0.3481 -0.0706 -0.1719
16655TIP3    H171380   3.210   4.885   5.516 -0.5886 -2.8908 -2.8637
16655TIP3    H271381   3.267   4.747   5.544 -0.3712 -1.9768  2.1473
16656TIP3   OH271382   4.500   1.774  17.192  0.2427  0.5609 -0.6537
16656TIP3    H171383   4.440   1.714  17.148  0.2702  0.4947 -0.5994
16656TIP3    H271384   4.468   1.861  17.167  0.3618  0.5230 -0.9478
16657TIP3   OH271385   4.164   0.960   4.884  0.1788 -0.0304  0.7273
16657TIP3    H171386   4.197   1.029   4.827  2.9357 -2.0372 -0.3477
16657TIP3    H271387   4.100   0.914   4.831  1.9614 -1.2312 -0.5181
16658TIP3   OH271388   0.222   6.036   3.176  0.0712  0.3092  0.5462
16658TIP3    H171389   0.158   6.085   3.124 -0.9081 -1.3258  0.1589
16658TIP3    H271390   0.305   6.049   3.130 -0.3213  0.9149 -0.0098
16659TIP3   OH271391   1.536   2.081   0.919  0.4446 -0.5504  0.0723
16659TIP3    H171392   1.568   2.087   1.009  0.1154  0.8765  0.1170
16659TIP3    H271393   1.440   2.086   0.927  0.4283 -0.0334 -0.3772
16660TIP3   OH271394   2.137   2.671   0.125 -0.3575 -0.0438 -0.0966
16660TIP3    H171395   2.046   2.658   0.097 -0.0724 -0.6431 -0.7541
16660TIP3    H271396   2.131   2.742   0.189 -1.3200 -0.2346  0.0513
16661TIP3   OH271397   3.146   4.253  14.012 -0.0554  0.4437 -0.0606
16661TIP3    H171398   3.154   4.290  13.924 -1.1270  0.8755  0.0185
16661TIP3    H271399   3.052   4.243  14.026  0.1602 -2.0703  0.0445
16662TIP3   OH271400   1.153   6.596  11.288 -0.5398 -0.3604  0.6098
16662TIP3    H171401   1.247   6.582  11.301 -0.8123 -2.1035  1.0470
16662TIP3    H271402   1.133   6.550  11.207 -1.0337 -0.0819  0.5713
16663TIP3   OH271403   5.911   2.943  11.897  0.4046  0.2844 -0.5458
16663TIP3    H171404   5.929   3.029  11.935 -0.5679  1.0297 -1.6881
16663TIP3    H271405   5.816   2.934  11.900  0.3732 -0.0591 -1.8466
16664TIP3   OH271406   0.394   1.205  13.075 -0.6920  0.7207  0.3200
16664TIP3    H171407   0.479   1.161  13.073 -0.6790  0.7564 -0.1985
16664TIP3    H271408   0.389   1.245  13.162 -0.5929 -0.0862  0.7036
16665TIP3   OH271409   4.909   0.134  11.227 -0.2965 -0.2381  0.2449
16665TIP3    H171410   4.953   0.190  11.162 -0.1866 -0.3488  0.2221
16665TIP3    H271411   4.921   0.180  11.310 -2.8275  1.3369 -0.1581
16666TIP3   OH271412   4.506   3.736   4.655  0.2485 -0.6019  0.0212
16666TIP3    H171413   4.531   3.825   4.631 -0.2522 -0.7950 -1.3391
16666TIP3    H271414   4.435   3.714   4.594 -1.8511 -0.8064  2.4037
16667TIP3   OH271415   0.372   0.455  11.944 -0.2617  0.6101  0.0419
16667TIP3    H171416   0.363   0.516  12.017  2.2259  0.5617  0.4753
16667TIP3    H271417   0.409   0.508  11.873  0.9102 -0.1192  0.0820
16668TIP3   OH271418   4.914   6.105   4.831 -0.4508 -0.1398  0.1813
16668TIP3    H171419   4.844   6.040   4.831  0.0778 -0.7688  2.0224
16668TIP3    H271420   4.994   6.055   4.844 -0.1161  0.8638  2.6379
16669TIP3   OH271421   1.106   1.101  12.526  0.1263  0.2234  0.5306
16669TIP3    H171422   1.139   1.136  12.444 -0.2888 -0.1203  0.2124
16669TIP3    H271423   1.019   1.068  12.505  0.2948 -0.5134  0.9380
16670TIP3   OH271424   3.149   6.258  11.677  0.0298  0.2553 -0.0109
16670TIP3    H171425   3.147   6.251  11.582 -0.1034 -0.4210  0.0361
16670TIP3    H271426   3.103   6.180  11.708  0.2587  0.3596  0.6091
16671TIP3   OH271427   4.422   2.977  16.219  0.2194  0.1481  0.3072
16671TIP3    H171428   4.513   3.000  16.203 -0.4263  1.5735 -1.8997
16671TIP3    H271429   4.397   3.031  16.294  1.2829 -0.6069  1.2314
16672TIP3   OH271430   5.041   1.994  13.992  0.5430 -0.3551  0.4700
16672TIP3    H171431   4.996   2.075  14.017  0.3132 -0.6549  1.0581
16672TIP3    H271432   5.070   2.009  13.902 -0.3041  0.0345  0.2517
16673TIP3   OH271433   0.592   1.190   2.329  0.0136  0.3893 -0.0802
16673TIP3    H171434   0.627   1.120   2.274 -2.6455 -1.6975  0.6171
16673TIP3    H271435   0.502   1.201   2.299  0.1456  3.1488  0.2810
16674TIP3   OH271436   6.739   4.640  16.783  0.5020  0.0617 -0.1420
16674TIP3    H171437   6.777   4.553  16.792  0.9848  0.3602  0.7452
16674TIP3    H271438   6.789   4.695  16.842 -0.8290  0.6121  0.5153
16675TIP3   OH271439   4.534   3.570  13.558  0.6612 -0.1750  0.4301
16675TIP3    H171440   4.485   3.514  13.618 -0.0188 -1.4111 -1.2047
16675TIP3    H271441   4.470   3.637  13.531  1.0948  0.6540  1.3636
16676TIP3   OH271442   6.168   6.510  12.964 -0.0070  0.3332 -0.5608
16676TIP3    H171443   6.161   6.558  12.882  0.4190  1.2178 -0.1028
16676TIP3    H271444   6.146   6.420  12.942 -0.2706  0.6331 -1.5622
16677TIP3   OH271445   4.794   2.025   4.085 -0.1735  0.4612  0.2091
16677TIP3    H171446   4.856   1.962   4.121 -1.5980  0.3728  2.8065
16677TIP3    H271447   4.708   1.993   4.116 -1.4030  1.2376 -2.1894
16678TIP3   OH271448   1.736   6.207   1.495 -0.3706 -0.4944 -0.6164
16678TIP3    H171449   1.708   6.220   1.405 -3.0267 -2.3931 -0.1888
16678TIP3    H271450   1.693   6.277   1.544 -0.8135 -0.8089 -0.5477
16679TIP3   OH271451   1.724   2.545  12.063 -0.1984  0.5006  0.1048
16679TIP3    H171452   1.666   2.519  12.135  0.7218 -0.5387  0.4901
16679TIP3    H271453   1.708   2.482  11.994  0.9246 -0.1898  0.4576
16680TIP3   OH271454   5.917   5.908  11.640 -0.6291 -0.0853  0.2755
16680TIP3    H171455   5.927   5.813  11.644 -1.4076 -0.1545  0.6916
16680TIP3    H271456   6.000   5.939  11.604 -0.1875 -0.8807  0.5935
16681TIP3   OH271457   5.716   5.218  15.857  0.3209  0.2514  0.3803
16681TIP3    H171458   5.685   5.142  15.906  1.2336 -0.1663  0.3324
16681TIP3    H271459   5.718   5.289  15.921 -0.4099  0.2065  0.4575
16682TIP3   OH271460   1.406   0.222   0.042 -0.6050 -0.1579  0.6829
16682TIP3    H171461   1.435   0.308   0.013 -1.2305 -0.0837  0.2463
16682TIP3    H271462   1.395   0.231   0.137 -0.2652  0.1157  0.6988
16683TIP3   OH271463   0.328   6.020   4.619 -0.5704  0.1777 -0.4392
16683TIP3    H171464   0.272   5.991   4.690  0.2968  0.7499  0.4964
16683TIP3    H271465   0.415   6.028   4.658  0.1948 -0.7192 -1.8482
16684TIP3   OH271466   1.873   1.324  16.678 -0.5156 -0.6322 -0.3940
16684TIP3    H171467   1.895   1.286  16.763  0.2919  0.8502  0.0916
16684TIP3    H271468   1.930   1.279  16.616  0.5422 -0.1466  0.1945
16685TIP3   OH271469   5.496   5.400  15.562 -0.5993 -0.7748 -0.2944
16685TIP3    H171470   5.502   5.446  15.646 -1.4907  0.1317 -0.7033
16685TIP3    H271471   5.578   5.352  15.555  0.1814  0.4167  0.3641
16686TIP3   OH271472   2.321   5.354  16.002  0.6085  0.5500  0.1299
16686TIP3    H171473   2.364   5.365  15.917  0.9330  0.2332  0.2527
16686TIP3    H271474   2.327   5.440  16.043  0.0662  0.8256 -0.3438
16687TIP3   OH271475   6.061   2.748   4.345 -0.4851  0.5501 -0.7796
16687TIP3    H171476   6.060   2.753   4.441  1.2976  0.0566 -0.6945
16687TIP3    H271477   6.000   2.677   4.324 -1.5616  1.2349 -0.0894
16688TIP3   OH271478   0.403   3.313  14.478 -0.4721  0.5223  0.5218
16688TIP3    H171479   0.417   3.338  14.569  2.0336 -0.1921  0.4062
16688TIP3    H271480   0.445   3.382  14.427 -1.7477  0.8550 -0.1217
16689TIP3   OH271481   4.890   3.678  16.991  0.0411 -0.8163  0.1539
16689TIP3    H171482   4.874   3.658  16.899  1.8226  0.8183 -0.5938
16689TIP3    H271483   4.838   3.756  17.009  0.2217 -0.7378  0.3453
16690TIP3   OH271484   0.604   1.788  14.404  0.4636 -0.3951  0.4959
16690TIP3    H171485   0.669   1.839  14.453  0.0373 -0.0863  0.7474
16690TIP3    H271486   0.547   1.854  14.364 -0.7469 -0.6668  1.6988
16691TIP3   OH271487   6.057   0.448   5.694  0.3457  0.1752  0.1143
16691TIP3    H171488   6.122   0.519   5.694 -0.5239  1.0176 -1.0638
16691TIP3    H271489   6.109   0.368   5.686  1.2597  0.9336 -3.6338
16692TIP3   OH271490   5.579   0.743  14.555 -0.1095 -0.0880  0.4750
16692TIP3    H171491   5.562   0.749  14.461  0.4485  1.6945  0.4477
16692TIP3    H271492   5.536   0.819  14.593 -0.1436 -0.6596  1.6522
16693TIP3   OH271493   1.338   2.344  11.599 -0.1510  0.0077  0.0628
16693TIP3    H171494   1.340   2.439  11.583 -1.1321 -0.0274 -0.2936
16693TIP3    H271495   1.245   2.323  11.608  0.1265 -0.7178  1.4085
16694TIP3   OH271496   2.074   4.637   0.563 -0.1225 -0.4057  0.0111
16694TIP3    H171497   1.984   4.668   0.576 -0.4474 -1.5802  0.7551
16694TIP3    H271498   2.080   4.559   0.618  0.1865 -2.5276 -2.7882
16695TIP3   OH271499   5.278   2.336   3.189 -0.6657  0.0426  0.1408
16695TIP3    H171500   5.274   2.430   3.171  0.1603  0.0477 -0.0778
16695TIP3    H271501   5.198   2.301   3.151 -0.7158  0.5849 -0.2684
16696TIP3   OH271502   3.471   6.605   4.888  0.0898  0.0161 -0.0089
16696TIP3    H171503   3.559   6.586   4.856  0.2052 -1.1048  0.9025
16696TIP3    H271504   3.482   6.621   4.981 -0.8895 -2.2482  0.5760
16697TIP3   OH271505   1.655   5.923  17.129  0.7471  0.0148  0.0076
16697TIP3    H171506   1.559   5.926  17.120  0.8086  1.4487 -0.4448
16697TIP3    H271507   1.687   5.954  17.045  1.6489 -1.1714 -0.1101
16698TIP3   OH271508   4.999   0.824  11.658 -0.2568  0.2386  0.0251
16698TIP3    H171509   5.000   0.731  11.636 -2.4223  0.5004 -1.4284
16698TIP3    H271510   4.906   0.847  11.665  0.2238  2.1751  0.9969
16699TIP3   OH271511   2.959   4.199   3.527 -0.6682 -0.2000  0.3413
16699TIP3    H171512   2.905   4.121   3.541 -1.6128  0.5805  1.2363
16699TIP3    H271513   3.026   4.171   3.465 -1.3904 -1.5322  0.1193
16700TIP3   OH271514   3.767   3.753  16.710  0.5259  0.2350  0.8277
16700TIP3    H171515   3.850   3.799  16.715  0.3933  0.3318  3.0205
16700TIP3    H271516   3.744   3.734  16.801 -2.3888  1.1892  0.4024
16701TIP3   OH271517   4.696   0.490  11.614  0.7632 -0.2086  0.2485
16701TIP3    H171518   4.708   0.580  11.583  0.1594 -0.1841  0.0671
16701TIP3    H271519   4.728   0.492  11.705  0.3216  0.3104  0.4036
16702TIP3   OH271520   0.347   3.065   2.020 -0.0685 -0.0111 -0.2701
16702TIP3    H171521   0.384   3.090   2.105 -0.3624 -1.1334  0.2133
16702TIP3    H271522   0.256   3.096   2.024 -0.2432 -0.5407  0.0640
16703TIP3   OH271523   3.002   1.224   0.840 -0.4044 -0.2826 -0.1994
16703TIP3    H171524   3.032   1.269   0.919  2.1510 -0.9432 -0.6777
16703TIP3    H271525   3.036   1.278   0.768 -0.8000 -0.8241 -0.8054
16704TIP3   OH271526   5.617   0.411   1.115  0.3477  0.2318  0.0448
16704TIP3    H171527   5.544   0.442   1.062 -0.6678 -1.2178  0.5221
16704TIP3    H271528   5.578   0.389   1.199  1.2993 -0.7049  0.2624
16705TIP3   OH271529   1.104   0.987  11.692 -0.0168 -0.2784 -0.4530
16705TIP3    H171530   1.059   0.906  11.713  0.8940 -1.2932 -2.1874
16705TIP3    H271531   1.039   1.041  11.647  0.3103 -1.6245 -2.6984
16706TIP3   OH271532   0.128   0.226   1.832 -0.5303  0.6654  0.1988
16706TIP3    H171533   0.183   0.160   1.873  0.2932  1.5228  0.5145
16706TIP3    H271534   0.180   0.306   1.834 -0.6061  0.8513 -2.1829
16707TIP3   OH271535   2.036   0.741  13.863 -0.0545  0.0939  0.0494
16707TIP3    H171536   2.089   0.727  13.941 -0.4151  1.7495  0.6277
16707TIP3    H271537   2.017   0.653  13.831  1.0510 -0.5867  1.1701
16708TIP3   OH271538   6.106   3.743  10.919 -0.8435 -0.4420  0.4847
16708TIP3    H171539   6.048   3.697  10.859 -2.7039  0.6985  1.3107
16708TIP3    H271540   6.062   3.738  11.004  0.5417  0.0245  1.2804
16709TIP3   OH271541   6.171   2.055   4.124 -0.0442  0.0789 -0.0739
16709TIP3    H171542   6.156   1.962   4.146 -1.4901  0.5995  1.3841
16709TIP3    H271543   6.128   2.103   4.195 -0.1939  1.8942 -1.3275
16710TIP3   OH271544   4.028   6.351  13.531  0.0854 -0.1750  0.3874
16710TIP3    H171545   4.110   6.400  13.542  0.7841 -0.5861 -2.3148
16710TIP3    H271546   4.053   6.260  13.545 -0.3767 -0.1322  1.5630
16711TIP3   OH271547   1.014   4.636  16.260  0.2478 -0.1136 -0.0289
16711TIP3    H171548   1.067   4.575  16.209  0.2372 -0.1986  0.0618
16711TIP3    H271549   0.927   4.596  16.264  0.2569 -0.1240  0.0834
16712TIP3   OH271550   3.040   3.790  15.899 -0.6136 -0.1904  0.2884
16712TIP3    H171551   3.057   3.715  15.955  0.2024  1.2075  2.0267
16712TIP3    H271552   3.123   3.839  15.898 -1.6106  1.6193  0.7610
16713TIP3   OH271553   3.522   0.097   5.277  0.7981 -0.1657 -0.4718
16713TIP3    H171554   3.468   0.073   5.353  4.0715 -3.1831  1.1775
16713TIP3    H271555   3.460   0.134   5.215 -2.6255 -0.5994  2.3549
16714TIP3   OH271556   3.935   5.431  15.572  0.3302 -0.4045 -0.5253
16714TIP3    H171557   3.978   5.405  15.491  0.5930  0.6031 -0.7131
16714TIP3    H271558   3.933   5.526  15.570  1.8883 -0.2553  1.4286
16715TIP3   OH271559   0.363   4.456  15.102 -0.3552 -0.0562  0.1673
16715TIP3    H171560   0.379   4.549  15.117 -1.6294  0.0445  1.0308
16715TIP3    H271561   0.271   4.444  15.123 -0.6543 -1.1897 -1.5993
16716TIP3   OH271562   4.138   0.356   4.236 -0.1978 -0.0695 -0.3460
16716TIP3    H171563   4.094   0.275   4.260 -0.1458 -0.0931 -0.3315
16716TIP3    H271564   4.161   0.344   4.143  0.3602 -0.3183 -0.1770
16717TIP3   OH271565   5.140   5.311  17.150 -0.1281 -0.1677  0.0590
16717TIP3    H171566   5.194   5.312  17.070  0.3057 -1.9134  0.2898
16717TIP3    H271567   5.132   5.403  17.174 -0.7468  0.4633 -2.3042
16718TIP3   OH271568   6.046   1.929   3.330  0.0001 -0.8450  0.4118
16718TIP3    H171569   6.024   2.012   3.288  3.3263 -0.5316 -1.0287
16718TIP3    H271570   5.988   1.865   3.289 -1.3998  0.4603  0.2703
16719TIP3   OH271571   2.586   6.070  11.741 -0.4832  0.2813  0.0747
16719TIP3    H171572   2.664   6.042  11.694  0.5941 -0.1785  2.0345
16719TIP3    H271573   2.609   6.156  11.778 -1.5253  0.9200 -0.6964
16720TIP3   OH271574   3.994   0.267   5.197 -0.3555  0.8691  0.1834
16720TIP3    H171575   3.934   0.334   5.231 -2.5247 -2.2212  3.1052
16720TIP3    H271576   3.938   0.191   5.182  2.4000 -1.2306 -0.1023
16721TIP3   OH271577   5.922   3.885   1.824  0.0502 -0.0040  0.6388
16721TIP3    H171578   5.909   3.949   1.894  0.4842 -0.5528  1.2249
16721TIP3    H271579   5.928   3.801   1.868  1.0654 -0.2826  0.0153
16722TIP3   OH271580   5.395   6.643   3.851 -0.5086  0.1848  0.6157
16722TIP3    H171581   5.339   6.614   3.780  0.1260 -1.6211  0.8060
16722TIP3    H271582   5.361   6.729   3.876  0.1473  1.5629 -2.7780
16723TIP3   OH271583   6.285   4.964  11.289 -0.2158 -0.5377  0.6693
16723TIP3    H171584   6.333   5.047  11.280  1.3411 -1.3898  0.7708
16723TIP3    H271585   6.226   4.979  11.363  0.1733  0.4247  0.8014
16724TIP3   OH271586   1.276   3.849  16.751 -0.3121 -0.1999 -0.0786
16724TIP3    H171587   1.247   3.781  16.811 -0.3349 -0.0103  0.1246
16724TIP3    H271588   1.372   3.843  16.753 -0.2845  0.3853  0.6469
16725TIP3   OH271589   1.435   3.207   4.834 -0.1956 -0.3064  0.2652
16725TIP3    H171590   1.500   3.150   4.875  3.4134  1.4762 -2.3364
16725TIP3    H271591   1.435   3.180   4.742 -2.4370  0.4972 -0.0246
16726TIP3   OH271592   1.286   6.190  13.341 -0.0284  0.1167 -0.8786
16726TIP3    H171593   1.306   6.280  13.367 -2.7118  0.1184  1.7602
16726TIP3    H271594   1.206   6.197  13.289  0.5568 -0.6634 -1.9160
16727TIP3   OH271595   6.710   5.781  16.967 -0.3260  0.1768 -0.1064
16727TIP3    H171596   6.804   5.779  16.947 -0.6058 -0.1032 -1.5232
16727TIP3    H271597   6.698   5.710  17.030  0.4430  0.3417  0.2444
16728TIP3   OH271598   0.759   2.134  10.475  0.6721  0.1828  0.7957
16728TIP3    H171599   0.815   2.211  10.467  0.4078  0.3948  0.9864
16728TIP3    H271600   0.734   2.113  10.386  2.1557 -0.7332  0.5469
16729TIP3   OH271601   3.097   1.433   4.541  0.2422  0.5081 -0.0090
16729TIP3    H171602   3.045   1.513   4.531 -0.5326  0.0147 -0.0039
16729TIP3    H271603   3.103   1.420   4.635 -1.7991 -0.7990 -0.0093
16730TIP3   OH271604   2.464   0.403   2.525  0.4435  0.5734 -0.0752
16730TIP3    H171605   2.554   0.418   2.496  0.9654  2.6067  2.2492
16730TIP3    H271606   2.417   0.482   2.500 -0.3514  0.1413  0.0059
16731TIP3   OH271607   2.047   5.077   4.714  0.0281  0.7142 -0.0436
16731TIP3    H171608   2.008   5.082   4.801  0.3387  0.0626  0.1354
16731TIP3    H271609   2.040   5.167   4.680 -4.3158  0.1323 -1.2398
16732TIP3   OH271610   0.657   2.208  11.407  0.1462 -0.2705 -0.2251
16732TIP3    H171611   0.685   2.291  11.369  1.3370 -0.8474 -0.6644
16732TIP3    H271612   0.564   2.220  11.425  0.4169  1.3588  0.2609
16733TIP3   OH271613   5.207   5.601   2.457 -0.4379  0.3401  0.4964
16733TIP3    H171614   5.121   5.637   2.480 -0.8337 -1.2515  1.7069
16733TIP3    H271615   5.186   5.521   2.408  0.3589  0.2377  0.3236
16734TIP3   OH271616   2.558   2.588  13.930  0.7687 -0.4059  0.2150
16734TIP3    H171617   2.570   2.679  13.958  1.8508 -1.3331  3.2804
16734TIP3    H271618   2.470   2.565  13.961  1.0797 -0.7876  0.8486
16735TIP3   OH271619   2.519   6.603  11.356 -0.3290  0.2622 -0.4086
16735TIP3    H171620   2.456   6.668  11.386 -0.1249 -0.3340  1.4378
16735TIP3    H271621   2.516   6.608  11.261 -2.7549  0.6200 -0.3562
16736TIP3   OH271622   0.904   2.655  15.853  0.0769  0.1697  0.0777
16736TIP3    H171623   0.901   2.696  15.939  1.0354  0.3614  0.0209
16736TIP3    H271624   0.994   2.624  15.844  0.0370  0.3276 -0.9371
16737TIP3   OH271625   2.754   1.825  12.324 -0.1329  0.6922  0.1378
16737TIP3    H171626   2.721   1.892  12.383 -0.6845  0.3165  0.2622
16737TIP3    H271627   2.810   1.873  12.263 -0.2546  1.2148  0.4271
16738TIP3   OH271628   4.227   1.795  15.902 -0.0972  0.5493 -0.2044
16738TIP3    H171629   4.173   1.717  15.893  0.3379  0.1843  0.2678
16738TIP3    H271630   4.196   1.854  15.834 -0.1176 -0.2234 -0.8850
16739TIP3   OH271631   5.352   5.177   4.761 -0.1052  0.4919  0.4907
16739TIP3    H171632   5.330   5.205   4.850  1.0198  1.7399  0.4052
16739TIP3    H271633   5.373   5.258   4.715  1.9330 -0.3479 -0.1762
16740TIP3   OH271634   0.244   6.643  14.117 -0.2227  0.0733 -0.2982
16740TIP3    H171635   0.229   6.702  14.043 -0.5290  1.2848  0.7029
16740TIP3    H271636   0.162   6.593  14.124  0.3650 -1.1726 -1.7148
16741TIP3   OH271637   0.981   6.435   5.918 -0.4662 -0.1704  0.5758
16741TIP3    H171638   0.894   6.476   5.921 -1.5847 -2.0978 -1.7606
16741TIP3    H271639   1.017   6.448   6.006 -2.3016  2.3373  1.0714
16742TIP3   OH271640   0.578   3.612  16.964  0.9736  0.3628 -0.0575
16742TIP3    H171641   0.504   3.662  16.997 -0.2933 -1.5000  0.0607
16742TIP3    H271642   0.540   3.551  16.901  2.7713  1.0188 -1.9106
16743TIP3   OH271643   2.972   4.300   3.043 -0.4268 -0.0967  0.0865
16743TIP3    H171644   2.881   4.285   3.066 -0.5947 -0.5185 -0.8522
16743TIP3    H271645   2.972   4.386   3.001 -0.1119  0.6912  1.6020
16744TIP3   OH271646   4.783   5.818  15.683  0.2046  0.3189  0.4769
16744TIP3    H171647   4.843   5.890  15.665 -0.1334  0.5104  0.0913
16744TIP3    H271648   4.835   5.739  15.670 -0.0551  0.4387 -1.5151
16745TIP3   OH271649   3.206   6.627   0.916 -0.3349  0.2679 -0.1526
16745TIP3    H171650   3.226   6.603   0.825  2.8490  0.1867  0.4779
16745TIP3    H271651   3.170   6.547   0.954 -0.0502 -0.2135 -0.8652
16746TIP3   OH271652   4.049   5.407   2.630 -0.6624  0.7766  0.1134
16746TIP3    H171653   4.054   5.478   2.565  0.1626 -0.4975 -1.2685
16746TIP3    H271654   4.028   5.329   2.579  1.2419 -0.5061  1.1725
16747TIP3   OH271655   2.291   4.427   3.680 -0.0029  0.1317  0.1681
16747TIP3    H171656   2.292   4.346   3.629 -1.4913 -0.8268  1.5758
16747TIP3    H271657   2.233   4.485   3.631 -0.1807 -0.2149 -0.0330
16748TIP3   OH271658   3.722   5.942   2.422  0.6807  0.3691 -0.0379
16748TIP3    H171659   3.650   5.952   2.484  1.6766  0.1628  1.2084
16748TIP3    H271660   3.801   5.957   2.475  1.5261  1.9301 -1.6163
16749TIP3   OH271661   3.864   1.495  14.985  0.0470  0.0497 -0.3840
16749TIP3    H171662   3.943   1.475  15.035 -0.5139  0.1089  0.5633
16749TIP3    H271663   3.894   1.506  14.895  0.8526 -1.6762 -0.3588
16750TIP3   OH271664   3.668   0.953   6.338 -0.1138 -0.0509  0.3392
16750TIP3    H171665   3.695   0.869   6.374 -3.1323 -1.3253 -0.0554
16750TIP3    H271666   3.668   0.940   6.243 -1.9551 -0.1504  0.3134
16751TIP3   OH271667   1.900   3.102  13.804  0.6190 -0.4856 -0.8251
16751TIP3    H171668   1.858   3.108  13.718  1.2599  1.6116 -1.0485
16751TIP3    H271669   1.827   3.106  13.866  0.3324  1.8846 -1.2293
16752TIP3   OH271670   4.937   4.727  11.563 -0.1949 -0.0882 -0.5035
16752TIP3    H171671   4.890   4.643  11.561 -1.6293  0.6831 -0.5851
16752TIP3    H271672   4.876   4.789  11.524  1.0103  0.9298 -0.8110
16753TIP3   OH271673   5.761   6.269  15.273  0.4214 -0.3101 -0.4964
16753TIP3    H171674   5.739   6.237  15.185 -0.4153  0.1374 -0.4577
16753TIP3    H271675   5.731   6.200  15.332  1.5541 -0.8979 -0.5839
16754TIP3   OH271676   0.030   0.593  13.993  0.4602  0.2108  0.1870
16754TIP3    H171677   0.055   0.503  13.972 -1.4034 -0.1862 -0.5450
16754TIP3    H271678  -0.005   0.587  14.082  1.4307  0.4520  0.5916
16755TIP3   OH271679   1.051   0.035   1.629  0.8466 -0.3209 -0.1551
16755TIP3    H171680   1.131  -0.018   1.625  0.3471 -1.1699  0.6219
16755TIP3    H271681   0.980  -0.028   1.615 -0.0408 -0.7218  4.5378
16756TIP3   OH271682   5.611   6.012  15.862 -0.3115  0.1748  0.1683
16756TIP3    H171683   5.564   6.008  15.945 -2.3182  0.4656 -0.8860
16756TIP3    H271684   5.544   5.994  15.796  1.3642 -0.8248 -1.3622
16757TIP3   OH271685   0.576   0.252   4.710 -0.5171  0.3278 -0.6206
16757TIP3    H171686   0.603   0.312   4.640 -2.3051  2.0130  0.0307
16757TIP3    H271687   0.522   0.306   4.768 -0.5475 -1.4568  1.1166
16758TIP3   OH271688   5.748   4.025   1.445 -0.3321 -0.4141 -0.1717
16758TIP3    H171689   5.791   3.967   1.507  0.0807  0.7160  0.6394
16758TIP3    H271690   5.658   3.994   1.440 -0.4402 -0.3598  1.2237
16759TIP3   OH271691   3.035   0.667   5.268 -0.2264  0.3214 -0.4396
16759TIP3    H171692   2.949   0.694   5.300 -0.0635  0.0530  0.2413
16759TIP3    H271693   3.025   0.573   5.249  0.3017 -0.0637  1.0429
16760TIP3   OH271694   0.624   0.951   6.083 -0.2297  0.5901  0.4598
16760TIP3    H171695   0.529   0.962   6.088 -0.6121 -1.4019 -1.0926
16760TIP3    H271696   0.645   0.895   6.158 -0.4287  0.3391  0.3316
16761TIP3   OH271697   2.424   3.423   1.609 -0.1535 -0.0860 -0.0714
16761TIP3    H171698   2.436   3.387   1.521  0.4179  0.8213 -0.3852
16761TIP3    H271699   2.418   3.518   1.595  2.4526  0.3307  1.0678
16762TIP3   OH271700   2.560   4.325  11.555  0.3963 -0.5112 -0.4400
16762TIP3    H171701   2.550   4.306  11.648  0.6881 -1.2982 -0.5626
16762TIP3    H271702   2.470   4.335  11.523  0.3225  1.6993  0.2857
16763TIP3   OH271703   3.126   5.914  16.383  0.2181 -0.6018  0.5797
16763TIP3    H171704   3.199   5.970  16.407  1.9951 -2.4973 -0.0382
16763TIP3    H271705   3.089   5.954  16.304  2.0401 -0.7321 -0.3966
16764TIP3   OH271706   3.701   1.497   4.022 -0.3327 -0.8636  0.0537
16764TIP3    H171707   3.633   1.503   4.090  0.3156 -1.4439  0.7702
16764TIP3    H271708   3.716   1.588   3.996 -0.3454 -0.5925  0.9442
16765TIP3   OH271709   4.882   2.079  15.346  0.1179  0.7903  0.0135
16765TIP3    H171710   4.912   1.998  15.388  3.1993  2.8742  2.2944
16765TIP3    H271711   4.807   2.052  15.293  0.2180 -3.3038  1.5731
16766TIP3   OH271712   4.945   4.836   5.886 -0.1713  0.3732 -0.3651
16766TIP3    H171713   4.977   4.879   5.806  2.7021 -1.5212 -0.4131
16766TIP3    H271714   4.971   4.895   5.956  0.2387  0.5411 -0.6508
16767TIP3   OH271715   4.766   0.573   4.510  0.5650 -0.2723  0.4315
16767TIP3    H171716   4.843   0.566   4.454  1.2758 -0.0609  1.3668
16767TIP3    H271717   4.707   0.631   4.461  1.3284  0.2165  0.0578
16768TIP3   OH271718   0.487   4.461   4.515  0.0562 -0.7409  0.3024
16768TIP3    H171719   0.461   4.388   4.459 -0.1345  0.5547 -1.3888
16768TIP3    H271720   0.418   4.467   4.581 -1.3772 -0.3982 -1.1806
16769TIP3   OH271721   2.655   2.032   0.079  0.3705  0.1808  0.5796
16769TIP3    H171722   2.611   2.078   0.007  2.0334  0.6745 -0.1710
16769TIP3    H271723   2.685   1.950   0.039  1.8633  0.7374  0.4898
16770TIP3   OH271724   4.430   3.211   3.273  0.5290  1.1110 -0.0272
16770TIP3    H171725   4.510   3.254   3.303 -0.7536  2.3263  1.8363
16770TIP3    H271726   4.359   3.264   3.310 -1.1405 -1.1165  0.1261
16771TIP3   OH271727   0.001   3.134   1.023 -0.1849 -0.7012  0.0888
16771TIP3    H171728  -0.002   3.220   1.065 -1.1859 -1.6164  2.0721
16771TIP3    H271729  -0.087   3.122   0.987 -0.0875 -0.9536 -0.0668
16772TIP3   OH271730   1.941   4.075  17.195  0.2979 -0.9072 -0.0732
16772TIP3    H171731   2.004   4.139  17.229  0.5110 -0.7111 -0.8155
16772TIP3    H271732   1.983   4.040  17.117 -0.7956 -0.2897 -0.9569
16773TIP3   OH271733   0.305   0.395  16.960 -0.4081  0.0327  0.5917
16773TIP3    H171734   0.223   0.424  16.920  1.9658  2.2357 -3.3031
16773TIP3    H271735   0.333   0.468  17.015 -1.3929 -1.1554  2.8425
16774TIP3   OH271736   3.016   6.247   4.061 -0.2064 -0.3192  0.1582
16774TIP3    H171737   2.956   6.253   4.135 -1.8674 -1.4293 -1.0227
16774TIP3    H271738   3.103   6.255   4.099 -0.9914 -1.3205  2.2684
16775TIP3   OH271739   0.362   1.712  12.258 -0.1215 -0.5359 -0.0702
16775TIP3    H171740   0.383   1.644  12.322  0.7017 -0.2209  0.0029
16775TIP3    H271741   0.272   1.736  12.278 -0.0806 -0.8863  0.5659
16776TIP3   OH271742   2.298   5.967   4.153  0.3692 -0.3775 -0.6948
16776TIP3    H171743   2.266   6.022   4.081  1.2615  0.1960 -0.6619
16776TIP3    H271744   2.219   5.945   4.203 -0.1371 -0.0364 -1.3316
16777TIP3   OH271745   3.575   5.729  15.465 -0.1911  0.4261 -0.2249
16777TIP3    H171746   3.638   5.745  15.535 -0.8655 -0.5270  0.6156
16777TIP3    H271747   3.606   5.784  15.393 -0.8866  3.4762  1.6058
16778TIP3   OH271748   3.550   0.498  15.314 -0.4892 -0.1384  0.1453
16778TIP3    H171749   3.456   0.513  15.305 -0.4949  0.7035  1.4146
16778TIP3    H271750   3.558   0.403  15.324 -0.9647 -0.5147 -2.2669
16779TIP3   OH271751   2.521   2.416   5.394 -0.7503 -1.1574 -0.3569
16779TIP3    H171752   2.478   2.501   5.383 -1.2585 -1.3556  0.0593
16779TIP3    H271753   2.452   2.358   5.424 -0.1482 -1.4213  0.5793
16780TIP3   OH271754   4.368   1.597   0.833 -0.6431  0.1692  0.5595
16780TIP3    H171755   4.294   1.542   0.809  0.0902 -0.2011 -0.9760
16780TIP3    H271756   4.364   1.604   0.928 -1.0024 -2.1712  0.7592
16781TIP3   OH271757   1.534   1.311  11.725  0.5480 -0.1145  0.6418
16781TIP3    H171758   1.610   1.338  11.673  0.3610 -0.7280  0.0271
16781TIP3    H271759   1.565   1.308  11.815  1.0750  0.2796  0.4734
16782TIP3   OH271760   5.038   2.795  10.403 -0.3825 -0.4038 -0.5033
16782TIP3    H171761   5.108   2.833  10.455 -0.6251 -1.1068  0.3479
16782TIP3    H271762   5.064   2.703  10.391 -0.7874 -0.4797 -0.8207
16783TIP3   OH271763   2.577   4.996  14.004  0.6329  0.2497  0.4806
16783TIP3    H171764   2.606   5.034  14.087  0.3265  0.3832  0.5269
16783TIP3    H271765   2.612   5.055  13.937 -0.5510  1.0875  0.5852
16784TIP3   OH271766   0.194   2.100   4.168 -0.2427  0.1513  0.3905
16784TIP3    H171767   0.158   2.025   4.122 -1.4161  0.2858  1.0442
16784TIP3    H271768   0.147   2.175   4.132  1.1837  0.6430 -0.5239
16785TIP3   OH271769   1.478   4.854  13.637 -0.3420  1.0061  0.5040
16785TIP3    H171770   1.552   4.796  13.621 -0.2953  1.4379 -1.0163
16785TIP3    H271771   1.482   4.919  13.567 -2.4971  0.6983  0.0114
16786TIP3   OH271772   3.483   4.405  12.682  0.0787 -0.6376  0.0645
16786TIP3    H171773   3.507   4.498  12.690  0.4645 -0.2623 -3.5198
16786TIP3    H271774   3.389   4.403  12.699 -0.6251  1.1208 -2.8838
16787TIP3   OH271775   0.457   2.803   2.723 -0.2716  0.6384  0.5652
16787TIP3    H171776   0.479   2.822   2.631  0.4927 -0.7257  0.4348
16787TIP3    H271777   0.465   2.708   2.730 -1.0582  0.6482  1.8763
16788TIP3   OH271778   3.264   4.225  13.759 -0.0768 -0.4773 -0.1813
16788TIP3    H171779   3.174   4.245  13.732 -0.4421 -1.2219  0.4301
16788TIP3    H271780   3.294   4.158  13.698  0.8962  1.3462 -1.7918
16789TIP3   OH271781   0.941   3.804   1.503  0.5015 -0.0267  0.2925
16789TIP3    H171782   0.909   3.782   1.416  0.5190 -1.2607  0.5792
16789TIP3    H271783   1.034   3.824   1.491 -0.0788  2.6947 -0.4010
16790TIP3   OH271784   0.939   2.549  12.489  0.0288  0.9141 -0.1660
16790TIP3    H171785   0.849   2.552  12.456  0.5910  1.9170 -1.7104
16790TIP3    H271786   0.976   2.634  12.466  2.0652 -0.2824 -1.6283
16791TIP3   OH271787   3.552   2.872   4.080 -0.2279 -0.1459 -0.1196
16791TIP3    H171788   3.515   2.796   4.035  2.4718 -1.3695 -0.4813
16791TIP3    H271789   3.559   2.845   4.172 -1.4877  0.6320  0.2343
16792TIP3   OH271790   5.892   1.004  13.617  0.3044 -0.0029  0.2628
16792TIP3    H171791   5.888   0.958  13.533  0.3724  0.4008  0.0364
16792TIP3    H271792   5.818   1.065  13.614  1.2478  1.1699 -0.1957
16793TIP3   OH271793   5.026   0.743  14.191 -0.4318  0.9083  0.0891
16793TIP3    H171794   4.946   0.707  14.230 -0.2519  1.7791  1.2807
16793TIP3    H271795   5.091   0.673  14.200 -0.8540  0.4668 -0.2389
16794TIP3   OH271796   0.055   5.338   2.379  0.0210 -0.1625  0.0616
16794TIP3    H171797   0.146   5.368   2.371  0.1791 -0.8453 -0.8245
16794TIP3    H271798   0.035   5.347   2.473  0.4346  1.5888  0.0134
16795TIP3   OH271799   3.437   0.985  15.967 -0.5821 -0.0838 -0.3720
16795TIP3    H171800   3.466   0.927  16.037  0.3630 -0.6176 -1.1856
16795TIP3    H271801   3.470   0.945  15.887 -1.1690  0.8094 -1.0780
16796TIP3   OH271802   1.369   0.200   0.313 -0.0282  0.1857 -0.6076
16796TIP3    H171803   1.368   0.267   0.381 -1.1485  0.0491 -0.4689
16796TIP3    H271804   1.398   0.121   0.357 -0.1802  0.2368 -0.4138
16797TIP3   OH271805   1.459   3.005   2.035  0.0384 -0.1931  0.0871
16797TIP3    H171806   1.366   3.012   2.012  0.3315  1.9269 -0.7332
16797TIP3    H271807   1.479   3.090   2.076  1.7171 -0.4467 -0.1401
16798TIP3   OH271808   1.052   2.522   6.150  0.5063  0.2435  0.1748
16798TIP3    H171809   1.124   2.586   6.156  0.4752  0.1600  2.3015
16798TIP3    H271810   0.981   2.562   6.200  0.2904 -1.1911  1.0541
16799TIP3   OH271811   5.354   6.437  16.924  0.2381 -0.1580  0.2505
16799TIP3    H171812   5.358   6.532  16.915 -1.9048 -0.0946 -0.4286
16799TIP3    H271813   5.444   6.412  16.943  1.0093  1.9131 -0.3564
16800TIP3   OH271814   3.209   3.635  16.052 -0.3967  0.2507 -0.2764
16800TIP3    H171815   3.197   3.625  16.147 -1.2856  1.2141 -0.2594
16800TIP3    H271816   3.217   3.546  16.019  0.2086 -0.0833  0.7404
16801TIP3   OH271817   0.820   3.020   1.147  0.2783 -0.0350  0.2010
16801TIP3    H171818   0.859   3.099   1.186  0.8059 -0.4671  0.5719
16801TIP3    H271819   0.827   2.954   1.216 -0.6576 -0.2681  0.0902
16802TIP3   OH271820   1.119   3.923  13.671 -0.2494 -0.5583  0.2058
16802TIP3    H171821   1.074   3.992  13.622 -0.7853 -0.8327  0.3093
16802TIP3    H271822   1.160   3.869  13.603  3.6715  2.0979  0.1341
16803TIP3   OH271823   0.095   2.487   1.109  0.1419  0.0308  0.5647
16803TIP3    H171824   0.121   2.578   1.093 -0.3893  0.3316  1.3510
16803TIP3    H271825   0.073   2.453   1.023  1.9826  0.1135  0.0187
16804TIP3   OH271826   3.442   5.098   4.694  0.1625  0.1883 -0.1623
16804TIP3    H171827   3.389   5.048   4.632 -0.4151 -1.1299  1.3291
16804TIP3    H271828   3.528   5.103   4.653 -0.4584  0.2620 -1.5265
16805TIP3   OH271829   4.858   0.058   4.320 -0.4543  0.3860 -0.1807
16805TIP3    H171830   4.817   0.140   4.293  0.7496  0.7335 -0.9890
16805TIP3    H271831   4.858   0.003   4.241 -2.6737 -1.0616  0.6953
16806TIP3   OH271832   5.283   2.603  11.061  0.3906 -0.1271  0.1771
16806TIP3    H171833   5.284   2.685  11.112  0.3767 -0.8284  1.3373
16806TIP3    H271834   5.298   2.535  11.126  0.9803 -1.0133 -0.8659
16807TIP3   OH271835   1.493   0.317  16.663  0.2391 -0.2483 -0.3481
16807TIP3    H171836   1.431   0.295  16.593  0.4317 -1.4888 -0.1429
16807TIP3    H271837   1.572   0.267  16.642  0.1398 -1.0114  1.0103
16808TIP3   OH271838   3.033   2.534  12.169 -0.3839 -0.7661 -0.2122
16808TIP3    H171839   3.086   2.568  12.096  0.1975 -1.9640 -0.3823
16808TIP3    H271840   3.082   2.457  12.200 -1.6353 -1.4525  0.1437
16809TIP3   OH271841   2.555   4.447  13.535 -0.2427 -0.0577 -0.2561
16809TIP3    H171842   2.570   4.470  13.627 -0.2307  1.1181 -0.5348
16809TIP3    H271843   2.497   4.371  13.539 -1.4958  0.8970  0.7315
16810TIP3   OH271844   4.438   2.438   3.627 -0.0241 -0.3723  0.3267
16810TIP3    H171845   4.439   2.346   3.601  1.0254 -0.1740 -0.3908
16810TIP3    H271846   4.350   2.469   3.605 -0.5220 -1.2948  0.9509
16811TIP3   OH271847   5.318   5.787  13.834 -0.1577 -0.3721 -0.1518
16811TIP3    H171848   5.408   5.763  13.813 -0.2972 -1.0933  0.0584
16811TIP3    H271849   5.316   5.794  13.929 -0.2196  0.0628 -0.1856
16812TIP3   OH271850   3.007   1.529  16.469  0.5398  0.3814 -0.1602
16812TIP3    H171851   2.977   1.452  16.519 -3.4621 -0.2074 -2.9412
16812TIP3    H271852   2.962   1.603  16.510 -1.0793  0.1764 -1.4487
16813TIP3   OH271853   5.964   0.023  14.551 -0.1129 -0.1973 -0.4531
16813TIP3    H171854   6.011   0.102  14.578 -1.4256  0.5585 -0.2854
16813TIP3    H271855   5.944  -0.022  14.634 -1.4576  0.5454 -0.3521
16814TIP3   OH271856   3.621   6.108   3.532 -0.4730 -0.2373  1.1206
16814TIP3    H171857   3.640   6.202   3.536 -1.3332 -0.0789  1.9752
16814TIP3    H271858   3.688   6.072   3.475 -0.5856  1.0209  0.1537
16815TIP3   OH271859   5.321   3.473  12.356 -0.3264  0.1480 -0.4894
16815TIP3    H171860   5.370   3.451  12.436 -0.3388  0.3638 -0.4226
16815TIP3    H271861   5.261   3.399  12.344  1.1541 -0.9451 -1.5087
16816TIP3   OH271862   0.351   2.937   5.963 -0.3984 -0.1958 -0.0903
16816TIP3    H171863   0.343   2.872   5.894  0.5540  0.6086 -0.9948
16816TIP3    H271864   0.293   3.008   5.936 -1.1554 -0.4939  0.7075
16817TIP3   OH271865   1.672   4.057  14.942  0.0882  0.0717  0.1637
16817TIP3    H171866   1.658   4.040  14.849 -1.4014  1.1925  0.1454
16817TIP3    H271867   1.736   4.128  14.944  1.6707 -1.2975  0.0849
16818TIP3   OH271868   4.110   1.651   1.922 -0.2320  0.3942 -0.3080
16818TIP3    H171869   4.115   1.728   1.979 -1.1322  1.0794 -1.1208
16818TIP3    H271870   4.161   1.584   1.968  2.1606  1.9961 -0.4430
16819TIP3   OH271871   2.791   3.281   3.905  0.1064 -0.7457  0.0430
16819TIP3    H171872   2.864   3.243   3.857 -0.3688 -1.5472 -0.0715
16819TIP3    H271873   2.713   3.254   3.856 -0.3177 -0.6645  0.6568
16820TIP3   OH271874   3.742   4.985  12.613  0.2363 -0.1433  0.4467
16820TIP3    H171875   3.737   5.075  12.582 -0.7778 -0.2952  0.1177
16820TIP3    H271876   3.836   4.968  12.623  0.4739  0.7106 -0.1891
16821TIP3   OH271877   2.616   1.156  15.592 -0.8070  0.2397  0.1974
16821TIP3    H171878   2.661   1.124  15.513  0.8796  0.7088  0.9100
16821TIP3    H271879   2.543   1.095  15.605 -0.5766 -0.3744 -1.2127
16822TIP3   OH271880   2.737   1.992   2.188 -0.1306  0.7652  0.5791
16822TIP3    H171881   2.763   1.985   2.280  0.6094 -0.2652  0.3048
16822TIP3    H271882   2.645   1.968   2.188 -0.5102  2.1263  1.2346
16823TIP3   OH271883   0.997   4.695   1.405 -0.0198  0.7610 -0.2553
16823TIP3    H171884   1.010   4.622   1.465  3.4900 -0.0448 -1.7217
16823TIP3    H271885   0.986   4.655   1.319  0.0470  1.9233 -0.8361
16824TIP3   OH271886   1.162   0.072  12.033 -0.0292  0.0005 -0.0377
16824TIP3    H171887   1.159  -0.023  12.024 -2.5930 -0.3413  2.8016
16824TIP3    H271888   1.186   0.104  11.946 -1.6529 -3.1276 -1.7989
16825TIP3   OH271889   3.719   3.857  13.769  0.2861 -0.4160  0.1071
16825TIP3    H171890   3.649   3.885  13.828 -0.7004 -0.1053 -1.1767
16825TIP3    H271891   3.795   3.907  13.798 -0.6776  1.2935 -0.1404
16826TIP3   OH271892   4.458   6.435  15.705  0.6502 -0.5013 -0.0271
16826TIP3    H171893   4.463   6.478  15.791 -2.3804  0.3135 -0.1443
16826TIP3    H271894   4.409   6.355  15.722 -1.8516  0.6753 -1.2230
16827TIP3   OH271895   6.065   1.620   1.085 -0.3360  0.0980 -0.0650
16827TIP3    H171896   6.056   1.627   1.180 -1.4900  1.0719 -0.2191
16827TIP3    H271897   6.149   1.659   1.065 -0.5042  0.7428  0.4713
16828TIP3   OH271898   0.944   4.008   1.027 -0.3975  0.2118 -0.3701
16828TIP3    H171899   0.865   3.955   1.040 -0.6029  0.3040 -1.2110
16828TIP3    H271900   0.939   4.075   1.095  0.4152 -1.4520  1.4567
16829TIP3   OH271901   3.933   1.851  16.120  0.5473 -0.4156  0.2552
16829TIP3    H171902   3.891   1.778  16.166  0.5383 -0.4899  0.1298
16829TIP3    H271903   3.983   1.809  16.050 -0.2170 -0.2402 -0.4110
16830TIP3   OH271904   2.171   4.715   1.200 -0.1333 -0.5164  0.0263
16830TIP3    H171905   2.202   4.770   1.127  0.3322 -0.6048  0.1501
16830TIP3    H271906   2.218   4.748   1.276 -1.9079  0.7211  0.6479
16831TIP3   OH271907   2.009   0.874  17.023  0.3095  0.1904 -0.0498
16831TIP3    H171908   2.037   0.902  16.936  2.7893  2.8228  1.4305
16831TIP3    H271909   1.920   0.909  17.032  0.1117  0.0869 -1.4120
16832TIP3   OH271910   6.755   0.910   6.307  0.0755  0.3595 -0.5187
16832TIP3    H171911   6.662   0.908   6.333  0.2814  3.3658  0.9159
16832TIP3    H271912   6.771   0.824   6.267 -2.7384 -1.0917  1.1607
16833TIP3   OH271913   0.979   3.748  15.898  0.4395  0.0808  0.5824
16833TIP3    H171914   1.073   3.758  15.888  0.5527  0.5707  1.8805
16833TIP3    H271915   0.942   3.785  15.817  1.2957  1.9023  0.9610
16834TIP3   OH271916   5.449   5.603   0.026 -0.1209 -0.3232  0.1975
16834TIP3    H171917   5.503   5.523   0.028  1.4342  0.6503 -0.5756
16834TIP3    H271918   5.420   5.610  -0.065  0.8316  0.6384 -0.0545
16835TIP3   OH271919   0.730   1.440   6.376 -0.5056 -0.1186  0.0159
16835TIP3    H171920   0.805   1.454   6.318 -0.4516 -1.3009 -0.2378
16835TIP3    H271921   0.756   1.365   6.430  0.7149  2.6801  3.7269
16836TIP3   OH271922   1.642   2.602   2.304 -0.0148  0.7199  0.0796
16836TIP3    H171923   1.580   2.535   2.278  0.2898  0.0216  1.0975
16836TIP3    H271924   1.653   2.656   2.226 -0.9602  0.1364 -0.4764
16837TIP3   OH271925   6.479   1.715  11.039 -0.1494  0.4285  0.3071
16837TIP3    H171926   6.552   1.656  11.021  0.9744  1.9494 -0.3672
16837TIP3    H271927   6.409   1.686  10.980  0.1457 -0.5893  0.4374
16838TIP3   OH271928   0.447   1.719   3.542  0.8998  0.0297  0.0316
16838TIP3    H171929   0.508   1.655   3.581  1.9182 -0.0234 -1.5634
16838TIP3    H271930   0.452   1.795   3.600  2.7257  0.1210 -0.1837
16839TIP3   OH271931   5.168   3.201   3.983 -0.3377  0.3106 -0.2870
16839TIP3    H171932   5.114   3.256   3.926  1.5976  2.1392 -0.4841
16839TIP3    H271933   5.176   3.118   3.935  0.5627  1.5126 -2.3612
16840TIP3   OH271934   0.129   1.294  15.470 -0.1222 -0.1902  0.1079
16840TIP3    H171935   0.080   1.278  15.390 -0.7926  1.0389  0.2426
16840TIP3    H271936   0.111   1.218  15.526 -0.9035 -0.3158 -0.3125
16841TIP3   OH271937   1.166   0.254   2.730 -0.1505  0.6405 -0.4978
16841TIP3    H171938   1.141   0.343   2.755  1.0170  1.0631 -0.7479
16841TIP3    H271939   1.208   0.264   2.645 -1.0312 -0.3264 -1.0706
16842TIP3   OH271940   0.226   1.621  12.589  0.0797  0.1747  0.0480
16842TIP3    H171941   0.214   1.682  12.517  0.1342  1.4301  1.0663
16842TIP3    H271942   0.137   1.596  12.615  0.0472  0.1011 -0.1312
16843TIP3   OH271943   4.938   6.697  13.474 -0.6696 -0.2862 -0.4343
16843TIP3    H171944   4.852   6.688  13.516 -0.8412  0.4926 -0.6195
16843TIP3    H271945   4.980   6.612  13.489 -0.7891 -0.0915  1.1956
16844TIP3   OH271946   2.109   3.618  14.800 -0.5481  0.6245 -0.1647
16844TIP3    H171947   2.019   3.586  14.811 -0.1995 -0.3075  0.0450
16844TIP3    H271948   2.106   3.708  14.833 -1.9839  1.5360 -2.5183
16845TIP3   OH271949   3.369   2.740   1.747  0.1725  0.3192  0.0720
16845TIP3    H171950   3.329   2.730   1.661  0.9593 -0.5891 -0.2068
16845TIP3    H271951   3.337   2.664   1.797  0.2658  0.4660  0.3556
16846TIP3   OH271952   2.603   0.259  11.832 -0.0639 -0.6585 -0.4511
16846TIP3    H171953   2.523   0.290  11.875 -0.4231 -1.8331 -0.2249
16846TIP3    H271954   2.582   0.259  11.739  0.4071  1.0236 -0.5992
16847TIP3   OH271955   4.705   5.072   0.562 -0.4030 -0.1707  0.3815
16847TIP3    H171956   4.697   4.981   0.591  1.1287 -0.3039  0.4682
16847TIP3    H271957   4.755   5.067   0.481 -0.7568  0.5632  0.1104
16848TIP3   OH271958   5.803   0.917   2.848  0.0968  0.0561  0.2630
16848TIP3    H171959   5.812   0.902   2.754 -0.8844  0.5103  0.0824
16848TIP3    H271960   5.893   0.915   2.881  0.6099  1.3524 -0.9167
16849TIP3   OH271961   1.445   6.040   6.078  0.1202  0.3277  0.2545
16849TIP3    H171962   1.436   6.067   5.987 -3.4757 -2.9396 -0.6188
16849TIP3    H271963   1.525   5.989   6.080 -0.2306 -0.3425 -1.3664
16850TIP3   OH271964   1.393   5.924   5.509  0.4655 -0.1838  0.4119
16850TIP3    H171965   1.463   5.860   5.500  1.1256  0.5676  0.0378
16850TIP3    H271966   1.379   5.956   5.419 -2.0641 -2.0528  0.0210
16851TIP3   OH271967   3.252   1.104   4.549  0.0039 -0.1302 -0.4224
16851TIP3    H171968   3.216   1.101   4.638  0.1959  1.6136 -0.2545
16851TIP3    H271969   3.175   1.118   4.493 -0.0119 -0.3479 -0.4581
16852TIP3   OH271970   0.941   4.027   0.745  0.4572 -0.3912  0.1185
16852TIP3    H171971   0.882   3.969   0.696  0.1264  0.2701 -0.2879
16852TIP3    H271972   0.916   4.015   0.836 -1.0092  0.6096 -0.1109
16853TIP3   OH271973   5.677   1.405  15.347 -0.0856  0.0871 -0.2178
16853TIP3    H171974   5.639   1.388  15.261  0.1099  1.6946 -0.6515
16853TIP3    H271975   5.631   1.482  15.379  1.2447  0.7222  0.2245
16854TIP3   OH271976   0.316   0.198   0.477  0.1769 -0.2816 -0.2323
16854TIP3    H171977   0.368   0.154   0.411 -0.4120  0.3490 -1.1494
16854TIP3    H271978   0.306   0.134   0.548  0.9092 -0.9285 -0.7076
16855TIP3   OH271979   1.730   2.819   3.362 -0.2368  0.4122 -0.2818
16855TIP3    H171980   1.705   2.822   3.270 -0.1024 -0.6183 -0.3676
16855TIP3    H271981   1.818   2.857   3.365  0.7345 -1.6101 -0.9694
16856TIP3   OH271982   3.000   0.161  16.635 -0.1782 -0.5943 -0.7827
16856TIP3    H171983   2.909   0.176  16.608 -0.2568  0.0532 -0.1757
16856TIP3    H271984   3.038   0.111  16.562 -0.7121  0.0941 -1.5561
16857TIP3   OH271985   5.220   1.069  12.306 -0.4761  0.3364  0.2998
16857TIP3    H171986   5.127   1.094  12.311  0.2413  3.0048  1.9954
16857TIP3    H271987   5.241   1.037  12.393  0.6856  1.7986  0.5939
16858TIP3   OH271988   6.380   4.914   3.135  0.3998  0.2501 -0.1209
16858TIP3    H171989   6.345   5.001   3.154  3.0026  1.0450  1.7489
16858TIP3    H271990   6.314   4.872   3.080 -2.0792  2.4978  0.9190
16859TIP3   OH271991   1.092   2.798   4.999  0.3374  0.7236 -0.5423
16859TIP3    H171992   1.144   2.877   5.013  2.2160 -0.7702  1.5811
16859TIP3    H271993   1.070   2.767   5.086  1.4873 -2.2051 -1.1638
16860TIP3   OH271994   1.922   3.981  13.287 -0.0194 -0.6249 -0.4611
16860TIP3    H171995   1.943   3.961  13.196 -0.1344 -0.8569 -0.4379
16860TIP3    H271996   1.840   4.030  13.282  0.8804  0.9602 -0.6063
16861TIP3   OH271997   5.976   4.058  11.326  0.3659  0.0604 -0.1321
16861TIP3    H171998   6.045   4.117  11.296  1.2704 -1.0697 -0.3356
16861TIP3    H271999   5.909   4.064  11.258  0.1416  1.3311  0.1768
16862TIP3   OH272000   0.788   4.363   0.026 -0.1345 -0.6182 -0.3687
16862TIP3    H172001   0.873   4.396  -0.004  0.0104 -0.9497 -0.3345
16862TIP3    H272002   0.777   4.401   0.113 -0.7492  0.6840 -0.9933
16863TIP3   OH272003   0.570   5.023   1.772 -0.2836 -0.4446  0.1241
16863TIP3    H172004   0.622   4.946   1.753  1.2221  0.5199  0.1888
16863TIP3    H272005   0.567   5.028   1.867  1.1960  0.5716  0.1392
16864TIP3   OH272006   3.525   4.143  11.656 -0.1347  0.2781 -0.5656
16864TIP3    H172007   3.544   4.055  11.623 -2.3005 -0.1551 -0.8146
16864TIP3    H272008   3.543   4.137  11.750  0.0176 -0.3494 -0.6283
16865TIP3   OH272009   5.303   4.428  17.153  0.2148 -0.1031  0.2481
16865TIP3    H172010   5.291   4.335  17.169 -3.8363  0.3170  0.7827
16865TIP3    H272011   5.281   4.439  17.060  1.1108  0.2771  0.0745
16866TIP3   OH272012   3.774   5.350   4.636  0.3898  0.1012  0.5243
16866TIP3    H172013   3.757   5.263   4.600 -0.4641 -0.5759  2.4304
16866TIP3    H272014   3.760   5.340   4.730  0.3643  2.2820  0.8004
16867TIP3   OH272015   4.920   2.269   4.856  0.4445 -0.0891  0.1034
16867TIP3    H172016   4.853   2.247   4.921 -0.4867  1.0231 -0.4422
16867TIP3    H272017   5.003   2.257   4.902 -0.1298 -1.0396  0.9394
16868TIP3   OH272018   1.461   5.564  16.665 -0.2969  0.1028 -0.0046
16868TIP3    H172019   1.478   5.526  16.579  1.0977 -0.7018  0.5938
16868TIP3    H272020   1.421   5.493  16.715 -0.9587  0.5195  0.0705
16869TIP3   OH272021   6.638   5.562  11.784  0.1509  0.2233 -0.7090
16869TIP3    H172022   6.705   5.575  11.850  1.2338  0.7852 -1.8864
16869TIP3    H272023   6.561   5.608  11.818  0.9019  1.1030 -0.1667
16870TIP3   OH272024   1.673   4.214   3.154 -0.0861  0.2297 -0.0727
16870TIP3    H172025   1.593   4.183   3.197  0.5043 -0.8426  0.2802
16870TIP3    H272026   1.719   4.264   3.220  0.7427 -1.2825  0.5527
16871TIP3   OH272027   1.896   6.343   0.472 -0.2138  0.4462  0.1777
16871TIP3    H172028   1.889   6.344   0.377  2.7401 -0.4903 -0.1536
16871TIP3    H272029   1.946   6.422   0.494  3.7054 -1.7978  0.2718
16872TIP3   OH272030   3.755   5.621  11.502 -0.5595 -0.0356 -0.0215
16872TIP3    H172031   3.668   5.662  11.503 -0.4378  0.2817 -0.9046
16872TIP3    H272032   3.813   5.690  11.469  0.2539  0.1457  1.7025
16873TIP3   OH272033   1.818   5.359   3.613 -0.5973 -1.2042  0.0527
16873TIP3    H172034   1.880   5.286   3.612 -1.5008 -1.9953 -0.6217
16873TIP3    H272035   1.816   5.388   3.704 -0.5430 -2.3105  0.4222
16874TIP3   OH272036   2.172   1.788   0.086  0.1830 -0.4848 -0.1092
16874TIP3    H172037   2.260   1.808   0.118  0.0438 -0.2693  0.1429
16874TIP3    H272038   2.176   1.694   0.065  0.6535 -0.3348 -0.7098
16875TIP3   OH272039   5.080   4.301  13.635 -0.0359 -0.9815  0.4502
16875TIP3    H172040   5.053   4.271  13.549  0.1341  1.5869 -0.6089
16875TIP3    H272041   5.062   4.395  13.634  0.9699 -0.6887  2.8290
16876TIP3   OH272042   2.008   4.024  11.380  0.4436  0.2275 -0.2299
16876TIP3    H172043   2.091   3.991  11.413  0.3632 -0.6941 -0.8998
16876TIP3    H272044   1.971   3.951  11.330 -0.1997  1.0160 -0.9488
16877TIP3   OH272045   1.590   3.943  14.693 -0.1364 -0.2939 -0.2504
16877TIP3    H172046   1.588   3.894  14.611 -0.5638  0.4912 -0.7182
16877TIP3    H272047   1.538   3.890  14.754 -0.4729 -0.4898 -0.7050
16878TIP3   OH272048   1.243   6.001  11.318  0.6013  0.7547 -0.1414
16878TIP3    H172049   1.250   5.912  11.352  1.5377  0.9602  0.2156
16878TIP3    H272050   1.154   6.006  11.283  0.1891 -0.0021  0.7541
16879TIP3   OH272051   1.642   1.582  12.067  0.0691  0.4519  0.4780
16879TIP3    H172052   1.676   1.580  11.978 -0.7730  1.1820  0.1217
16879TIP3    H272053   1.611   1.672  12.079 -3.2166 -0.5090  0.1840
16880TIP3   OH272054   3.677   4.281  15.471  0.2217 -0.0445 -0.2204
16880TIP3    H172055   3.763   4.257  15.505  0.9458  0.4724 -1.6137
16880TIP3    H272056   3.666   4.226  15.393  0.3632  1.5650 -1.4184
16881TIP3   OH272057   1.199   4.991   5.373 -0.5164  0.5873 -0.3288
16881TIP3    H172058   1.191   5.070   5.427  1.3744  0.5707  0.0623
16881TIP3    H272059   1.231   5.023   5.289  1.9081  0.1758  0.3479
16882TIP3   OH272060   2.746   4.515   0.607 -0.1410  0.4137 -0.0707
16882TIP3    H172061   2.771   4.596   0.564 -1.6085  0.7462 -0.3529
16882TIP3    H272062   2.768   4.446   0.544 -1.4249  0.8299 -1.0308
16883TIP3   OH272063   1.788   3.237  16.688  0.0317  0.2360  0.3257
16883TIP3    H172064   1.797   3.198  16.601  1.0798 -0.2190  0.6194
16883TIP3    H272065   1.706   3.202  16.722  0.0054 -0.1939 -0.1797
16884TIP3   OH272066   2.113   1.136  12.311  0.8129  0.3233  0.4558
16884TIP3    H172067   2.152   1.074  12.372  1.9034 -0.8296 -1.3357
16884TIP3    H272068   2.085   1.083  12.237 -1.8610  1.4721  0.5209
16885TIP3   OH272069   2.175   5.255   6.263  0.1016 -0.1517 -0.2153
16885TIP3    H172070   2.080   5.260   6.274  0.0406 -2.0562  0.3835
16885TIP3    H272071   2.207   5.341   6.293 -1.3292  0.0841  0.7043
16886TIP3   OH272072   6.016   5.971  16.201  0.2734  0.7123 -0.1132
16886TIP3    H172073   6.054   6.054  16.174  0.3170  0.5415 -0.5779
16886TIP3    H272074   6.061   5.950  16.283  0.2749  1.1357 -0.0033
16887TIP3   OH272075   2.013   6.611   2.121 -0.3196  0.3344 -0.0437
16887TIP3    H172076   1.993   6.649   2.206 -1.5718  3.1016 -1.4484
16887TIP3    H272077   2.007   6.516   2.135 -0.5813  0.6841  2.8698
16888TIP3   OH272078   1.233   4.063   5.212  0.2870 -0.1426  0.0670
16888TIP3    H172079   1.265   4.037   5.299  0.9302  0.2946 -0.0268
16888TIP3    H272080   1.145   4.026   5.207  0.8508 -1.5878  0.2555
16889TIP3   OH272081   2.622   5.898   2.152 -0.5471  0.0147  0.7282
16889TIP3    H172082   2.599   5.970   2.211  0.5682 -0.6791  2.0638
16889TIP3    H272083   2.538   5.861   2.127 -1.0753  0.8208  1.2443
16890TIP3   OH272084   6.227   5.909   2.137 -0.1657  0.4181 -0.2738
16890TIP3    H172085   6.288   5.862   2.080 -0.3360  1.3775 -1.2970
16890TIP3    H272086   6.182   5.841   2.187  0.6566 -0.3908 -0.6234
16891TIP3   OH272087   1.610   5.249   0.544 -0.1929  0.4354  0.6783
16891TIP3    H172088   1.697   5.246   0.584 -0.7158 -2.7821  1.7963
16891TIP3    H272089   1.627   5.256   0.450  1.1854  1.4327  0.9733
16892TIP3   OH272090   2.836   0.963  10.979 -0.6632 -0.7088 -0.0710
16892TIP3    H172091   2.828   0.971  10.884 -0.3360 -0.3383 -0.0739
16892TIP3    H272092   2.796   1.043  11.014  0.8441  0.0608  0.0057
16893TIP3   OH272093   3.653   4.429   6.528 -0.0022  0.0430 -0.3476
16893TIP3    H172094   3.611   4.514   6.516 -0.7203 -0.3918 -0.9687
16893TIP3    H272095   3.583   4.365   6.516  0.8199 -0.7009 -1.4293
16894TIP3   OH272096   0.716   6.411  16.933 -0.3558  0.4290  0.4259
16894TIP3    H172097   0.771   6.489  16.938 -0.3123  0.4130  0.2062
16894TIP3    H272098   0.684   6.398  17.023 -0.7374  0.9709  0.3742
16895TIP3   OH272099   3.060   5.921  11.540 -0.2110  0.0678 -0.0670
16895TIP3    H172100   3.039   5.961  11.456 -1.0135  0.5397  0.3444
16895TIP3    H272101   3.120   5.984  11.582  0.8212 -0.5372 -0.5938
16896TIP3   OH272102   1.472   1.549  13.399  0.1222 -0.4951  0.0860
16896TIP3    H172103   1.433   1.569  13.484 -0.0097  0.5454 -0.2018
16896TIP3    H272104   1.547   1.494  13.420 -1.0179 -1.8548  0.7080
16897TIP3   OH272105   6.395   4.726  11.565 -0.2250  0.3166  0.5275
16897TIP3    H172106   6.364   4.636  11.555 -0.9619  0.7853 -2.5794
16897TIP3    H272107   6.485   4.717  11.598  0.5234 -1.7566 -1.7740
16898TIP3   OH272108   0.341   3.250   5.646  0.2238 -0.0303 -0.1431
16898TIP3    H172109   0.284   3.262   5.569  1.7969  0.4096 -1.2828
16898TIP3    H272110   0.372   3.160   5.639  0.4296  0.0344 -0.0624
16899TIP3   OH272111   0.520   1.618   6.397  0.0252  0.3563 -0.1065
16899TIP3    H172112   0.564   1.685   6.344  0.7191  0.0221  0.0373
16899TIP3    H272113   0.584   1.547   6.403  0.0356  0.4495  1.3137
16900TIP3   OH272114   0.151   0.833  14.051 -0.0613  0.0231  0.3487
16900TIP3    H172115   0.102   0.757  14.018 -0.0464 -0.2448  0.9369
16900TIP3    H272116   0.087   0.884  14.099  0.1460 -0.1209  0.7785
16901TIP3   OH272117   5.216   2.212   5.176  0.5317 -0.1203  0.2443
16901TIP3    H172118   5.130   2.196   5.215  0.8664  0.6554  1.3532
16901TIP3    H272119   5.275   2.152   5.221  0.8651  0.5520  0.7178
16902TIP3   OH272120   6.712   0.418   0.362  0.3324  0.2355  0.0899
16902TIP3    H172121   6.779   0.405   0.429  0.6155  0.6961 -0.1026
16902TIP3    H272122   6.761   0.440   0.283 -0.0035 -0.2020 -0.2482
16903TIP3   OH272123   2.897   2.607  11.771 -0.1375  0.3164  0.0392
16903TIP3    H172124   2.906   2.678  11.708 -0.4062  0.1056 -0.2403
16903TIP3    H272125   2.870   2.531  11.719 -0.1901  0.0946  0.3816
16904TIP3   OH272126   0.103   3.912  12.169  0.1636 -0.5537 -0.7476
16904TIP3    H172127   0.161   3.836  12.162  1.0343  0.1929 -2.1130
16904TIP3    H272128   0.141   3.977  12.109  1.4785  2.3404  2.8676
16905TIP3   OH272129   4.494   2.522  11.525  0.1091  0.2122 -0.5215
16905TIP3    H172130   4.494   2.463  11.600  0.7724 -0.2829 -0.8996
16905TIP3    H272131   4.494   2.464  11.449  0.7092  0.6964 -0.9003
16906TIP3   OH272132   6.012   2.269   4.605  0.1255 -0.5126 -0.2566
16906TIP3    H172133   6.020   2.364   4.609 -0.1986 -0.5067  0.5794
16906TIP3    H272134   6.039   2.239   4.692 -1.1603 -1.0623 -0.0125
16907TIP3   OH272135   6.635   2.033   4.845 -0.2795 -0.4896 -0.2122
16907TIP3    H172136   6.634   1.973   4.771  0.2295 -2.8645  1.5767
16907TIP3    H272137   6.692   1.990   4.910 -0.8132  1.3942  1.6098
16908TIP3   OH272138   6.431   4.687   4.791  0.1087  0.5250  0.0232
16908TIP3    H172139   6.468   4.772   4.769  1.4393 -0.1756 -0.5631
16908TIP3    H272140   6.359   4.707   4.850  1.0095  2.0121  0.6890
16909TIP3   OH272141   1.596   3.856   3.716 -0.1267 -0.7159 -0.2983
16909TIP3    H172142   1.558   3.915   3.650 -1.0598  0.0402  0.8701
16909TIP3    H272143   1.685   3.839   3.685 -0.1903  0.4655 -1.1996
16910TIP3   OH272144   1.812   2.567   3.289 -0.1507  0.3942 -0.0973
16910TIP3    H172145   1.753   2.639   3.311 -0.4252  0.9500 -2.3664
16910TIP3    H272146   1.894   2.588   3.333  0.0372  2.5916 -1.3505
16911TIP3   OH272147   2.369   1.965  11.401  0.4636 -0.2409 -0.2428
16911TIP3    H172148   2.283   1.923  11.408  0.3652 -0.0302 -0.1760
16911TIP3    H272149   2.421   1.926  11.472  0.9794 -1.6603 -1.3491
16912TIP3   OH272150   3.628   4.611  16.826 -0.4207 -0.0809  0.3272
16912TIP3    H172151   3.683   4.621  16.748 -1.6886 -1.9249 -0.8835
16912TIP3    H272152   3.679   4.554  16.884  0.6210  1.4693  1.0242
16913TIP3   OH272153   1.647   3.770   5.683  0.0817  0.6542  0.0772
16913TIP3    H172154   1.711   3.738   5.619  1.0553 -0.9168  1.7231
16913TIP3    H272155   1.701   3.806   5.754 -0.8102 -0.5403  1.4249
16914TIP3   OH272156   4.998   3.877  15.900 -0.2834 -0.1780  0.1058
16914TIP3    H172157   5.090   3.885  15.925  0.1829  0.3620 -1.6472
16914TIP3    H272158   4.953   3.944  15.951  0.5302  0.5141 -0.0632
16915TIP3   OH272159   4.618   4.895   2.362 -0.2843  0.9991  0.4669
16915TIP3    H172160   4.657   4.976   2.330  0.0765  0.4493 -0.5413
16915TIP3    H272161   4.556   4.870   2.293  0.7597 -0.3984 -0.0066
16916TIP3   OH272162   3.326   3.909  12.252 -0.3869  0.0298 -0.1249
16916TIP3    H172163   3.328   3.818  12.280 -0.3567  0.0325 -0.1179
16916TIP3    H272164   3.403   3.948  12.294 -0.9105  0.2764  0.6378
16917TIP3   OH272165   5.489   4.287   3.559 -0.6492  0.3058  0.0672
16917TIP3    H172166   5.542   4.313   3.634 -0.5535 -0.7155  0.3694
16917TIP3    H272167   5.552   4.246   3.498 -0.7475  1.0041 -0.5128
16918TIP3   OH272168   3.359   2.490   0.027 -0.1603 -0.2443 -0.6457
16918TIP3    H172169   3.324   2.501  -0.061 -0.2207 -0.3170 -0.6300
16918TIP3    H272170   3.350   2.397   0.046 -1.5996  0.0174  0.0570
16919TIP3   OH272171   1.871   3.304  14.102 -0.1383 -0.5679  0.4262
16919TIP3    H172172   1.821   3.263  14.031  0.2040 -0.1995 -0.0406
16919TIP3    H272173   1.835   3.266  14.182 -0.1074 -1.4602  0.0301
16920TIP3   OH272174   2.495   4.378  16.987 -0.2391 -0.0494 -0.3616
16920TIP3    H172175   2.449   4.338  17.061  1.3386  0.3985  0.9381
16920TIP3    H272176   2.452   4.463  16.975 -1.6920 -0.8805 -1.1904
16921TIP3   OH272177   5.193   3.211  16.880 -0.3798 -0.0934  0.5015
16921TIP3    H172178   5.171   3.270  16.952 -0.7971 -0.0705  0.3596
16921TIP3    H272179   5.285   3.230  16.860  0.0639 -0.8595  1.7388
16922TIP3   OH272180   4.391   4.147   2.902 -0.3654  0.3554 -0.1609
16922TIP3    H172181   4.344   4.133   2.984 -0.4178 -1.3888 -0.4549
16922TIP3    H272182   4.389   4.062   2.858  2.2316  0.4701 -0.6388
16923TIP3   OH272183   2.295   5.396   1.641  0.2711 -0.0279  0.1986
16923TIP3    H172184   2.239   5.443   1.703 -3.3731 -0.2508 -2.5862
16923TIP3    H272185   2.268   5.304   1.648  0.8805 -0.2938 -0.6753
16924TIP3   OH272186   5.735   1.241   3.762 -0.1342  0.2110 -0.0733
16924TIP3    H172187   5.687   1.187   3.826  0.6122 -0.9489 -0.4606
16924TIP3    H272188   5.782   1.305   3.815 -2.2198  1.5270  0.3132
16925TIP3   OH272189   4.436   4.889   2.853 -0.4942  0.1688 -0.9631
16925TIP3    H172190   4.476   4.974   2.870 -0.8549  0.0500  0.6438
16925TIP3    H272191   4.344   4.908   2.834 -0.5654  0.1467 -0.6458
16926TIP3   OH272192   4.350   1.572  14.973  0.2388 -0.5619  0.2396
16926TIP3    H172193   4.364   1.634  14.902  0.3807 -0.3345  0.4618
16926TIP3    H272194   4.382   1.618  15.051 -0.7591 -0.4466  0.5912
16927TIP3   OH272195   2.101   2.303  17.110  0.0217  0.2444 -0.2236
16927TIP3    H172196   2.094   2.287  17.016  0.3681  1.5634 -0.4925
16927TIP3    H272197   2.044   2.378  17.126  1.3841  1.2171  0.2725
16928TIP3   OH272198   5.171   6.403  15.693  0.0036  0.3377  0.2652
16928TIP3    H172199   5.246   6.421  15.750 -0.7055  2.4263  0.6146
16928TIP3    H272200   5.103   6.463  15.724 -0.2828  1.9118 -3.0113
16929TIP3   OH272201   5.429   1.185   2.331  0.4871 -0.4703  0.1170
16929TIP3    H172202   5.455   1.179   2.423  1.1300  0.6758  0.0262
16929TIP3    H272203   5.497   1.238   2.290 -1.5935  2.1226 -0.2644
16930TIP3   OH272204   0.220   5.195  13.263  0.1605  0.2732  0.1854
16930TIP3    H172205   0.299   5.164  13.308 -0.0832 -0.8120 -0.0921
16930TIP3    H272206   0.153   5.130  13.285 -0.4880  0.8248 -0.1130
16931TIP3   OH272207   0.983   5.151   0.124 -0.1378 -0.4354 -0.5989
16931TIP3    H172208   1.073   5.183   0.133 -0.2872 -0.2644  0.4378
16931TIP3    H272209   0.941   5.213   0.065  1.1061 -1.9949 -3.3099
16932TIP3   OH272210   5.924   6.029  15.649  0.3410  0.0678 -0.4281
16932TIP3    H172211   5.981   6.078  15.708 -2.5334  1.9508  1.0083
16932TIP3    H272212   5.941   5.938  15.669  3.3840  0.4640 -0.7105
16933TIP3   OH272213   1.477   3.749  12.062  0.3785  0.5244  0.2495
16933TIP3    H172214   1.413   3.699  12.012  0.4348 -0.3050  0.9801
16933TIP3    H272215   1.522   3.684  12.116  0.5210  1.3505  1.1610
16934TIP3   OH272216   3.893   2.644   2.025  0.3445  0.0010  0.5339
16934TIP3    H172217   3.818   2.638   1.966  0.0274  0.5325  0.8790
16934TIP3    H272218   3.959   2.587   1.985  0.1144  0.3028 -0.2942
16935TIP3   OH272219   1.881   2.435   1.213 -0.2366  0.1422  0.3893
16935TIP3    H172220   1.893   2.514   1.160  1.0882  0.3039  0.9038
16935TIP3    H272221   1.844   2.371   1.153 -0.0558  0.7452 -0.3779
16936TIP3   OH272222   1.964   4.871  15.112 -0.0752 -0.9917  0.4078
16936TIP3    H172223   2.049   4.839  15.141  0.2578  0.0950  0.6641
16936TIP3    H272224   1.972   4.878  15.017  0.5902  0.3591  0.5388
16937TIP3   OH272225   2.193   0.791  16.140 -0.4359 -0.0434 -0.2048
16937TIP3    H172226   2.279   0.760  16.170 -0.5723 -0.9064 -0.6601
16937TIP3    H272227   2.138   0.788  16.219 -0.4248 -0.9296 -0.2191
16938TIP3   OH272228   6.393   6.257   3.170 -0.6510  0.5224 -0.3689
16938TIP3    H172229   6.398   6.307   3.088 -1.6152  1.1769 -0.0513
16938TIP3    H272230   6.342   6.180   3.147 -0.6124  0.5247 -0.4662
16939TIP3   OH272231   0.065   3.597   5.374 -0.0765 -0.2811  0.1587
16939TIP3    H172232   0.027   3.534   5.435  1.2113 -0.9559  0.2929
16939TIP3    H272233   0.136   3.639   5.423  1.9481 -1.8595 -1.2557
16940TIP3   OH272234   6.539   3.738   6.133 -0.1008 -0.3857  0.3238
16940TIP3    H172235   6.485   3.784   6.197 -0.8684 -0.3504 -0.3427
16940TIP3    H272236   6.625   3.732   6.175 -0.1902  0.9633  0.7265
16941TIP3   OH272237   4.490   4.455   1.083 -0.6043 -0.3432  0.0403
16941TIP3    H172238   4.408   4.405   1.085 -0.7597 -0.0782  0.4097
16941TIP3    H272239   4.494   4.497   1.169 -1.5466  1.9883 -0.9940
16942TIP3   OH272240   4.980   2.620  17.139  0.3597  0.5561  0.4355
16942TIP3    H172241   4.953   2.712  17.139 -1.2433  0.1608  2.0046
16942TIP3    H272242   5.059   2.618  17.085 -0.2075  2.6394 -0.5985
16943TIP3   OH272243   1.090   2.807  13.692  0.1400  0.2284  0.0400
16943TIP3    H172244   1.084   2.712  13.681 -2.2728  0.2795  0.4256
16943TIP3    H272245   1.112   2.840  13.605  0.4386 -0.6172 -0.2188
16944TIP3   OH272246   0.945   3.371   4.491  0.5121 -0.0335  0.3171
16944TIP3    H172247   1.026   3.396   4.447  1.9389 -0.1621  2.7537
16944TIP3    H272248   0.936   3.277   4.472  0.4811  0.1521 -0.6265
16945TIP3   OH272249   0.972   1.919   5.092  0.5105  0.4263 -1.0613
16945TIP3    H172250   0.995   1.999   5.047  1.3888  1.8301  1.6380
16945TIP3    H272251   0.916   1.947   5.165  2.8501 -0.9612  1.4585
16946TIP3   OH272252   2.240   1.598   2.275 -0.4746  0.4137  0.3693
16946TIP3    H172253   2.256   1.607   2.369 -1.3865  0.6398  0.5069
16946TIP3    H272254   2.153   1.634   2.261 -1.1391 -1.3256 -0.2555
16947TIP3   OH272255   3.438   0.995   2.297  0.1308 -0.2454 -0.0462
16947TIP3    H172256   3.345   1.015   2.297 -0.0698 -0.7516  2.4238
16947TIP3    H272257   3.478   1.063   2.351  1.2916  0.2118 -1.4175
16948TIP3   OH272258   1.580   3.361   5.201 -0.4955 -0.0774  0.0340
16948TIP3    H172259   1.485   3.350   5.191 -0.4446  0.1027 -0.7146
16948TIP3    H272260   1.617   3.279   5.167 -0.3738 -0.1170  0.2559
16949TIP3   OH272261   3.837   5.744  16.240 -0.3250 -0.2903  0.3527
16949TIP3    H172262   3.757   5.775  16.197 -0.1203 -0.0303  0.1490
16949TIP3    H272263   3.809   5.716  16.327 -0.7564 -0.8762  0.0308
16950TIP3   OH272264   2.446   4.958   4.849  0.6258  0.1462  0.2767
16950TIP3    H172265   2.409   4.981   4.764  1.4851 -0.4237 -0.2783
16950TIP3    H272266   2.381   4.901   4.890  0.3842  0.0882 -0.1855
16951TIP3   OH272267   2.392   2.536  15.179  0.0307 -0.1134 -0.1430
16951TIP3    H172268   2.337   2.538  15.258 -0.4428 -0.8419 -0.4415
16951TIP3    H272269   2.352   2.601  15.121  0.2640  0.2855  0.1387
16952TIP3   OH272270   5.896   2.436  16.837  0.0193 -0.3211  0.0980
16952TIP3    H172271   5.907   2.414  16.744  0.8350  1.6924 -0.3473
16952TIP3    H272272   5.844   2.516  16.836  0.1917 -0.1790  1.3673
16953TIP3   OH272273   1.194   5.209  12.247  0.6287 -0.3755  0.5759
16953TIP3    H172274   1.173   5.118  12.264  1.0452 -0.7934 -1.0007
16953TIP3    H272275   1.186   5.252  12.332  0.5053 -1.8834  1.3509
16954TIP3   OH272276   4.232   5.882  13.037 -0.3133 -0.2059 -0.2342
16954TIP3    H172277   4.277   5.851  13.116  2.6483  3.1262 -0.3720
16954TIP3    H272278   4.293   5.863  12.965 -0.8569  0.9609 -1.0334
16955TIP3   OH272279   2.631   1.100   0.438 -0.1634 -0.2391  0.1854
16955TIP3    H172280   2.669   1.105   0.351  0.0039 -0.1354  0.2651
16955TIP3    H272281   2.704   1.113   0.498 -0.3300  0.0081  0.3370
16956TIP3   OH272282   6.701   5.686   5.139  0.4143  0.0027  0.4147
16956TIP3    H172283   6.671   5.717   5.053  0.4623 -0.0250  0.3878
16956TIP3    H272284   6.695   5.764   5.195 -2.6299 -0.6904  1.2134
16957TIP3   OH272285   0.467   6.184  10.879 -0.4340 -0.2868 -0.6423
16957TIP3    H172286   0.408   6.204  10.806 -3.1003 -1.4799  1.0493
16957TIP3    H272287   0.418   6.122  10.933  1.6381  0.1199  1.8884
16958TIP3   OH272288   0.875   2.162  12.237 -0.2884  0.1235  0.3042
16958TIP3    H172289   0.955   2.183  12.285  0.5996  0.6164 -1.3376
16958TIP3    H272290   0.807   2.214  12.281  1.3733  4.7712 -1.9728
16959TIP3   OH272291   5.022   5.768   2.564 -0.0161 -0.2255 -0.2531
16959TIP3    H172292   4.943   5.811   2.596  0.4101 -0.3745  1.0289
16959TIP3    H272293   5.059   5.830   2.501 -0.5967  0.2992 -0.0865
16960TIP3   OH272294   0.465   5.939   3.593  0.1115 -0.1797 -0.0655
16960TIP3    H172295   0.454   5.844   3.597  1.4157 -0.3554 -0.3694
16960TIP3    H272296   0.389   5.970   3.544 -2.2693 -0.6606  3.0129
16961TIP3   OH272297   3.990   3.711   6.450 -0.1173 -0.2371  0.0715
16961TIP3    H172298   4.077   3.700   6.488 -0.0086 -2.8971 -0.7293
16961TIP3    H272299   3.929   3.695   6.522  0.0243  0.8230  0.4457
16962TIP3   OH272300   6.449   4.276   3.889 -0.2163 -0.3499  0.5885
16962TIP3    H172301   6.456   4.227   3.970  0.9221 -1.8879 -0.3695
16962TIP3    H272302   6.492   4.220   3.823  0.0521  1.3916 -0.8119
16963TIP3   OH272303   0.534   1.423  12.969  0.4075 -0.7089 -0.4572
16963TIP3    H172304   0.559   1.407  12.878  0.8057 -1.7122 -0.1834
16963TIP3    H272305   0.486   1.344  12.995 -0.0377 -0.2645  0.0848
16964TIP3   OH272306   5.853   4.663  14.855 -0.4259  0.2239  0.1515
16964TIP3    H172307   5.940   4.633  14.880 -0.2992  0.7521  0.3660
16964TIP3    H272308   5.809   4.683  14.938 -0.3167  1.1288 -0.0017
16965TIP3   OH272309   1.006   3.879   0.163  0.3165  0.4644 -0.2625
16965TIP3    H172310   0.978   3.793   0.194 -2.0670  1.0672 -0.5341
16965TIP3    H272311   0.959   3.941   0.219 -0.5147  1.5617 -2.0914
16966TIP3   OH272312   1.212   1.942   1.991 -0.1521  0.2598  0.1584
16966TIP3    H172313   1.150   1.902   2.051 -0.3283  0.6533  0.2428
16966TIP3    H272314   1.297   1.908   2.017 -0.4081 -0.9236 -0.4725
16967TIP3   OH272315   4.692   0.305  12.907 -0.7919 -0.1496  0.1582
16967TIP3    H172316   4.731   0.227  12.947 -2.4356 -0.9780  0.2364
16967TIP3    H272317   4.709   0.295  12.813  1.2929  0.7675  0.3907
16968TIP3   OH272318   3.919   0.914  14.897  0.0260 -0.5141 -0.3232
16968TIP3    H172319   3.973   0.870  14.832 -1.1307 -0.5807 -1.2789
16968TIP3    H272320   3.978   0.932  14.970  1.1989 -1.0203 -1.1252
16969TIP3   OH272321   2.284   4.055   3.793 -0.6481 -0.5886 -0.5019
16969TIP3    H172322   2.298   4.148   3.809 -1.0527 -0.5450 -0.3892
16969TIP3    H272323   2.297   4.044   3.699 -0.3523 -0.4641 -0.4754
16970TIP3   OH272324   4.347   5.400  17.222  0.0196 -0.1258 -0.6934
16970TIP3    H172325   4.294   5.365  17.150 -0.3852 -1.5343  0.2421
16970TIP3    H272326   4.429   5.350  17.218  0.3435  0.3994 -0.7041
16971TIP3   OH272327   6.140   3.826  10.577 -0.1679 -0.1860 -0.6287
16971TIP3    H172328   6.210   3.766  10.551  0.5182  1.0327 -1.6509
16971TIP3    H272329   6.067   3.804  10.519 -0.8857 -1.8355  0.8053
16972TIP3   OH272330   0.904   3.962  14.639  0.3272  0.0307 -0.0799
16972TIP3    H172331   0.809   3.972  14.650  0.0824  1.6574 -2.8546
16972TIP3    H272332   0.917   3.867  14.636 -1.0464 -0.2500  1.1918
16973TIP3   OH272333   6.584   0.098  16.813  0.0924 -0.1205  0.2909
16973TIP3    H172334   6.675   0.107  16.786 -0.2345  0.8417 -0.5676
16973TIP3    H272335   6.555   0.188  16.827 -0.5577 -0.4547  1.1656
16974TIP3   OH272336   5.989   5.135  15.143  0.1475 -0.5858  0.1196
16974TIP3    H172337   5.936   5.056  15.136  0.5908 -0.8854  0.1219
16974TIP3    H272338   5.935   5.196  15.194 -0.2254 -0.8556  0.0487
16975TIP3   OH272339   3.125   4.266   0.099 -0.5246  0.8564 -0.3051
16975TIP3    H172340   3.112   4.251   0.192 -0.9299  2.3197 -0.0958
16975TIP3    H272341   3.195   4.331   0.095  0.5568 -0.3200 -1.0966
16976TIP3   OH272342   4.064   0.810   0.207 -0.8098  0.1791 -0.3744
16976TIP3    H172343   4.118   0.802   0.129 -0.8263 -0.7256 -0.3131
16976TIP3    H272344   4.035   0.901   0.209 -0.9212  0.1731 -1.4938
16977TIP3   OH272345   2.900   3.136  12.071 -0.0458 -0.2993  0.0560
16977TIP3    H172346   2.918   3.046  12.045 -1.3681 -0.0048 -2.1214
16977TIP3    H272347   2.973   3.186  12.034 -0.3742 -0.2284 -0.4905
16978TIP3   OH272348   4.778   4.889  13.794 -0.4796 -0.4995 -0.2282
16978TIP3    H172349   4.833   4.954  13.750  0.8099 -0.2364  1.6566
16978TIP3    H272350   4.690   4.925  13.789  0.0732  0.9558 -0.0430
16979TIP3   OH272351   5.953   0.254  16.752  0.0815  0.0549  0.4364
16979TIP3    H172352   5.947   0.176  16.808  1.4546 -0.5713 -0.2415
16979TIP3    H272353   5.950   0.327  16.814  0.1757 -0.5804  1.2208
16980TIP3   OH272354   6.271   0.024  13.392 -0.2719 -0.3267 -0.8122
16980TIP3    H172355   6.307  -0.064  13.393 -0.6645 -0.4867 -0.1035
16980TIP3    H272356   6.204   0.024  13.460  1.3452  1.1987  0.9007
16981TIP3   OH272357   6.542   1.928  13.117 -0.2019  0.2833  0.0829
16981TIP3    H172358   6.471   1.899  13.060 -0.9987 -0.3017  1.3523
16981TIP3    H272359   6.590   1.849  13.139  0.5637  0.6095 -0.3648
16982TIP3   OH272360   0.230   6.486  15.627  0.0685  0.6133 -0.1275
16982TIP3    H172361   0.322   6.488  15.652  0.6368  1.5310 -2.0407
16982TIP3    H272362   0.204   6.579  15.626 -0.4947  0.4558 -0.8205
16983TIP3   OH272363   0.692   3.551   0.041 -0.1395 -0.1990  0.4905
16983TIP3    H172364   0.603   3.570   0.069 -0.4801 -0.7733 -0.1937
16983TIP3    H272365   0.706   3.606  -0.036 -0.0734 -0.4766  0.3047
16984TIP3   OH272366   4.455   3.513   4.922 -0.6965 -0.2826 -0.2776
16984TIP3    H172367   4.483   3.482   4.836 -0.5705 -3.7212  0.8269
16984TIP3    H272368   4.489   3.447   4.983 -3.3170  0.3577  2.0722
16985TIP3   OH272369   2.095   4.511   3.531 -0.1298 -0.1298  0.0852
16985TIP3    H172370   2.029   4.580   3.535  0.1380  0.0959  2.5730
16985TIP3    H272371   2.133   4.519   3.444 -1.5865  1.4506 -0.4648
16986TIP3   OH272372   5.970   0.149   0.391 -0.1082 -0.1653 -0.4748
16986TIP3    H172373   5.959   0.160   0.486 -0.6975  1.0624 -0.6706
16986TIP3    H272374   5.970   0.054   0.378  2.3289 -0.4635  1.0145
16987TIP3   OH272375   5.328   1.345   1.083 -0.1500  0.2078 -0.6377
16987TIP3    H172376   5.279   1.425   1.102  0.3923  0.3272  0.3277
16987TIP3    H272377   5.261   1.277   1.073 -0.5732  0.6231 -0.6254
16988TIP3   OH272378   1.300   6.758  14.606 -0.5809  0.5383 -0.1625
16988TIP3    H172379   1.361   6.722  14.670 -0.3904 -0.0681 -0.6780
16988TIP3    H272380   1.246   6.683  14.580 -0.4924  0.7234 -0.8923
16989TIP3   OH272381   2.384   1.095  13.816  0.7026  1.1516  0.8533
16989TIP3    H172382   2.380   1.064  13.725 -0.3858  0.4586  1.1215
16989TIP3    H272383   2.474   1.076  13.844  0.1748 -1.7317  0.9616
16990TIP3   OH272384   1.556   6.127   5.530  0.1425 -0.0248 -0.2318
16990TIP3    H172385   1.478   6.073   5.541  0.6337 -0.7483 -0.2378
16990TIP3    H272386   1.628   6.064   5.522  1.1512  0.6232  2.6889
16991TIP3   OH272387   2.790   3.949  14.620  0.1756  0.0128  0.0952
16991TIP3    H172388   2.752   3.931  14.706 -0.6756  0.8221 -0.0894
16991TIP3    H272389   2.829   4.036  14.628  1.2064 -0.4274  0.0106
16992TIP3   OH272390   6.420   2.911  12.625 -0.0276 -0.6195 -0.1118
16992TIP3    H172391   6.398   2.819  12.614 -0.3183 -0.5503 -0.1333
16992TIP3    H272392   6.490   2.927  12.562  0.4164 -0.9629  0.2953
16993TIP3   OH272393   1.516   1.131   0.716  0.1173 -0.0284  0.3233
16993TIP3    H172394   1.563   1.117   0.798  0.8420  2.6503  0.4596
16993TIP3    H272395   1.424   1.136   0.742  0.1017 -1.3241  0.6130
16994TIP3   OH272396   0.645   4.734   5.867 -0.0204  0.0082 -0.1936
16994TIP3    H172397   0.589   4.800   5.907  0.0414 -0.4097  0.5881
16994TIP3    H272398   0.731   4.776   5.863 -0.5711  1.0815 -2.4292
16995TIP3   OH272399   4.290   3.044   5.475  0.0050 -0.1636 -0.1021
16995TIP3    H172400   4.267   3.045   5.568 -0.6649 -3.0864 -0.1588
16995TIP3    H272401   4.373   3.092   5.470 -0.2846  0.6384  1.8685
16996TIP3   OH272402   6.514   5.553  13.547 -0.0942 -0.0506 -0.0888
16996TIP3    H172403   6.488   5.461  13.552 -1.0805  0.2433  0.3939
16996TIP3    H272404   6.576   5.556  13.473  0.0733 -1.1186 -0.0110
16997TIP3   OH272405   4.875   3.498  14.912 -0.0836  0.6524  0.0265
16997TIP3    H172406   4.939   3.428  14.907  0.2606  1.0134 -0.6103
16997TIP3    H272407   4.792   3.454  14.932  0.5099  0.2677  1.8186
16998TIP3   OH272408   3.517   5.002  11.973  0.2791  0.4100  0.0098
16998TIP3    H172409   3.422   4.994  11.965  0.4018 -0.8693 -0.4517
16998TIP3    H272410   3.532   5.095  11.984 -1.0688  0.5817  0.6224
16999TIP3   OH272411   1.696   4.193   5.197 -0.2811 -0.2791  0.6640
16999TIP3    H172412   1.644   4.117   5.224 -1.8384  0.1496 -0.9066
16999TIP3    H272413   1.747   4.162   5.122 -0.3377  0.0178  0.5005
17000TIP3   OH272414   2.241   0.688  16.962 -0.2763  1.2209  0.0244
17000TIP3    H172415   2.316   0.746  16.947  0.8807  0.1330  1.1881
17000TIP3    H272416   2.169   0.746  16.983  0.3615  2.2936 -0.6597
17001TIP3   OH272417   6.142   6.481   0.885 -0.2051  0.0591  0.0828
17001TIP3    H172418   6.112   6.419   0.951 -1.8245 -0.2663 -0.9034
17001TIP3    H272419   6.095   6.562   0.905 -1.5131 -0.3301 -1.2215
17002TIP3   OH272420   6.762   2.017   5.461  0.3951  0.1274 -0.1794
17002TIP3    H172421   6.783   2.073   5.386 -1.4997 -0.0632 -0.9089
17002TIP3    H272422   6.788   1.929   5.433 -1.2924 -0.1232 -1.1120
17003TIP3   OH272423   1.512   6.574  16.167 -0.2625 -0.0089 -0.0928
17003TIP3    H172424   1.535   6.534  16.251  0.7213 -2.2619 -1.3566
17003TIP3    H272425   1.561   6.524  16.102 -2.7192  0.1539 -2.2420
17004TIP3   OH272426   3.460   5.967  11.298  0.1955  0.0527  0.0866
17004TIP3    H172427   3.435   5.940  11.210 -0.3560  0.8410 -0.0077
17004TIP3    H272428   3.542   6.016  11.287 -0.3066  0.8716 -0.1067
17005TIP3   OH272429   1.983   5.354   4.581  0.2024 -0.7827  0.5078
17005TIP3    H172430   2.040   5.427   4.557  0.7590 -1.0931  0.8538
17005TIP3    H272431   1.901   5.395   4.608 -0.1687 -0.3759 -1.1128
17006TIP3   OH272432   0.135   2.441  14.937  1.0120  0.6787  0.5463
17006TIP3    H172433   0.092   2.364  14.974 -0.4708  0.0733 -2.1473
17006TIP3    H272434   0.064   2.503  14.922  1.1587  0.2686 -2.5594
17007TIP3   OH272435   6.211   4.994  14.343 -0.0887 -0.2142  0.6114
17007TIP3    H172436   6.161   5.004  14.424 -0.2772  0.8702  0.3748
17007TIP3    H272437   6.146   5.001  14.274  0.1160 -0.8454  0.3489
17008TIP3   OH272438   0.178   6.383   5.700 -0.2207  0.3042 -0.1434
17008TIP3    H172439   0.272   6.397   5.715 -0.0694 -0.8360  0.0802
17008TIP3    H272440   0.170   6.288   5.691 -1.3675  0.3929 -0.1208
17009TIP3   OH272441   5.119   1.976  13.723  0.0466  0.0919  0.5451
17009TIP3    H172442   5.067   1.968  13.643  2.0536  1.0193 -0.9300
17009TIP3    H272443   5.182   1.905  13.718  1.1686  1.0693  0.5123
17010TIP3   OH272444   1.960   1.181  14.383 -0.1564 -0.2562  0.1476
17010TIP3    H172445   1.949   1.225  14.467  0.4314 -0.8434  0.5379
17010TIP3    H272446   1.920   1.241  14.320 -0.9958 -0.0102  0.8877
17011TIP3   OH272447   6.450   3.381  17.066 -0.3186  0.0608 -0.5450
17011TIP3    H172448   6.415   3.330  17.139  1.0694  0.6747  0.6109
17011TIP3    H272449   6.373   3.417  17.022 -1.1944  1.2760  1.8123
17012TIP3   OH272450   4.148   5.064  12.319  0.3589 -0.0991 -0.2526
17012TIP3    H172451   4.219   5.119  12.286 -1.1572  0.5687 -2.6429
17012TIP3    H272452   4.068   5.111  12.295 -0.9880 -0.6378  2.6538
17013TIP3   OH272453   6.212   3.565  15.501  0.1128 -0.3311  0.2378
17013TIP3    H172454   6.119   3.578  15.485 -0.1880 -0.6577  1.5826
17013TIP3    H272455   6.240   3.503  15.434  0.0421  1.8873 -1.9657
17014TIP3   OH272456   0.260   0.306   3.547  0.2459  0.2755  0.3514
17014TIP3    H172457   0.166   0.318   3.560  0.1726 -0.4981  0.5713
17014TIP3    H272458   0.294   0.282   3.633  0.6167  0.3640  0.2327
17015TIP3   OH272459   2.262   5.311  11.985  0.7604  0.2703 -0.0769
17015TIP3    H172460   2.228   5.325  11.896 -0.1345  0.9396  0.3549
17015TIP3    H272461   2.196   5.352  12.042  1.1391 -0.4707  0.9113
17016TIP3   OH272462   0.822   6.222   1.300 -0.1587  0.2522 -0.8647
17016TIP3    H172463   0.900   6.272   1.324 -0.0336 -0.2252 -0.2754
17016TIP3    H272464   0.770   6.219   1.380 -0.2437 -0.4182 -0.9440
17017TIP3   OH272465   4.139   4.894  13.294 -0.8277  0.8884 -0.3671
17017TIP3    H172466   4.197   4.964  13.265  0.2633 -0.7048 -2.2553
17017TIP3    H272467   4.196   4.834  13.343 -1.3375  0.3958 -0.3662
17018TIP3   OH272468   6.516   4.519   1.615  0.5622 -0.7050 -0.1629
17018TIP3    H172469   6.572   4.592   1.642 -0.1039 -0.0209 -0.5813
17018TIP3    H272470   6.505   4.531   1.520  1.8508 -2.3457 -0.5737
17019TIP3   OH272471   5.396   5.037   3.766  0.3987 -0.3060 -0.1422
17019TIP3    H172472   5.464   5.029   3.832  0.5194  1.3301 -0.0200
17019TIP3    H272473   5.393   5.131   3.746 -0.6887 -0.5638 -1.3415
17020TIP3   OH272474   3.187   1.139  11.344  0.7579  0.3147  0.4870
17020TIP3    H172475   3.182   1.229  11.374 -1.0788  0.9405 -1.4301
17020TIP3    H272476   3.270   1.134  11.297  1.6168  0.5040  1.9172
17021TIP3   OH272477   1.174   0.102  13.751 -0.1558 -0.5423  0.1661
17021TIP3    H172478   1.143   0.193  13.741  0.6108 -0.1968  0.8517
17021TIP3    H272479   1.096   0.049  13.737 -0.2024  0.0999 -2.4491
17022TIP3   OH272480   3.503   5.401  13.335  0.2940  0.2648 -0.2009
17022TIP3    H172481   3.507   5.383  13.429 -1.1817 -0.5617 -0.2556
17022TIP3    H272482   3.489   5.315  13.295 -0.7835  0.7879 -1.0166
17023TIP3   OH272483   4.243   4.763  15.151  0.0937 -0.2418  0.2793
17023TIP3    H172484   4.223   4.670  15.151  1.5482 -0.5825  0.8528
17023TIP3    H272485   4.315   4.772  15.089  0.2191  0.4422  0.5117
17024TIP3   OH272486   1.574   1.493   0.683 -0.0082 -0.7214 -0.0996
17024TIP3    H172487   1.576   1.580   0.644 -0.0749 -0.8279 -0.3402
17024TIP3    H272488   1.563   1.433   0.609 -0.4887 -0.8992  0.1091
17025TIP3   OH272489   6.436   5.420   1.068  0.4928 -0.0515 -0.1163
17025TIP3    H172490   6.496   5.353   1.101  0.7867  0.1625 -0.2161
17025TIP3    H272491   6.485   5.502   1.076 -0.8497  0.6044  2.6827
17026TIP3   OH272492   6.643   1.081   5.524  0.3178  0.1447  0.5658
17026TIP3    H172493   6.697   1.045   5.454  0.8834  0.6705  0.7281
17026TIP3    H272494   6.705   1.106   5.593  0.0300  2.0444  0.1916
17027TIP3   OH272495   0.076   0.508   0.144  0.4411 -0.0524  0.0819
17027TIP3    H172496   0.028   0.501   0.061 -0.9832 -0.7114  0.9185
17027TIP3    H272497   0.093   0.602   0.153 -0.2544  0.1425 -0.5003
17028TIP3   OH272498   4.626   3.343  14.217  0.7155 -0.1330 -0.5034
17028TIP3    H172499   4.654   3.433  14.237  0.7080 -0.4795  1.2646
17028TIP3    H272500   4.661   3.326  14.130  1.9911  1.0880 -0.2744
17029TIP3   OH272501   4.555   2.341  14.787 -0.4058 -0.1300 -0.1846
17029TIP3    H172502   4.633   2.379  14.746 -0.0562  0.9280  1.3797
17029TIP3    H272503   4.533   2.402  14.857 -0.8497 -1.9611  1.3408
17030TIP3   OH272504   4.662   4.157   4.953 -0.1570  0.2087  0.3265
17030TIP3    H172505   4.747   4.172   4.995  1.0220  0.2011 -1.9008
17030TIP3    H272506   4.654   4.062   4.947  0.5803  0.1988 -1.0482
17031TIP3   OH272507   4.158   4.320   5.577 -0.0880  0.4013  0.8110
17031TIP3    H172508   4.128   4.370   5.501  1.0028 -1.7562 -1.1978
17031TIP3    H272509   4.080   4.272   5.605 -0.0922 -0.2384 -0.2234
17032TIP3   OH272510   2.821   4.440  11.338 -0.1495  0.5201 -0.5832
17032TIP3    H172511   2.731   4.472  11.329  0.0573  0.6930 -2.4782
17032TIP3    H272512   2.875   4.515  11.313  0.4801  0.0197 -0.7411
17033TIP3   OH272513   6.318   0.922  12.549 -0.4044 -0.1328  0.5992
17033TIP3    H172514   6.237   0.968  12.526  0.8813  1.2862 -1.3875
17033TIP3    H272515   6.294   0.829  12.547 -2.1974  0.2657  1.1053
17034TIP3   OH272516   2.304   3.388   4.400 -0.1894 -0.7172  0.0700
17034TIP3    H172517   2.250   3.332   4.456 -0.7675 -1.4683 -1.1927
17034TIP3    H272518   2.394   3.371   4.429 -0.3936 -1.9468  0.0496
17035TIP3   OH272519   5.656   0.225  17.014  0.3878  0.1728 -0.9277
17035TIP3    H172520   5.745   0.202  17.038  0.4156  0.0086 -1.1808
17035TIP3    H272521   5.603   0.199  17.089  0.2574 -1.8808 -1.6698
17036TIP3   OH272522   2.534   2.769   3.157  0.4053  0.1379  0.4329
17036TIP3    H172523   2.531   2.850   3.106 -0.6323 -0.7673 -1.0402
17036TIP3    H272524   2.482   2.788   3.235 -1.2328  0.4093 -0.6865
17037TIP3   OH272525   6.706   1.088   3.884  0.4808  0.3604  0.0761
17037TIP3    H172526   6.705   1.012   3.825 -0.3499 -0.4260  1.0487
17037TIP3    H272527   6.784   1.076   3.938  0.5741  0.4236 -0.0443
17038TIP3   OH272528   5.215   6.362  13.778 -0.0518  0.0669  0.0265
17038TIP3    H172529   5.222   6.335  13.869  1.5178 -0.3331 -0.1893
17038TIP3    H272530   5.293   6.327  13.736 -0.2877  1.0122 -1.2833
17039TIP3   OH272531   6.636   3.818  11.923 -0.2037  0.3071 -0.5599
17039TIP3    H172532   6.650   3.894  11.867  2.2750  1.9071  1.9632
17039TIP3    H272533   6.593   3.853  12.001 -0.4220 -1.1744  0.0246
17040TIP3   OH272534   0.846   5.126  13.721 -0.2672 -0.2645  0.6722
17040TIP3    H172535   0.788   5.073  13.667  0.4462  0.4239 -0.8360
17040TIP3    H272536   0.933   5.088  13.709  0.5288  1.9640 -1.5945
17041TIP3   OH272537   3.391   2.892   1.422 -0.0736  0.1639  0.0787
17041TIP3    H172538   3.338   2.872   1.345  1.0352 -0.7524 -0.4756
17041TIP3    H272539   3.451   2.817   1.431  1.8719  1.6314  0.0124
17042TIP3   OH272540   0.031   5.403   3.304 -0.3567 -0.2040 -0.5140
17042TIP3    H172541   0.127   5.408   3.298 -0.3275  0.1427  0.2234
17042TIP3    H272542  -0.000   5.462   3.236 -0.0433  0.1846 -0.3252
17043TIP3   OH272543   3.149   6.212   2.428 -0.3771  0.1216  0.6024
17043TIP3    H172544   3.201   6.182   2.502  2.0743  1.1976 -0.5669
17043TIP3    H272545   3.145   6.307   2.438 -2.0634  0.0993  0.5492
17044TIP3   OH272546   3.178   2.599   1.197 -0.3972 -0.5507 -0.2102
17044TIP3    H172547   3.271   2.601   1.220 -0.7186  1.3309  1.1947
17044TIP3    H272548   3.138   2.541   1.262 -0.2878 -0.9441 -0.4911
17045TIP3   OH272549   3.161   2.087   5.302  0.2344 -0.2179  0.0840
17045TIP3    H172550   3.183   2.061   5.392 -0.3674  0.6312  0.4943
17045TIP3    H272551   3.117   2.171   5.312  0.3438 -0.0148 -1.0366
17046TIP3   OH272552   1.559   4.007   2.869  0.3357 -0.1849 -0.1833
17046TIP3    H172553   1.477   4.000   2.918  0.6058  0.4984  0.3738
17046TIP3    H272554   1.625   3.969   2.926  0.2327 -1.9964 -1.1722
17047TIP3   OH272555   5.169   5.642  14.482  0.4339 -0.5142  0.2959
17047TIP3    H172556   5.246   5.586  14.483  0.4292 -0.7053 -2.6443
17047TIP3    H272557   5.123   5.621  14.564  1.1446 -3.7502  0.0002
17048TIP3   OH272558   3.018   3.881  12.373 -0.1745 -0.3260 -0.4241
17048TIP3    H172559   3.020   3.859  12.280  0.0235  1.1591 -0.8053
17048TIP3    H272560   3.093   3.939  12.386 -1.3796  1.1999  0.1616
17049TIP3   OH272561   5.156   6.509   0.065  0.1316  0.5108  0.1155
17049TIP3    H172562   5.195   6.473  -0.015 -1.7849 -1.9134  0.1402
17049TIP3    H272563   5.217   6.485   0.134  0.0748 -0.6695 -0.2111
17050TIP3   OH272564   4.688   0.583   2.894  0.1429  0.2992 -0.1369
17050TIP3    H172565   4.679   0.521   2.821 -1.0382  0.9893 -0.6108
17050TIP3    H272566   4.602   0.624   2.901  0.6736  1.3198  0.6929
17051TIP3   OH272567   3.078   2.547  10.579  0.3311  0.7949  0.1000
17051TIP3    H172568   3.166   2.569  10.612  0.7822  1.8937 -1.7250
17051TIP3    H272569   3.072   2.591  10.495 -1.0394 -1.3441 -1.0007
17052TIP3   OH272570   6.253   6.735  14.499  0.8005  0.3764  0.0754
17052TIP3    H172571   6.324   6.797  14.483 -1.1169  2.8238  0.4709
17052TIP3    H272572   6.173   6.785  14.480 -0.8648 -2.0307  0.3408
17053TIP3   OH272573   6.264   2.472   5.575  0.6752 -0.2275  0.4270
17053TIP3    H172574   6.263   2.510   5.663  0.8257  0.2284  0.2386
17053TIP3    H272575   6.277   2.378   5.589 -1.6973 -0.5358  0.9934
17054TIP3   OH272576   1.389   2.044   1.525  0.1036 -0.0148 -0.2153
17054TIP3    H172577   1.468   2.062   1.576 -0.4075 -0.0276  0.5962
17054TIP3    H272578   1.339   2.125   1.529  0.1912  0.0858 -0.9622
17055TIP3   OH272579   3.917   5.804  17.039 -0.0222  0.2202  0.3713
17055TIP3    H172580   3.972   5.858  16.982  0.9163 -0.9765  0.0895
17055TIP3    H272581   3.860   5.757  16.979  0.1452 -0.1550  0.5064
17056TIP3   OH272582   3.638   2.101  12.530 -0.1714  0.0340 -0.4151
17056TIP3    H172583   3.687   2.068  12.454 -0.4403 -1.7580  0.1401
17056TIP3    H272584   3.680   2.184  12.551  1.5313 -0.6305 -1.0112
17057TIP3   OH272585   2.310   3.366   4.710 -0.0437  0.3834 -0.1449
17057TIP3    H172586   2.396   3.325   4.699  0.5340  1.2413  0.8871
17057TIP3    H272587   2.257   3.300   4.754  0.2017 -0.0192 -0.4494
17058TIP3   OH272588   5.806   4.204  15.928  0.2978 -0.3101 -0.2553
17058TIP3    H172589   5.818   4.191  16.022  0.4694 -1.4907 -0.4259
17058TIP3    H272590   5.735   4.143  15.905  0.6279 -0.4246 -0.9854
17059TIP3   OH272591   0.376   1.717  11.702 -0.2925  0.1868  0.1752
17059TIP3    H172592   0.447   1.660  11.673 -1.0707 -1.3508  1.1835
17059TIP3    H272593   0.310   1.709  11.634 -0.1566  0.3856  0.0167
17060TIP3   OH272594   1.563   0.024   4.866  0.2107  0.3246  0.1789
17060TIP3    H172595   1.594  -0.040   4.802  0.1816  0.0995  0.3902
17060TIP3    H272596   1.502   0.079   4.817  0.7763  0.6389 -0.1864
17061TIP3   OH272597   6.514   1.756   5.311  0.5439 -0.1124  0.3511
17061TIP3    H172598   6.531   1.796   5.225 -0.3632  0.2459  0.3206
17061TIP3    H272599   6.536   1.664   5.299  1.1112  0.0676 -0.0581
17062TIP3   OH272600   4.859   2.844   2.465  0.2963 -0.1169  0.7242
17062TIP3    H172601   4.839   2.750   2.457 -0.6582  0.0982  0.5085
17062TIP3    H272602   4.920   2.861   2.393  1.3453 -0.7865  1.4096
17063TIP3   OH272603   3.844   1.217  15.401 -0.2279 -0.4380  0.1669
17063TIP3    H172604   3.844   1.125  15.373 -0.7489 -1.2114  2.5341
17063TIP3    H272605   3.895   1.218  15.481 -0.1356  1.3886  0.1189
17064TIP3   OH272606   5.018   1.899  17.122  0.2527  1.1161  0.4338
17064TIP3    H172607   4.932   1.860  17.103  0.6940  0.0195  0.6087
17064TIP3    H272608   5.051   1.848  17.195  1.2118  1.3034  0.1346
17065TIP3   OH272609   6.555   1.381   3.632  0.2835 -0.0652 -0.1786
17065TIP3    H172610   6.561   1.476   3.647  1.3163  0.0254 -1.0148
17065TIP3    H272611   6.507   1.373   3.550 -2.1722 -0.4054  1.2142
17066TIP3   OH272612   4.361   5.676  11.596  0.1393  0.0788 -0.2684
17066TIP3    H172613   4.425   5.734  11.554  0.7676 -0.4434 -0.0545
17066TIP3    H272614   4.323   5.625  11.525 -0.0374  0.3882 -0.3966
17067TIP3   OH272615   1.575   2.774   0.747 -0.3208  0.8190  0.4900
17067TIP3    H172616   1.530   2.691   0.758 -0.6332  0.8895 -0.1855
17067TIP3    H272617   1.512   2.830   0.701  1.3067  0.0627 -3.0948
17068TIP3   OH272618   0.163   2.571  12.394  0.6616  0.4788  0.5303
17068TIP3    H172619   0.147   2.648  12.449  2.8383  1.6437 -0.3523
17068TIP3    H272620   0.162   2.497  12.455 -0.2430  1.3356  1.5915
17069TIP3   OH272621   6.282   6.301   6.328 -0.0077 -0.0123  0.7210
17069TIP3    H172622   6.331   6.383   6.329  0.9040 -0.4919 -0.9470
17069TIP3    H272623   6.344   6.236   6.361 -0.4535 -0.1815  1.2409
17070TIP3   OH272624   5.713   4.650   1.798 -0.6321 -0.7253  0.0261
17070TIP3    H172625   5.641   4.595   1.767 -0.0145 -2.4623  1.4433
17070TIP3    H272626   5.712   4.638   1.893 -0.2589  1.5303  0.3705
17071TIP3   OH272627   1.883   3.781  16.359  0.2892 -0.5183  0.0820
17071TIP3    H172628   1.861   3.739  16.442 -0.1960  0.2455  0.3495
17071TIP3    H272629   1.870   3.875  16.375 -0.5206 -0.4155 -1.0604
17072TIP3   OH272630   2.998   6.433   5.727  0.3469 -0.2779 -0.1454
17072TIP3    H172631   2.923   6.398   5.775  0.8632 -0.2642  0.6943
17072TIP3    H272632   2.998   6.385   5.643 -1.4185  0.7390 -0.7597
17073TIP3   OH272633   1.514   3.780   5.396 -0.0922 -0.3597  0.1588
17073TIP3    H172634   1.535   3.833   5.319 -1.2039 -0.3728 -0.1689
17073TIP3    H272635   1.523   3.841   5.469 -1.6364  0.3987 -0.2429
17074TIP3   OH272636   3.003   4.991  12.498  0.2297  0.1262  0.0508
17074TIP3    H172637   3.065   4.922  12.475 -1.2115 -1.5969  1.0902
17074TIP3    H272638   2.988   5.037  12.415  1.6079 -0.4635 -0.5668
17075TIP3   OH272639   4.479   4.197   1.402  0.1524 -0.2585 -0.0535
17075TIP3    H172640   4.390   4.199   1.436  0.2776  0.4400  0.2689
17075TIP3    H272641   4.517   4.281   1.430  0.7168 -0.2869 -0.6977
17076TIP3   OH272642   2.045   5.553  15.037  0.1551  0.3880 -0.1167
17076TIP3    H172643   1.973   5.552  15.100  0.0085  0.8306 -0.2732
17076TIP3    H272644   2.027   5.629  14.981 -0.4906 -0.8033 -1.5950
17077TIP3   OH272645   6.664   5.072   0.558 -0.3822 -0.1355 -0.5919
17077TIP3    H172646   6.680   5.073   0.652  0.0156 -2.0617 -0.6086
17077TIP3    H272647   6.595   5.138   0.545 -0.0473  0.5617  0.9417
17078TIP3   OH272648   0.617   2.532   5.716  0.5090  0.1071 -0.9605
17078TIP3    H172649   0.556   2.459   5.723  0.9164 -0.2715 -1.2420
17078TIP3    H272650   0.603   2.567   5.628  3.2404 -2.3581 -2.5663
17079TIP3   OH272651   1.515   3.255  14.150  0.2449  0.0760 -0.0258
17079TIP3    H172652   1.443   3.211  14.195 -0.3733  0.5621 -0.5094
17079TIP3    H272653   1.511   3.345  14.181 -0.7304  0.6370 -1.6192
17080TIP3   OH272654   3.729   0.503   4.181  0.0762 -0.3384 -0.3738
17080TIP3    H172655   3.769   0.439   4.123  2.7157 -0.2635  1.2595
17080TIP3    H272656   3.757   0.588   4.146 -2.5178  0.0283 -1.8812
17081TIP3   OH272657   5.302   3.434   2.698  0.3723  0.0039  0.1242
17081TIP3    H172658   5.305   3.338   2.703  0.2800  0.0576  1.5199
17081TIP3    H272659   5.365   3.456   2.629  1.6023 -0.9826  0.9006
17082TIP3   OH272660   3.496   0.808  17.100 -0.0203 -0.7848 -0.3517
17082TIP3    H172661   3.576   0.849  17.134 -0.1042 -0.0377 -1.0283
17082TIP3    H272662   3.527   0.730  17.054  0.1647 -1.3702  0.7379
17083TIP3   OH272663   5.618   4.999  16.703  0.2493  0.0317 -0.4729
17083TIP3    H172664   5.615   4.908  16.674 -1.1467 -0.7413  1.7993
17083TIP3    H272665   5.583   4.997  16.792  0.0389  2.8392 -0.3905
17084TIP3   OH272666   3.471   1.375  14.027  0.6943  0.0090 -0.5129
17084TIP3    H172667   3.469   1.398  13.934  1.1618  0.9812 -0.2908
17084TIP3    H272668   3.555   1.333  14.040  2.3495  3.2149  0.1888
17085TIP3   OH272669   2.387   5.844  15.742 -0.7531  0.4810  0.3135
17085TIP3    H172670   2.392   5.749  15.748 -0.1523  0.4024 -1.1019
17085TIP3    H272671   2.464   5.869  15.691 -1.6337  1.5922 -0.5173
17086TIP3   OH272672   5.033   1.604  12.326  0.1625  0.3995 -0.7600
17086TIP3    H172673   4.951   1.563  12.299  1.2954 -1.6443 -1.2982
17086TIP3    H272674   5.090   1.596  12.249  0.8505  1.9030 -0.4462
17087TIP3   OH272675   0.423   1.699   5.985 -0.0046 -0.3217  0.8876
17087TIP3    H172676   0.362   1.772   5.972  1.0514  0.3481 -0.5211
17087TIP3    H272677   0.392   1.632   5.924 -0.1357 -0.5082  1.1587
17088TIP3   OH272678   1.963   4.326   1.693  0.4342 -0.3489 -0.0863
17088TIP3    H172679   1.913   4.294   1.768 -0.3085  0.6915 -0.1225
17088TIP3    H272680   1.998   4.410   1.721  0.1388  0.0538 -0.9033
17089TIP3   OH272681   0.657   4.809  12.854  0.1627 -0.3017 -0.1258
17089TIP3    H172682   0.590   4.840  12.915 -1.3492 -0.5932 -1.5482
17089TIP3    H272683   0.703   4.888  12.826 -2.4847  0.5865 -2.3688
17090TIP3   OH272684   0.146   4.374  16.554 -0.1398  0.1453  0.1235
17090TIP3    H172685   0.152   4.431  16.631  0.5195 -0.2585  0.3839
17090TIP3    H272686   0.192   4.422  16.485  0.9737 -0.3304  0.5132
17091TIP3   OH272687   5.853   6.482  12.872  0.6745 -0.9555 -0.0492
17091TIP3    H172688   5.857   6.533  12.953 -4.2746  0.9261 -0.6803
17091TIP3    H272689   5.820   6.396  12.900 -2.9911  0.2940  0.0342
17092TIP3   OH272690   4.583   0.673   3.384 -0.6859 -0.0756 -0.0448
17092TIP3    H172691   4.651   0.723   3.430 -0.6386 -1.6453  1.7118
17092TIP3    H272692   4.627   0.635   3.309 -0.0655  0.3580  0.0964
17093TIP3   OH272693   3.050   3.803   0.029  0.4050 -0.0975 -0.1384
17093TIP3    H172694   3.018   3.892   0.014 -0.2026 -0.4782 -1.2276
17093TIP3    H272695   3.145   3.811   0.030  0.3680  0.8802  1.9405
17094TIP3   OH272696   1.534   1.098  10.932 -0.3592 -0.2086 -0.6750
17094TIP3    H172697   1.616   1.132  10.896  0.4013 -0.6897  0.5316
17094TIP3    H272698   1.541   1.115  11.026 -0.5141 -2.4718 -0.1932
17095TIP3   OH272699   2.463   2.829   1.210 -0.1995  0.3112  0.3683
17095TIP3    H172700   2.469   2.861   1.300 -0.3952 -0.4384  0.6561
17095TIP3    H272701   2.540   2.773   1.199  0.0952  0.7975 -0.1022
17096TIP3   OH272702   4.052   2.796   6.019  0.2034  0.6185 -0.9673
17096TIP3    H172703   4.009   2.766   6.099 -0.8599  1.4348 -1.2072
17096TIP3    H272704   4.142   2.766   6.028  0.4968  1.8686  1.2302
17097TIP3   OH272705   5.825   6.094   3.488 -0.1239 -0.4133 -0.2269
17097TIP3    H172706   5.841   6.188   3.497  1.2025 -0.6778  0.5168
17097TIP3    H272707   5.793   6.067   3.574 -3.0626 -0.2458 -1.1477
17098TIP3   OH272708   6.657   6.611   4.944 -0.2382 -0.4996  0.0806
17098TIP3    H172709   6.629   6.557   4.870 -0.4235  0.0102 -0.2262
17098TIP3    H272710   6.644   6.701   4.915 -1.4002 -0.2942  1.1507
17099TIP3   OH272711   5.727   2.349   2.621  0.1573  0.5742  0.0186
17099TIP3    H172712   5.634   2.357   2.642  0.2525 -1.7918  1.7761
17099TIP3    H272713   5.748   2.431   2.577 -3.0026  0.7208 -1.5307
17100TIP3   OH272714   3.017   3.830  11.119 -0.1320 -0.2394 -0.0706
17100TIP3    H172715   3.065   3.890  11.062  0.1902 -1.3020 -0.9475
17100TIP3    H272716   2.954   3.886  11.165  2.8240  1.4583  2.2128
17101TIP3   OH272717   0.822   5.523  13.347 -0.3148 -0.6396  0.5393
17101TIP3    H172718   0.819   5.522  13.251 -1.0094 -0.3711  0.5537
17101TIP3    H272719   0.838   5.615  13.370 -1.2648 -0.4965  0.6951
17102TIP3   OH272720   3.299   1.076  15.619 -0.0309 -0.0831 -0.3474
17102TIP3    H172721   3.373   1.133  15.640 -0.3826  0.2101  0.1137
17102TIP3    H272722   3.319   1.044  15.531  0.9929 -0.5657  0.0373
17103TIP3   OH272723   1.063   6.406   0.965  0.5716 -0.3146 -0.0987
17103TIP3    H172724   1.112   6.483   0.993  1.4263 -0.2772 -1.6084
17103TIP3    H272725   0.972   6.426   0.987  0.9356  0.5860  0.6523
17104TIP3   OH272726   3.611   2.603   4.698 -0.3665  0.1811 -0.1111
17104TIP3    H172727   3.648   2.668   4.758 -0.0458 -0.7374  0.7181
17104TIP3    H272728   3.686   2.565   4.654 -0.6351  1.3415 -1.6888
17105TIP3   OH272729   0.251   1.221  16.744  0.1822  0.0689 -0.6205
17105TIP3    H172730   0.165   1.193  16.775 -0.0378  0.2470 -1.0627
17105TIP3    H272731   0.286   1.145  16.698  0.5004 -0.1886  0.0193
17106TIP3   OH272732   1.744   5.188  16.017  0.2171 -0.1016  0.0337
17106TIP3    H172733   1.692   5.198  16.097  0.3609  0.5412  0.0539
17106TIP3    H272734   1.821   5.243  16.033  0.0432  0.3695 -0.7176
17107TIP3   OH272735   4.286   0.463  14.441  0.5478 -0.1333 -0.0263
17107TIP3    H172736   4.242   0.504  14.516 -1.0397 -1.4008 -0.2017
17107TIP3    H272737   4.253   0.511  14.365 -0.5343 -1.0398 -0.1524
17108TIP3   OH272738   4.127   5.180   1.767 -0.5322 -0.3187 -0.0302
17108TIP3    H172739   4.128   5.162   1.673 -0.9969 -0.1098 -0.0794
17108TIP3    H272740   4.115   5.094   1.808  1.1936 -0.6054 -0.0890
17109TIP3   OH272741   3.109   3.522   6.071  0.3109 -0.4342 -0.3704
17109TIP3    H172742   3.028   3.564   6.100  0.3427 -1.0917  0.7655
17109TIP3    H272743   3.082   3.436   6.039  0.4235 -0.1748 -1.1720
17110TIP3   OH272744   2.865   5.733  13.977 -0.3613  0.0655  0.0557
17110TIP3    H172745   2.946   5.719  13.928 -1.3948 -1.7361 -1.3036
17110TIP3    H272746   2.819   5.801  13.928 -0.0863  0.3952  0.2581
17111TIP3   OH272747   2.377   6.476   0.884 -0.6763 -0.4879 -0.2353
17111TIP3    H172748   2.407   6.564   0.907 -2.1150  0.6046 -2.0952
17111TIP3    H272749   2.431   6.451   0.809  0.7823 -1.9381  1.2148
17112TIP3   OH272750   4.686   6.117  11.578  0.3433  0.0337  0.3722
17112TIP3    H172751   4.706   6.027  11.553  0.2480  0.0047  0.3997
17112TIP3    H272752   4.771   6.157  11.596  0.4181  0.0814 -0.0845
17113TIP3   OH272753   0.854   5.276   0.364  0.6243 -0.3140 -0.0154
17113TIP3    H172754   0.849   5.343   0.432 -2.4314  0.1022 -0.4839
17113TIP3    H272755   0.947   5.259   0.353  1.3872  2.2152  1.7185
17114TIP3   OH272756   3.563   6.218   4.199  0.5672  0.5153 -0.3213
17114TIP3    H172757   3.648   6.257   4.217  0.0975  1.0228  0.8827
17114TIP3    H272758   3.581   6.148   4.136  2.1414 -0.5234  1.2122
17115TIP3   OH272759   0.380   0.115   4.568  0.0085 -0.3781 -0.4118
17115TIP3    H172760   0.362   0.028   4.604 -3.5630 -0.0387 -1.0150
17115TIP3    H272761   0.429   0.159   4.637 -1.4044 -1.6894  1.5660
17116TIP3   OH272762   0.801   4.627  15.267 -0.1139 -0.5135 -0.6874
17116TIP3    H172763   0.809   4.663  15.179  0.3048  0.3066 -0.3224
17116TIP3    H272764   0.880   4.654  15.312 -1.7132  1.8948  0.9164
17117TIP3   OH272765   3.331   4.164   5.097 -0.8473  0.2117 -0.3709
17117TIP3    H172766   3.289   4.102   5.037  0.5662 -1.6678  0.5039
17117TIP3    H272767   3.298   4.140   5.183  1.3538 -0.7987  0.2407
17118TIP3   OH272768   6.631   5.219   1.609 -0.1983 -0.2396  0.0133
17118TIP3    H172769   6.548   5.179   1.581 -0.3281  0.7634 -1.0925
17118TIP3    H272770   6.695   5.148   1.602 -0.8919 -0.9418  0.5799
17119TIP3   OH272771   0.842   3.969  12.734 -0.3671  0.8909 -0.0211
17119TIP3    H172772   0.788   4.047  12.726 -0.4488  1.0397  1.6841
17119TIP3    H272773   0.919   3.998  12.783  0.5452  0.3221 -1.0511
17120TIP3   OH272774   2.677   0.691  15.934  0.2725 -0.5095  0.2333
17120TIP3    H172775   2.753   0.662  15.882  0.5663  1.2131 -0.3418
17120TIP3    H272776   2.711   0.762  15.989 -0.7574 -0.2452  0.5543
17121TIP3   OH272777   4.949   6.299   0.148  0.4394 -0.1110  0.2901
17121TIP3    H172778   4.950   6.342   0.062 -0.1352 -1.3420 -0.3621
17121TIP3    H272779   4.856   6.287   0.167  0.4544  1.8150  1.9970
17122TIP3   OH272780   1.495   3.191  11.566  0.0866  0.6221 -0.5733
17122TIP3    H172781   1.536   3.192  11.652 -4.0068 -3.5742  1.9168
17122TIP3    H272782   1.435   3.266  11.567 -0.4596  0.2067  0.6934
17123TIP3   OH272783   4.590   5.413   3.874  0.2600  0.2091 -0.3455
17123TIP3    H172784   4.628   5.327   3.892  0.4818 -0.1101 -2.1596
17123TIP3    H272785   4.662   5.465   3.839 -0.5703  0.1153 -2.2835
17124TIP3   OH272786   1.864   0.159  17.090 -0.6748 -0.7492 -0.0363
17124TIP3    H172787   1.882   0.243  17.132  1.5484 -0.6292 -1.0918
17124TIP3    H272788   1.769   0.158  17.078 -0.9631  0.7873  1.6213
17125TIP3   OH272789   2.791   2.645  11.198  0.1438 -0.2902 -0.8851
17125TIP3    H172790   2.869   2.624  11.249 -1.3308 -0.1239  1.6557
17125TIP3    H272791   2.724   2.585  11.231 -1.7699  2.0987 -0.1156
17126TIP3   OH272792   4.910   2.938  14.170  0.2886 -0.1344  0.1716
17126TIP3    H172793   4.848   2.872  14.138 -0.8597  1.0497 -0.1273
17126TIP3    H272794   4.957   2.894  14.240 -1.1831 -0.9557  0.6917
17127TIP3   OH272795   3.395   6.178   5.385  0.0797 -0.1781  0.3709
17127TIP3    H172796   3.321   6.126   5.413 -0.6854  0.8061  0.2307
17127TIP3    H272797   3.392   6.175   5.289  0.3955 -0.3626  0.3636
17128TIP3   OH272798   4.004   3.679   4.816  0.3774  0.5891  0.2779
17128TIP3    H172799   3.984   3.591   4.849 -0.2669  0.1699 -1.1447
17128TIP3    H272800   4.097   3.692   4.838  0.3720 -0.2667  0.8803
17129TIP3   OH272801   3.260   4.876   5.168 -0.3274 -0.3201 -0.7650
17129TIP3    H172802   3.312   4.954   5.188 -2.0294  0.5105  0.7537
17129TIP3    H272803   3.204   4.903   5.095  0.0528 -0.5973 -1.1634
17130TIP3   OH272804   0.821   0.894   2.777  0.1594  0.6195  0.0530
17130TIP3    H172805   0.890   0.930   2.722  0.1324 -0.7001 -0.9080
17130TIP3    H272806   0.741   0.907   2.727  0.0465 -0.0187  0.0522
17131TIP3   OH272807   2.179   4.941   3.764 -0.4133  0.2952 -0.1773
17131TIP3    H172808   2.225   5.009   3.714 -0.6742  0.3399 -0.3583
17131TIP3    H272809   2.209   4.859   3.726 -0.4346  0.3225 -0.2542
17132TIP3   OH272810   0.830   6.564  11.497  0.3118  0.1013 -0.4588
17132TIP3    H172811   0.879   6.482  11.488  2.4169  1.3229 -0.9087
17132TIP3    H272812   0.852   6.614  11.418 -2.5899  0.3371 -1.2331
17133TIP3   OH272813   3.656   6.608   2.954  0.2418 -0.1919 -0.7802
17133TIP3    H172814   3.628   6.694   2.984  1.2557 -0.6650  1.8481
17133TIP3    H272815   3.752   6.610   2.961  0.2401 -1.8661  0.5612
17134TIP3   OH272816   6.779   3.469  15.386  0.1838  0.1642  0.0574
17134TIP3    H172817   6.719   3.533  15.348  1.3368  1.2259 -0.0554
17134TIP3    H272818   6.735   3.385  15.374 -0.7366  0.7706 -1.0917
17135TIP3   OH272819   3.891   3.768  11.925  0.0175 -0.2212  0.0798
17135TIP3    H172820   3.901   3.863  11.927  2.4284 -0.3968 -0.6651
17135TIP3    H272821   3.980   3.734  11.932 -0.8213 -2.4511  0.6897
17136TIP3   OH272822   3.732   0.855   2.580  0.3919 -0.3575  0.1327
17136TIP3    H172823   3.681   0.811   2.649 -0.2736 -0.0051 -0.1325
17136TIP3    H272824   3.758   0.938   2.619 -1.4146  0.5896 -0.6001
17137TIP3   OH272825   1.549   2.018  14.546 -0.4885  0.7480 -0.8687
17137TIP3    H172826   1.470   1.975  14.580  0.9456 -1.6406 -0.2469
17137TIP3    H272827   1.566   1.974  14.463  2.5354 -2.1947  1.0248
17138TIP3   OH272828   0.152   1.765  14.454 -0.3146  0.3134 -0.7518
17138TIP3    H172829   0.160   1.741  14.361  0.7781  2.5390 -1.3177
17138TIP3    H272830   0.071   1.816  14.458 -0.7286 -0.3714 -0.3261
17139TIP3   OH272831   2.886   4.317  12.436  0.0508 -0.2277 -0.4303
17139TIP3    H172832   2.902   4.325  12.530 -3.0014 -0.5023  0.2361
17139TIP3    H272833   2.866   4.225  12.423 -3.7136  0.4277 -0.4099
17140TIP3   OH272834   6.601   6.698  17.006  0.1305 -0.7476  0.0691
17140TIP3    H172835   6.583   6.775  16.953  0.2550 -0.2827  0.6847
17140TIP3    H272836   6.573   6.722  17.095 -1.3024 -1.9719 -0.0124
17141TIP3   OH272837   3.229   6.299  12.087  0.1206  0.3235 -0.5576
17141TIP3    H172838   3.266   6.346  12.013 -1.0962  0.2975 -1.2069
17141TIP3    H272839   3.212   6.211  12.054  1.2005 -0.2294  0.2815
17142TIP3   OH272840   4.271   2.838   2.631 -0.3003 -0.3298  0.3496
17142TIP3    H172841   4.213   2.824   2.556 -0.3441  0.1901  0.2856
17142TIP3    H272842   4.229   2.909   2.680 -0.3702 -0.7945  0.9675
17143TIP3   OH272843   2.600   1.320   3.820  0.1380 -0.0551 -0.0880
17143TIP3    H172844   2.658   1.375   3.873 -0.1052  0.3887 -0.2742
17143TIP3    H272845   2.574   1.377   3.747  0.3666 -0.6156 -0.6151
17144TIP3   OH272846   4.507   6.721  10.970  0.5516  0.6948  0.5098
17144TIP3    H172847   4.517   6.768  10.888  0.2179  0.1334  0.1438
17144TIP3    H272848   4.413   6.702  10.976  0.7484 -0.3937  0.3825
17145TIP3   OH272849   4.549   5.319  11.540  0.4827 -0.1618  0.2065
17145TIP3    H172850   4.566   5.407  11.505  0.9247 -0.8256 -1.3220
17145TIP3    H272851   4.618   5.305  11.605  1.0596  0.2149 -0.3150
17146TIP3   OH272852   5.504   5.834  15.534  0.3584 -0.3678  0.1327
17146TIP3    H172853   5.579   5.878  15.495 -0.1084 -1.8175 -2.6507
17146TIP3    H272854   5.540   5.753  15.572  0.5519  0.2130  1.2287
17147TIP3   OH272855   5.826   2.288  16.600 -0.4074  0.6558 -0.6963
17147TIP3    H172856   5.818   2.335  16.517  0.2745  0.3208 -0.9555
17147TIP3    H272857   5.775   2.209  16.588  0.2932  0.2498 -1.0696
17148TIP3   OH272858   0.740   3.648  13.733 -0.3764  0.0750 -0.8445
17148TIP3    H172859   0.666   3.587  13.731  0.1009 -0.5589  0.1104
17148TIP3    H272860   0.770   3.647  13.824  0.5990  0.5629 -1.1443
17149TIP3   OH272861   2.877   2.632  13.074 -0.0589  0.2495 -0.5335
17149TIP3    H172862   2.873   2.725  13.051 -1.0114  0.2427 -0.4428
17149TIP3    H272863   2.798   2.617  13.125 -0.3337 -0.7910 -1.2486
17150TIP3   OH272864   4.156   1.437   2.608  0.3985 -0.1876 -0.1868
17150TIP3    H172865   4.094   1.370   2.638 -1.5635  1.3023 -0.7277
17150TIP3    H272866   4.171   1.417   2.516  1.0323 -0.7577  0.0326
17151TIP3   OH272867   6.426   2.215   4.732 -0.2543  0.5725 -0.3112
17151TIP3    H172868   6.355   2.179   4.680 -0.4840 -1.3598  1.2296
17151TIP3    H272869   6.495   2.148   4.729  1.0937  1.9219 -0.8738
17152TIP3   OH272870   2.702   3.789   4.604 -0.0078  0.3526 -0.4085
17152TIP3    H172871   2.761   3.715   4.620 -0.1353  0.2074 -0.6013
17152TIP3    H272872   2.760   3.862   4.582  0.2555  0.8529  1.7056
17153TIP3   OH272873   0.840   0.775   0.988  0.4001  0.6683 -0.5327
17153TIP3    H172874   0.914   0.715   0.981 -0.8188 -0.9415 -0.1274
17153TIP3    H272875   0.775   0.728   1.039 -0.9104  2.0500 -0.8514
17154TIP3   OH272876   1.930   4.683  13.333  0.4192 -0.3065 -0.5117
17154TIP3    H172877   1.965   4.769  13.359  1.7768 -0.5226 -1.5495
17154TIP3    H272878   1.837   4.699  13.319  0.9225  1.4435 -2.3827
17155TIP3   OH272879   3.197   3.305  10.950 -0.2823  0.2150  0.2290
17155TIP3    H172880   3.286   3.294  10.983 -0.1112  1.0338  0.0716
17155TIP3    H272881   3.182   3.400  10.954 -0.3290  0.3473 -1.7837
17156TIP3   OH272882   5.272   6.001   1.724  0.2406  0.5260  0.4614
17156TIP3    H172883   5.354   5.983   1.771 -0.3348 -1.3010  0.8904
17156TIP3    H272884   5.207   5.949   1.772 -0.7188  0.0700 -1.2729
17157TIP3   OH272885   2.022   5.699   3.667 -0.1943 -0.6933  0.0346
17157TIP3    H172886   2.068   5.757   3.607  1.2205 -2.4620 -0.7142
17157TIP3    H272887   2.085   5.682   3.737 -1.2747  0.1373  1.2564
17158TIP3   OH272888   1.482   3.900  15.872  0.9427 -0.1105 -0.0078
17158TIP3    H172889   1.558   3.862  15.829 -0.1911 -2.0545 -0.4262
17158TIP3    H272890   1.501   3.892  15.966  0.6992 -1.9181 -0.0744
17159TIP3   OH272891   3.561   6.540  11.228  0.3143 -0.6622 -0.1817
17159TIP3    H172892   3.644   6.497  11.250  0.7147 -0.2431 -0.8014
17159TIP3    H272893   3.519   6.556  11.312  2.5401  2.4317  0.5034
17160TIP3   OH272894   1.454   0.413  13.307 -0.0465 -0.1024  0.1071
17160TIP3    H172895   1.369   0.376  13.285 -0.3268 -0.1840  1.2628
17160TIP3    H272896   1.464   0.397  13.401  1.9139 -1.4606 -0.2630
17161TIP3   OH272897   4.747   2.418  13.525 -0.3193 -0.0827  0.3367
17161TIP3    H172898   4.724   2.386  13.438  1.5901  1.4572 -0.8240
17161TIP3    H272899   4.759   2.513  13.513 -1.5543  0.4612  2.6582
17162TIP3   OH272900   1.411   1.903  11.245  0.1702  0.3006  0.0039
17162TIP3    H172901   1.448   1.931  11.328 -2.6280  1.3192  1.0183
17162TIP3    H272902   1.440   1.969  11.182  2.4542 -0.5755  0.0380
17163TIP3   OH272903   5.015   4.701  11.055  0.4708 -0.0415  0.1350
17163TIP3    H172904   5.059   4.628  11.100  0.6429 -0.8489 -1.2670
17163TIP3    H272905   4.971   4.659  10.980 -0.0395  1.2038 -0.2807
17164TIP3   OH272906   1.825   2.667   3.928 -0.5376 -0.2660  0.4456
17164TIP3    H172907   1.886   2.594   3.938 -1.1030 -0.7370  0.5358
17164TIP3    H272908   1.761   2.655   3.998 -2.6214 -1.6820 -1.5231
17165TIP3   OH272909   0.693   0.629   1.167 -0.0314  0.0985 -0.1204
17165TIP3    H172910   0.604   0.664   1.173  0.0748  0.3927 -0.2361
17165TIP3    H272911   0.724   0.626   1.257  0.3373  1.2948 -0.1910
17166TIP3   OH272912   6.622   4.776  16.033 -0.7263  0.3644  0.0625
17166TIP3    H172913   6.592   4.782  15.943 -0.7998  0.2142  0.0780
17166TIP3    H272914   6.573   4.703  16.071  0.8075 -0.9385 -0.3602
17167TIP3   OH272915   5.745   0.271   1.849 -0.0991  0.1520 -0.4464
17167TIP3    H172916   5.657   0.238   1.867 -0.4136  1.4257  0.5150
17167TIP3    H272917   5.804   0.202   1.878 -0.7523 -0.0610  0.3788
17168TIP3   OH272918   2.223   3.812  13.477  0.6547  0.1408 -0.1555
17168TIP3    H172919   2.278   3.740  13.445 -0.3096 -0.9108  0.4728
17168TIP3    H272920   2.233   3.809  13.572 -0.4661 -0.0760 -0.0280
17169TIP3   OH272921   3.756   2.633  16.767 -0.0530  0.0456  0.3490
17169TIP3    H172922   3.843   2.668  16.782  0.3995  0.2454 -2.1852
17169TIP3    H272923   3.696   2.703  16.793  0.5570  0.1842  1.4165
17170TIP3   OH272924   2.883   4.429   0.192  0.2119  0.2773  0.3499
17170TIP3    H172925   2.855   4.377   0.267 -1.1645  0.5483  0.0535
17170TIP3    H272926   2.966   4.389   0.165 -0.5912 -1.5268  0.3816
17171TIP3   OH272927   1.714   2.265  13.696 -0.4025 -0.0423  0.1100
17171TIP3    H172928   1.802   2.250  13.664 -0.8312 -0.6704 -0.8115
17171TIP3    H272929   1.674   2.178  13.700 -0.5046  0.0319  2.0208
17172TIP3   OH272930   1.191   5.188   2.142  0.1017  0.1089  0.3641
17172TIP3    H172931   1.158   5.200   2.053 -1.4892 -1.0289  0.7494
17172TIP3    H272932   1.269   5.244   2.147  0.0569  0.4178 -1.6304
17173TIP3   OH272933   2.400   1.226  11.461  0.1607 -0.0109 -0.4678
17173TIP3    H172934   2.318   1.195  11.421  0.6654 -1.4552 -0.4540
17173TIP3    H272935   2.372   1.280  11.535 -0.7737  0.8477 -1.4234
17174TIP3   OH272936   1.519   2.124  11.758  0.4623 -0.0378 -0.6319
17174TIP3    H172937   1.453   2.079  11.705  0.5070 -1.9480  0.8717
17174TIP3    H272938   1.473   2.150  11.838  1.2105 -0.1821 -0.1466
17175TIP3   OH272939   4.258   5.173   3.024 -0.2061 -0.2747  0.2376
17175TIP3    H172940   4.249   5.113   3.099 -0.6661 -0.8447 -0.2646
17175TIP3    H272941   4.172   5.173   2.983 -0.9239  2.4931  1.4937
17176TIP3   OH272942   5.528   5.720   3.714  1.2832  0.3181 -0.5610
17176TIP3    H172943   5.592   5.694   3.780  1.4305  0.7021 -0.5496
17176TIP3    H272944   5.445   5.724   3.760  1.3452  0.3549 -0.4531
17177TIP3   OH272945   1.468   3.103   1.206 -0.3306  0.0074 -0.1811
17177TIP3    H172946   1.466   3.102   1.110 -1.5792 -0.6531 -0.1704
17177TIP3    H272947   1.480   3.195   1.229  0.6313  0.0929 -0.9714
17178TIP3   OH272948   1.124   3.615  16.931  0.8086 -0.2919  0.2838
17178TIP3    H172949   1.033   3.612  16.959  0.0935  0.4434 -1.7877
17178TIP3    H272950   1.165   3.677  16.992 -0.8838  1.9738 -0.7545
17179TIP3   OH272951   2.296   5.810  11.459 -0.4323  0.5435  0.1742
17179TIP3    H172952   2.335   5.747  11.520  1.9568  1.1593 -0.5907
17179TIP3    H272953   2.203   5.789  11.458  0.2088 -2.8441  0.1488
17180TIP3   OH272954   4.298   3.114   6.047  0.0175  0.3790 -0.0796
17180TIP3    H172955   4.353   3.068   6.110 -2.2050 -0.2254  1.5443
17180TIP3    H272956   4.337   3.201   6.039  1.8793 -0.3994  0.0179
17181TIP3   OH272957   2.520   6.109   2.275  0.5828 -0.1751  0.2772
17181TIP3    H172958   2.505   6.199   2.304  0.1644 -0.0316 -0.3493
17181TIP3    H272959   2.442   6.087   2.223  0.6313 -0.9343  0.5015
17182TIP3   OH272960   1.186   3.618   0.019  0.3735  0.5048 -1.0796
17182TIP3    H172961   1.217   3.537   0.059 -0.1168 -0.3558 -2.3711
17182TIP3    H272962   1.103   3.637   0.063  0.6277  0.4551 -0.5818
17183TIP3   OH272963   6.652   0.228   1.897 -0.0887 -0.1450  0.2756
17183TIP3    H172964   6.616   0.301   1.847  0.2671 -0.7565 -0.8872
17183TIP3    H272965   6.741   0.217   1.864 -0.0873 -1.0144  0.5508
17184TIP3   OH272966   4.084   3.357   4.192 -0.1603  0.1417  0.4078
17184TIP3    H172967   3.991   3.357   4.170 -0.2317  0.8441  0.6938
17184TIP3    H272968   4.105   3.265   4.209 -0.1102 -0.4746 -2.4830
17185TIP3   OH272969   3.573   0.621  10.628  0.0034  0.4150  0.5562
17185TIP3    H172970   3.664   0.606  10.656  0.2684  1.0877  0.0754
17185TIP3    H272971   3.580   0.687  10.559 -0.8201  0.1732  0.2377
17186TIP3   OH272972   5.063   0.441   5.814 -0.1998  0.0599 -0.3490
17186TIP3    H172973   5.011   0.520   5.799 -0.2745  0.1177  0.1953
17186TIP3    H272974   5.100   0.453   5.902 -2.5523 -1.7940  1.0405
17187TIP3   OH272975   2.246   0.029  13.353  0.1394 -0.2295  0.0416
17187TIP3    H172976   2.241   0.066  13.265 -0.0299  0.5824  0.3816
17187TIP3    H272977   2.332   0.057  13.385 -0.7727  1.6115  1.0369
17188TIP3   OH272978   4.645   0.234   3.813  0.8496 -0.0680  0.0824
17188TIP3    H172979   4.559   0.207   3.846 -0.2075  1.6413 -1.1306
17188TIP3    H272980   4.630   0.255   3.721  2.8302 -0.7317 -0.4462
17189TIP3   OH272981   4.978   2.600   0.625  0.2833  0.4594 -0.2110
17189TIP3    H172982   4.958   2.525   0.682  0.6927  0.4611 -0.0619
17189TIP3    H272983   5.019   2.560   0.548  2.2804  0.6461  0.6795
17190TIP3   OH272984   2.581   0.754   1.919  0.0234  0.2101  0.6300
17190TIP3    H172985   2.579   0.841   1.879 -0.3509 -0.2462 -0.3820
17190TIP3    H272986   2.656   0.756   1.978 -0.5153  1.5132  1.3243
17191TIP3   OH272987   6.760   3.097  11.516  0.1477 -0.4432 -0.4572
17191TIP3    H172988   6.806   3.020  11.549  0.0195 -0.8120 -1.1305
17191TIP3    H272989   6.771   3.093  11.421 -1.0337 -0.3766 -0.6095
17192TIP3   OH272990   0.128   2.130  14.778  0.1913 -0.0227  0.1754
17192TIP3    H172991   0.111   2.162  14.867  2.7450  1.1044  0.3439
17192TIP3    H272992   0.097   2.200  14.721 -3.7153 -1.7436 -0.0872
17193TIP3   OH272993   2.163   2.132   0.100  0.2097  0.3588  0.5392
17193TIP3    H172994   2.239   2.089   0.063 -0.5208 -0.8148  0.3696
17193TIP3    H272995   2.126   2.182   0.027 -0.9273 -1.5341 -0.2523
17194TIP3   OH272996   3.818   6.723  13.241 -0.2531  0.3436 -0.0435
17194TIP3    H172997   3.890   6.781  13.215  0.8276 -0.2390  1.4809
17194TIP3    H272998   3.834   6.642  13.192  2.1100 -0.9588  2.5987
17195TIP3   OH272999   5.760   0.533  16.123 -0.2058 -0.5103  0.4771
17195TIP3    H173000   5.820   0.535  16.198  1.4476  0.6506 -0.8121
17195TIP3    H273001   5.758   0.622  16.091  0.3223 -1.2594 -1.7750
17196TIP3   OH273002   4.502   2.113   1.415  0.0015 -0.3692 -0.4423
17196TIP3    H173003   4.581   2.058   1.409 -1.2320 -2.3581  0.6149
17196TIP3    H273004   4.501   2.161   1.332  1.5822 -1.3408 -1.0751
17197TIP3   OH273005   1.549   3.043  15.169 -0.1369 -0.7405  0.0726
17197TIP3    H173006   1.506   3.061  15.085  1.9345 -0.6717 -1.0438
17197TIP3    H273007   1.642   3.052  15.150  0.3964 -0.8755  2.3745
17198TIP3   OH273008   3.551   0.428   2.873  0.2015  0.3443 -0.0306
17198TIP3    H173009   3.631   0.375   2.872 -1.1320 -1.8143 -0.3523
17198TIP3    H273010   3.562   0.489   2.800  2.2399  1.3063  0.9848
17199TIP3   OH273011   5.825   0.301  16.385 -0.0992 -0.3807  0.4336
17199TIP3    H173012   5.896   0.243  16.356 -0.2111  0.4991 -1.7390
17199TIP3    H273013   5.746   0.263  16.348 -0.6839 -0.7655  1.9805
17200TIP3   OH273014   4.396   1.100  15.899  0.5933  0.2326  0.0614
17200TIP3    H173015   4.347   1.085  15.980  1.0351  0.0796  0.3024
17200TIP3    H273016   4.461   1.166  15.922  0.6474  0.2716 -0.1997
17201TIP3   OH273017   6.462   2.084   0.053  0.3761  0.0454  0.6930
17201TIP3    H173018   6.519   2.007   0.061  0.9482  0.5202  1.3267
17201TIP3    H273019   6.516   2.157   0.084  0.8735  1.2223 -2.5554
17202TIP3   OH273020   4.632   1.285  15.445  0.1702 -0.3695 -0.1082
17202TIP3    H173021   4.591   1.342  15.381 -0.9079 -2.3455 -1.2782
17202TIP3    H273022   4.592   1.311  15.529  0.2795  1.0547 -0.4695
17203TIP3   OH273023   5.274   3.456  12.681 -0.3638  0.0596  0.0890
17203TIP3    H173024   5.363   3.459  12.646 -0.7695  0.6460 -0.9346
17203TIP3    H273025   5.258   3.544  12.715 -0.8505  0.2375 -0.5541
17204TIP3   OH273026   4.328   5.497   5.773  0.1429 -0.5169  0.2357
17204TIP3    H173027   4.288   5.439   5.708 -1.8090  0.4734  0.4840
17204TIP3    H273028   4.293   5.466   5.857 -0.1993  0.4514  0.4576
17205TIP3   OH273029   5.819   2.880  13.497  0.4133 -0.4740 -0.4859
17205TIP3    H173030   5.819   2.831  13.415 -1.2577 -2.7330  0.7409
17205TIP3    H273031   5.909   2.874  13.528  0.6925 -1.0126 -1.3557
17206TIP3   OH273032   6.681   5.418  14.595 -0.2970  0.0518  0.2016
17206TIP3    H173033   6.658   5.342  14.541 -0.9472 -0.3746  1.0652
17206TIP3    H273034   6.775   5.408  14.610 -0.1616  0.0165 -0.5917
17207TIP3   OH273035   5.114   4.818  17.091 -0.2920 -0.0624 -0.2173
17207TIP3    H173036   5.089   4.774  17.172 -1.0105  0.0632 -0.3658
17207TIP3    H273037   5.074   4.905  17.098 -0.0742  0.0640 -0.5565
17208TIP3   OH273038   4.057   6.044   6.842 -0.1255  0.1678  0.4531
17208TIP3    H173039   4.135   6.003   6.880  0.1046  1.9364  2.0378
17208TIP3    H273040   4.087   6.129   6.810 -1.5944  1.4640  2.3025
17209TIP3   OH273041   5.298   4.794   2.852  0.3334  0.0700 -0.4084
17209TIP3    H173042   5.316   4.822   2.762 -0.2037 -0.6393 -0.7439
17209TIP3    H273043   5.255   4.869   2.892  2.1784  1.0770 -0.1783
17210TIP3   OH273044   2.526   3.149  11.947 -0.5862 -0.4929  0.4723
17210TIP3    H173045   2.577   3.095  12.007 -2.0487 -0.9219  1.3817
17210TIP3    H273046   2.548   3.117  11.860 -0.7075 -1.9337  0.9509
17211TIP3   OH273047   3.807   3.997  16.035  0.2040 -0.0288  0.2578
17211TIP3    H173048   3.865   3.978  16.109 -0.4197 -0.4296  0.6479
17211TIP3    H273049   3.732   3.939  16.047 -0.6065  0.9568  0.1287
17212TIP3   OH273050   5.671   5.525  14.113  0.1599 -0.0579 -0.2090
17212TIP3    H173051   5.670   5.620  14.101  2.2995  0.3391  1.9652
17212TIP3    H273052   5.745   5.496  14.060  0.6342 -0.2479  0.5525
17213TIP3   OH273053   2.739   3.402   2.508  0.5742 -0.0309 -0.2421
17213TIP3    H173054   2.777   3.462   2.572  0.1660  1.2148 -1.1257
17213TIP3    H273055   2.782   3.318   2.525  1.8596  0.7313  0.4225
17214TIP3   OH273056   1.257   6.479   0.737  0.2283  0.0983 -0.2760
17214TIP3    H173057   1.297   6.565   0.730  0.3945 -0.0852 -1.8304
17214TIP3    H273058   1.178   6.493   0.791  0.2788  1.1928 -0.4719
17215TIP3   OH273059   3.164   1.278   4.139 -0.4821  0.5636  0.0733
17215TIP3    H173060   3.155   1.274   4.234 -0.3327  1.3706  0.1303
17215TIP3    H273061   3.249   1.236   4.121 -0.6555  0.1300  0.2616
17216TIP3   OH273062   0.906   3.296   4.124  0.4142  0.6879 -0.3755
17216TIP3    H173063   0.842   3.305   4.195  0.9622 -1.6201  0.5001
17216TIP3    H273064   0.974   3.239   4.160  1.0367 -0.0370 -2.5637
17217TIP3   OH273065   1.330   0.117  12.255 -0.8197  0.6720 -0.1432
17217TIP3    H173066   1.407   0.148  12.208 -0.9708  0.8572 -0.2687
17217TIP3    H273067   1.269   0.090  12.186 -0.2781 -0.9431 -0.0357
17218TIP3   OH273068   5.181   6.523   5.579 -0.2454  0.3648 -0.0984
17218TIP3    H173069   5.161   6.575   5.501  1.4612  2.3465  0.7070
17218TIP3    H273070   5.219   6.442   5.545  0.0635  1.0038 -1.3284
17219TIP3   OH273071   1.966   2.058  14.429 -0.0701  0.0566 -0.1521
17219TIP3    H173072   2.059   2.075  14.445 -0.1247 -0.6262  1.0216
17219TIP3    H273073   1.963   2.026  14.339  0.7487  0.6619 -0.4061
17220TIP3   OH273074   5.489   1.413  12.589 -0.3712  0.0398  0.7069
17220TIP3    H173075   5.582   1.407  12.566 -0.9255 -1.6563 -1.4574
17220TIP3    H273076   5.457   1.323  12.580 -2.3567  0.7085  0.7333
17221TIP3   OH273077   3.747   1.500  12.344 -0.1289 -0.2221  0.2953
17221TIP3    H173078   3.719   1.583  12.381  0.7146  0.1137  0.2078
17221TIP3    H273079   3.841   1.511  12.329 -0.7458  0.5459 -4.2129
17222TIP3   OH273080   3.884   5.695  15.517 -0.0493 -0.2314  0.9559
17222TIP3    H173081   3.930   5.748  15.452 -1.0412  0.1229  0.5283
17222TIP3    H273082   3.934   5.706  15.597  0.2982  0.5805  0.6354
17223TIP3   OH273083   1.101   1.639  14.263  0.3569 -0.0587 -0.4047
17223TIP3    H173084   1.114   1.602  14.176  1.5467  0.6857 -0.5693
17223TIP3    H273085   1.028   1.699  14.253  0.7004  0.2733 -0.9851
17224TIP3   OH273086   1.127   5.627   1.533 -0.4388  0.3222 -0.2344
17224TIP3    H173087   1.212   5.655   1.497 -0.4001 -3.2612 -3.5919
17224TIP3    H273088   1.149   5.567   1.604 -0.3723  2.0806  1.3123
17225TIP3   OH273089   0.075   4.299  13.245  0.0457 -0.3237  0.4651
17225TIP3    H173090   0.153   4.249  13.222 -0.8591 -1.1834 -0.8779
17225TIP3    H273091   0.024   4.304  13.164 -1.3651  0.0985  1.3350
17226TIP3   OH273092   3.342   0.676  15.548  0.2197  0.1618  0.5511
17226TIP3    H173093   3.335   0.589  15.588 -2.0320 -0.3166 -0.6908
17226TIP3    H273094   3.283   0.672  15.473  1.6574  2.1378 -0.7696
17227TIP3   OH273095   1.182   2.050  16.998  0.1589  0.1025 -0.1254
17227TIP3    H173096   1.194   2.108  17.073  1.2991 -0.3202  0.0471
17227TIP3    H273097   1.248   2.080  16.935  1.3082 -1.4552  0.2767
17228TIP3   OH273098   2.990   2.403   2.342 -0.1474  0.0163  0.0655
17228TIP3    H173099   3.010   2.315   2.375 -1.8007 -0.0918  0.8863
17228TIP3    H273100   2.934   2.442   2.410 -1.6404  0.7158 -1.4980
17229TIP3   OH273101   1.632   0.393  15.374  0.0008 -0.3653  0.2831
17229TIP3    H173102   1.672   0.432  15.296  1.3660 -0.7739  0.7610
17229TIP3    H273103   1.705   0.360  15.425 -0.8225  0.3609  2.0246
17230TIP3   OH273104   2.619   0.442  16.035 -0.3889 -0.4087  0.2412
17230TIP3    H173105   2.614   0.535  16.014 -0.7443 -0.0809  1.6562
17230TIP3    H273106   2.641   0.439  16.128  3.6948 -1.7780 -0.5483
17231TIP3   OH273107   5.834   0.998   3.341 -0.8354  0.2418  0.7657
17231TIP3    H173108   5.857   1.089   3.320 -0.1390 -0.2881 -0.9248
17231TIP3    H273109   5.750   0.984   3.297 -0.2343 -0.3461 -0.2327
17232TIP3   OH273110   3.373   2.312   2.815  0.7121 -0.0408  0.9439
17232TIP3    H173111   3.447   2.368   2.838 -0.2091  0.7709  2.0251
17232TIP3    H273112   3.322   2.363   2.752 -1.1544  1.2346  3.3457
17233TIP3   OH273113   6.075   5.842  15.972  1.1300  0.2095  0.0934
17233TIP3    H173114   6.052   5.912  16.033  0.4407 -0.0059  0.0822
17233TIP3    H273115   6.156   5.873  15.931 -0.1001  1.8772 -1.2374
17234TIP3   OH273116   3.771   0.443  13.709  0.0839 -0.3226  0.0803
17234TIP3    H173117   3.766   0.372  13.773  0.0447  0.2451  0.7158
17234TIP3    H273118   3.821   0.406  13.636  0.0498 -1.0051  0.3945
17235TIP3   OH273119   0.900   5.927   1.884 -0.3093 -0.5805 -0.2749
17235TIP3    H173120   0.894   5.895   1.793  0.4325 -0.5626 -0.3386
17235TIP3    H273121   0.932   5.851   1.933 -0.1879 -0.4278 -0.1210
17236TIP3   OH273122   3.805   6.326  16.914  0.4442  0.0467 -0.0942
17236TIP3    H173123   3.871   6.394  16.904 -0.2459  0.5243 -1.7448
17236TIP3    H273124   3.802   6.282  16.830 -0.5138 -0.7271  0.3224
17237TIP3   OH273125   0.941   6.360  15.056  0.3786 -0.3340 -0.2531
17237TIP3    H173126   0.871   6.306  15.094 -2.5211  1.8564 -2.0251
17237TIP3    H273127   0.953   6.325  14.968  2.7701 -1.6497  0.5055
17238TIP3   OH273128   5.904   6.062   0.964 -0.1273  0.3386  0.0897
17238TIP3    H173129   5.863   6.148   0.960  2.2784  1.6122  0.9410
17238TIP3    H273130   5.897   6.036   1.056  0.1482  0.1536  0.0619
17239TIP3   OH273131   5.374   3.247   4.488 -0.2924  0.2216  0.0176
17239TIP3    H173132   5.427   3.311   4.440  0.4496 -0.6700 -0.4087
17239TIP3    H273133   5.377   3.276   4.579 -1.2568  1.6318 -0.3626
17240TIP3   OH273134   5.861   5.076  16.125  0.1031  0.2211 -0.1164
17240TIP3    H173135   5.875   5.133  16.201  1.1984  0.6136 -0.5817
17240TIP3    H273136   5.881   4.988  16.156 -1.1762  0.1210  0.4945
17241TIP3   OH273137   5.134   0.585   1.691 -0.3182  0.4027  0.3984
17241TIP3    H173138   5.140   0.623   1.778  1.8444  1.3009 -0.0967
17241TIP3    H273139   5.224   0.569   1.665 -0.8798  0.5913 -1.8639
17242TIP3   OH273140   1.521   5.988  12.384 -0.2762 -0.2711 -0.2635
17242TIP3    H173141   1.490   5.971  12.473 -0.4279 -0.1501 -0.2953
17242TIP3    H273142   1.466   5.934  12.328  1.2708 -2.1405 -0.1079
17243TIP3   OH273143   6.478   3.036   2.551 -0.1708 -0.0961 -0.0800
17243TIP3    H173144   6.523   3.119   2.539  0.9716 -0.8708 -1.4450
17243TIP3    H273145   6.394   3.060   2.591  0.0308  1.7253 -0.6400
17244TIP3   OH273146   4.901   6.190   6.762  0.4260  0.5107 -0.0534
17244TIP3    H173147   4.927   6.273   6.721  2.1334  0.2356  0.3895
17244TIP3    H273148   4.932   6.123   6.701  3.0233  0.0941  1.5647
17245TIP3   OH273149   0.904   6.707  16.223 -0.1339  0.4406  0.6420
17245TIP3    H173150   0.941   6.791  16.194 -3.2018  2.0175  0.8764
17245TIP3    H273151   0.905   6.653  16.144  0.4617  1.2398  0.0729
17246TIP3   OH273152   2.512   2.225  14.880  0.2516  0.7996 -0.2606
17246TIP3    H173153   2.568   2.157  14.841  1.8014  1.9166 -0.0951
17246TIP3    H273154   2.468   2.180  14.952  0.7157 -0.2017 -0.5717
17247TIP3   OH273155   4.480   2.960   0.388 -0.0803 -0.0348  0.4510
17247TIP3    H173156   4.495   2.979   0.481 -0.7289  0.3587  0.4814
17247TIP3    H273157   4.451   3.043   0.351  0.4572 -0.1174 -0.1697
17248TIP3   OH273158   1.090   5.086   3.016  0.7945 -0.3600  0.4858
17248TIP3    H173159   1.106   5.004   2.968 -2.1821  0.2080 -1.8181
17248TIP3    H273160   1.021   5.064   3.079  1.3042 -0.0073  1.1835
17249TIP3   OH273161   0.563   1.537  11.860 -0.1226  0.3387 -0.2960
17249TIP3    H173162   0.640   1.588  11.835 -0.3847  0.2535 -1.3181
17249TIP3    H273163   0.527   1.506  11.777 -1.0020  0.0003  0.2003
17250TIP3   OH273164   3.038   5.567   2.423  0.0319  0.1530 -0.4623
17250TIP3    H173165   2.970   5.506   2.395 -0.6236  0.4346  0.4430
17250TIP3    H273166   3.120   5.522   2.405 -0.4000 -0.2547 -1.4401
17251TIP3   OH273167   2.841   4.147  10.505 -0.5073  0.2522  0.6204
17251TIP3    H173168   2.751   4.114  10.500 -0.6819  0.5059  1.8716
17251TIP3    H273169   2.888   4.097  10.439 -1.6300  0.3382 -0.2795
17252TIP3   OH273170   5.960   5.902  14.110  0.2663 -0.8975  0.7649
17252TIP3    H173171   5.970   5.953  14.190 -1.4403  0.2162  0.3331
17252TIP3    H273172   5.894   5.836  14.132 -0.4383 -0.3879  0.2029
17253TIP3   OH273173   1.918   6.525   3.009 -0.1846 -0.2730 -0.3064
17253TIP3    H173174   1.875   6.476   2.939  1.0648 -1.2228 -0.4623
17253TIP3    H273175   2.012   6.519   2.988  0.1325  0.4355  0.8055
17254TIP3   OH273176   0.271   6.308  16.842  0.3595  0.1670 -0.0429
17254TIP3    H173177   0.325   6.250  16.789 -1.8696 -1.5209 -0.6187
17254TIP3    H273178   0.305   6.396  16.824  2.3258 -0.7130 -0.9741
17255TIP3   OH273179   1.372   2.185  11.989  0.0445 -0.3126 -0.0667
17255TIP3    H173180   1.342   2.267  12.027 -2.2275 -0.6542 -0.9947
17255TIP3    H273181   1.360   2.119  12.058  0.6246 -0.1185  0.2301
17256TIP3   OH273182   5.518   3.737  16.521 -0.2669 -0.2365  0.6417
17256TIP3    H173183   5.521   3.818  16.470 -0.4230 -1.4758 -1.4838
17256TIP3    H273184   5.427   3.730  16.550 -0.9196 -0.8243 -1.3386
17257TIP3   OH273185   0.141   4.102  12.395 -0.4898  0.7407 -0.5062
17257TIP3    H173186   0.221   4.099  12.447 -0.9950  1.5930  0.3553
17257TIP3    H273187   0.146   4.025  12.338  0.6801  0.4915 -0.0897
17258TIP3   OH273188   6.313   3.125  15.811  0.0760  0.0801  0.2768
17258TIP3    H173189   6.276   3.112  15.724 -0.4901  2.0083  0.1902
17258TIP3    H273190   6.401   3.158  15.795 -0.4272  1.5401  0.3869
17259TIP3   OH273191   4.606   2.508   1.358 -0.5795  0.1566 -0.6084
17259TIP3    H173192   4.617   2.437   1.420  0.8696 -0.8453 -1.9377
17259TIP3    H273193   4.530   2.557   1.390  0.3709 -0.0395  2.1618
17260TIP3   OH273194   3.402   6.556  12.706  0.0590  0.5991 -0.4832
17260TIP3    H173195   3.347   6.490  12.746  0.3362  1.2463  1.0258
17260TIP3    H273196   3.365   6.568  12.618  0.0098 -1.5129 -0.7989
17261TIP3   OH273197   3.192   1.767  11.963 -0.8914 -0.0240  0.3361
17261TIP3    H173198   3.234   1.842  12.007 -1.3542 -0.3995  1.4527
17261TIP3    H273199   3.106   1.761  12.004 -0.7731 -1.3140  0.4321
17262TIP3   OH273200   3.985   2.762  13.591 -0.0723 -0.5652 -0.2423
17262TIP3    H173201   4.019   2.746  13.503 -2.2082 -0.0660 -1.2140
17262TIP3    H273202   3.909   2.818  13.578  0.2527  0.5366  2.0505
17263TIP3   OH273203   5.450   4.487   5.055 -0.2134  0.0168 -0.1281
17263TIP3    H173204   5.457   4.414   4.994 -0.1770  0.9241 -1.2222
17263TIP3    H273205   5.407   4.556   5.006 -0.4580  0.6700  0.9696
17264TIP3   OH273206   3.334   5.879  17.183  0.4499  0.0802 -0.2544
17264TIP3    H173207   3.355   5.810  17.245  0.2821  1.2812  1.2019
17264TIP3    H273208   3.417   5.922  17.165  0.5718 -0.5286 -1.2386
17265TIP3   OH273209   0.602   0.711  11.182 -0.3421  0.6613 -0.1526
17265TIP3    H173210   0.579   0.797  11.147  1.3430 -0.0874 -3.5250
17265TIP3    H273211   0.650   0.668  11.111  2.7620 -1.4426  2.8467
17266TIP3   OH273212   3.604   1.260   4.544  0.4541  0.5970  0.0771
17266TIP3    H173213   3.619   1.169   4.518  1.9181  0.5702  0.8749
17266TIP3    H273214   3.617   1.310   4.463  1.4946  0.2318 -0.0080
17267TIP3   OH273215   4.878   0.955  12.162 -0.4982  0.2275  0.1597
17267TIP3    H173216   4.825   0.922  12.235 -1.7171 -0.8027 -1.1535
17267TIP3    H273217   4.936   0.883  12.139  1.5400  1.3196  1.5344
17268TIP3   OH273218   0.877   1.364   1.682  0.0506  0.0701  0.2521
17268TIP3    H173219   0.947   1.429   1.673  0.3693 -0.4807 -1.6800
17268TIP3    H273220   0.814   1.405   1.741  1.5416  0.9519  1.3267
17269TIP3   OH273221   4.795   3.968  10.592  0.7245  0.9295  0.0906
17269TIP3    H173222   4.719   4.016  10.561  0.0715 -1.2362 -1.9949
17269TIP3    H273223   4.849   3.955  10.514  1.0831 -1.2343  0.6244
17270TIP3   OH273224   1.098   5.630  10.862  0.1434  0.5151 -0.0037
17270TIP3    H173225   1.124   5.579  10.938  0.6437  0.4005 -0.2503
17270TIP3    H273226   1.122   5.720  10.883  0.3157  0.4779 -0.0375
17271TIP3   OH273227   5.920   4.916  15.442  0.2193 -0.0609 -0.0633
17271TIP3    H173228   5.864   4.862  15.498 -0.7184  0.3486 -0.5896
17271TIP3    H273229   5.961   4.853  15.382  0.2407 -0.3505  0.2497
17272TIP3   OH273230   2.431   1.637   4.703  0.1395  0.3851 -0.1386
17272TIP3    H173231   2.442   1.707   4.639  0.3215  0.2569 -0.2486
17272TIP3    H273232   2.380   1.676   4.773  1.9213  1.2661  0.7530
17273TIP3   OH273233   5.276   2.166   0.032  0.2887 -0.4349  0.2444
17273TIP3    H173234   5.363   2.147  -0.004  0.5630 -0.2633  0.7935
17273TIP3    H273235   5.246   2.242  -0.018  1.0442  0.3543  0.9477
17274TIP3   OH273236   4.971   0.185   3.517  0.4073  0.0205 -0.6838
17274TIP3    H173237   4.920   0.260   3.547  2.1042  0.8266  0.3691
17274TIP3    H273238   5.001   0.142   3.598  1.6322 -0.2295 -1.2436
17275TIP3   OH273239   1.315   5.463   3.590 -0.4283  0.0820  0.5432
17275TIP3    H173240   1.307   5.545   3.639 -1.6684  1.0575 -1.1680
17275TIP3    H273241   1.246   5.407   3.626 -1.3182  0.7802 -0.0321
17276TIP3   OH273242   4.079   6.135   5.873 -0.1805 -0.2239  0.6625
17276TIP3    H173243   4.103   6.168   5.960 -1.5027  0.9470  0.6022
17276TIP3    H273244   4.030   6.055   5.892  0.1996 -0.3931  0.9561
17277TIP3   OH273245   2.350   0.887   1.360 -0.5436  0.4060 -0.5116
17277TIP3    H173246   2.432   0.913   1.318 -0.5270  2.8175  0.8356
17277TIP3    H273247   2.292   0.962   1.347 -2.2098 -0.8302 -0.5267
17278TIP3   OH273248   2.146   5.597   6.135 -0.1313  0.5904 -0.4072
17278TIP3    H173249   2.177   5.553   6.214  0.4123  1.0401 -0.3618
17278TIP3    H273250   2.155   5.531   6.066  2.2439  1.0788 -0.6642
17279TIP3   OH273251   5.237   3.901  13.561 -0.0862 -0.5669  0.2844
17279TIP3    H173252   5.277   3.894  13.475 -0.2470 -3.8696  0.3669
17279TIP3    H273253   5.146   3.921  13.544 -0.0083 -0.6941 -0.2863
17280TIP3   OH273254   4.779   3.529  11.332 -0.0770 -0.2702  0.7999
17280TIP3    H173255   4.733   3.531  11.248  0.6222  1.1208  0.4218
17280TIP3    H273256   4.740   3.600  11.383  1.0365  0.3853  0.7843
17281TIP3   OH273257   1.788   4.788   3.148 -0.0980 -0.0912  0.0889
17281TIP3    H173258   1.864   4.828   3.190  0.6420 -0.8103 -0.5233
17281TIP3    H273259   1.784   4.830   3.062 -0.6305  0.2085  0.2522
17282TIP3   OH273260   4.249   0.065  12.868 -0.5586  0.2905 -0.0159
17282TIP3    H173261   4.324   0.090  12.814 -1.0383  1.2330 -0.2588
17282TIP3    H273262   4.202   0.147  12.882 -1.1107 -0.1644  0.8001
17283TIP3   OH273263   0.053   0.639   0.619  0.2159  0.3169 -0.4491
17283TIP3    H173264   0.049   0.635   0.715 -1.3377 -0.4924 -0.5070
17283TIP3    H273265   0.042   0.548   0.591  2.8074  0.2266 -1.4042
17284TIP3   OH273266   2.501   1.000   2.260 -0.1193  0.0967 -0.4188
17284TIP3    H173267   2.535   0.922   2.217  1.9432 -0.3705  1.8927
17284TIP3    H273268   2.432   0.968   2.318  0.6742 -0.0071  0.4725
17285TIP3   OH273269   1.983   4.260   3.574 -0.0914 -0.3934 -0.3603
17285TIP3    H173270   1.917   4.260   3.643  1.3627 -0.6914  1.0895
17285TIP3    H273271   1.997   4.353   3.553 -0.0441 -0.2615  0.2490
17286TIP3   OH273272   0.261   3.607  15.668  0.6850 -0.0225 -0.5416
17286TIP3    H173273   0.284   3.680  15.726 -1.7197 -1.2480  2.2031
17286TIP3    H273274   0.341   3.556  15.661  1.1286  0.2935  1.6067
17287TIP3   OH273275   4.838   2.362   0.723  0.4600  0.2157 -0.0986
17287TIP3    H173276   4.752   2.326   0.705  0.1059  0.3231  1.2901
17287TIP3    H273277   4.889   2.288   0.756  0.5975  0.3666  0.0297
17288TIP3   OH273278   2.624   5.369   1.428  0.5321  0.0986  0.0245
17288TIP3    H173279   2.613   5.412   1.514  2.2784 -1.2044  0.9626
17288TIP3    H273280   2.718   5.365   1.415  0.3312 -1.0633 -1.2885
17289TIP3   OH273281   2.558   3.932   1.582 -0.1954  0.5076  0.3867
17289TIP3    H173282   2.548   4.008   1.640  0.2456  0.2672  0.7807
17289TIP3    H273283   2.627   3.880   1.622 -0.0366  0.2248 -0.2420
17290TIP3   OH273284   0.586   1.938  16.152 -0.5253 -0.0617 -0.0474
17290TIP3    H173285   0.654   1.891  16.103 -2.7109 -2.8137 -0.6513
17290TIP3    H273286   0.577   1.889  16.234 -2.0641 -0.0119 -0.1637
17291TIP3   OH273287   3.368   6.125  15.024 -0.2441  0.3329 -0.3624
17291TIP3    H173288   3.320   6.061  14.973 -0.5010  0.5973 -0.4549
17291TIP3    H273289   3.391   6.079  15.105 -1.0082  0.3307 -0.1406
17292TIP3   OH273290   1.086   5.334   3.704 -0.0927 -0.3742  0.0105
17292TIP3    H173291   1.019   5.279   3.746  0.1506 -1.0505 -0.4591
17292TIP3    H273292   1.040   5.415   3.682 -0.7828 -0.8484 -0.3506
17293TIP3   OH273293   0.273   3.106   3.904  0.2265 -0.2367 -0.9088
17293TIP3    H173294   0.328   3.164   3.851  0.6556 -0.2608 -0.4947
17293TIP3    H273295   0.241   3.162   3.975  0.9860 -0.6068 -0.2662
17294TIP3   OH273296   5.487   1.267  16.915 -0.1479 -0.3302 -0.1792
17294TIP3    H173297   5.427   1.305  16.979 -2.4379  1.3530 -3.0616
17294TIP3    H273298   5.460   1.176  16.907  0.6976 -0.7873  1.7246
17295TIP3   OH273299   1.686   5.790  16.538 -0.4673  0.2208  0.5121
17295TIP3    H173300   1.695   5.878  16.502 -1.5597  1.5752  3.2854
17295TIP3    H273301   1.593   5.771  16.534 -0.6095  0.3398  2.2465
17296TIP3   OH273302   1.281   0.589   0.594  0.3039  0.7320  0.0907
17296TIP3    H173303   1.298   0.662   0.653 -1.8364  1.2889  0.0973
17296TIP3    H273304   1.187   0.592   0.578  0.0060 -2.3854  0.5787
17297TIP3   OH273305   6.489   5.099   5.871  0.2171  0.1020 -0.2541
17297TIP3    H173306   6.437   5.105   5.951 -0.4677 -1.7281 -0.5061
17297TIP3    H273307   6.579   5.087   5.901 -0.0522 -0.6985  0.2674
17298TIP3   OH273308   1.671   1.655  12.450  0.1852 -0.0914  0.5375
17298TIP3    H173309   1.756   1.666  12.408  0.6303 -0.2771  1.3670
17298TIP3    H273310   1.684   1.688  12.539 -0.9030  0.8435  0.3624
17299TIP3   OH273311   0.036   4.262  14.312  0.5574  0.0715 -0.0628
17299TIP3    H173312   0.035   4.307  14.397 -0.5803  0.3851 -0.2347
17299TIP3    H273313  -0.037   4.200  14.317  0.3070  0.2906 -0.9215
17300TIP3   OH273314   6.228   4.550  16.866 -0.4277 -0.0774  0.4156
17300TIP3    H173315   6.314   4.560  16.826 -0.0635  5.8549  1.6884
17300TIP3    H273316   6.244   4.559  16.960 -2.3019  1.9122  0.6427
17301TIP3   OH273317   2.065   5.866   0.347  0.0580 -0.4832 -0.2449
17301TIP3    H173318   2.024   5.780   0.356 -1.2941  0.1221 -0.3406
17301TIP3    H273319   2.128   5.855   0.277 -0.2137 -1.3582 -0.3694
17302TIP3   OH273320   0.668   5.402   3.041  0.3573 -0.4282  0.0359
17302TIP3    H173321   0.630   5.325   2.999  0.3140 -2.4948  3.4812
17302TIP3    H273322   0.752   5.414   2.996  0.3687 -2.5299 -0.6364
17303TIP3   OH273323   2.536   0.012  14.499 -0.1137 -0.5699  0.3402
17303TIP3    H173324   2.616  -0.016  14.455 -0.9254 -1.0230 -0.9361
17303TIP3    H273325   2.529  -0.045  14.575  1.1164 -0.0525  0.8668
17304TIP3   OH273326   6.456   3.546   4.118 -0.2015 -0.5224  0.1418
17304TIP3    H173327   6.469   3.641   4.119 -1.6206 -0.2997  2.0154
17304TIP3    H273328   6.390   3.531   4.050 -0.4304 -0.0923  0.2691
17305TIP3   OH273329   0.822   5.402  15.553  0.2040 -0.1990  0.4335
17305TIP3    H173330   0.738   5.448  15.551 -0.3432 -1.0416  2.2928
17305TIP3    H273331   0.803   5.316  15.515  0.5817  0.1068 -0.4722
17306TIP3   OH273332   6.210   3.642  17.079  0.1264  0.1241  0.2207
17306TIP3    H173333   6.120   3.673  17.065  0.1593 -0.1482 -0.6958
17306TIP3    H273334   6.200   3.567  17.138 -0.4071 -0.7008 -0.8647
17307TIP3   OH273335   5.888   5.386  15.274 -0.4656  0.0392 -0.1647
17307TIP3    H173336   5.935   5.331  15.337  0.1794  0.4815 -0.2428
17307TIP3    H273337   5.845   5.453  15.327 -2.2613 -1.2068  0.0489
17308TIP3   OH273338   2.946   1.162  11.170  0.2154  0.4829 -0.0625
17308TIP3    H173339   2.993   1.148  11.088  0.1851  0.5120 -0.0847
17308TIP3    H273340   2.938   1.257  11.178 -0.7328  0.4646 -0.5683
17309TIP3   OH273341   3.721   3.311   5.063  0.4956  0.3250  0.4165
17309TIP3    H173342   3.694   3.373   5.130  2.7939 -0.7227  2.4648
17309TIP3    H273343   3.658   3.239   5.071  0.0095  0.7555  0.5558
17310TIP3   OH273344   4.407   2.648   2.007 -0.2783 -0.0617  0.4355
17310TIP3    H173345   4.331   2.688   1.963  0.4573  1.2741  0.3124
17310TIP3    H273346   4.482   2.687   1.963  0.5163 -1.9241  0.0571
17311TIP3   OH273347   5.652   5.302  12.729 -0.6592 -0.0299  0.2347
17311TIP3    H173348   5.564   5.277  12.704 -0.7635 -0.4131  0.9486
17311TIP3    H273349   5.640   5.356  12.808 -0.3156  0.7445 -0.2299
17312TIP3   OH273350   3.766   5.455  12.344  0.8983 -0.2616 -0.8649
17312TIP3    H173351   3.689   5.405  12.318  0.7160 -0.6222  0.3126
17312TIP3    H273352   3.780   5.517  12.273 -1.4211  0.8947 -0.3860
17313TIP3   OH273353   1.588   4.378   1.694  0.3079  0.2510  0.1292
17313TIP3    H173354   1.619   4.446   1.634  1.7357  0.9547  1.5866
17313TIP3    H273355   1.544   4.314   1.637  1.6422  0.8443 -1.6704
17314TIP3   OH273356   2.909   2.268  16.878  0.7631  0.3516 -0.3685
17314TIP3    H173357   2.888   2.351  16.921  2.8052 -0.0619  1.6082
17314TIP3    H273358   2.992   2.285  16.833  0.8732 -0.4323 -0.4751
17315TIP3   OH273359   5.596   2.881  13.721  0.2455 -0.1539  0.1708
17315TIP3    H173360   5.519   2.848  13.675 -0.2735  0.4552  0.5792
17315TIP3    H273361   5.653   2.914  13.651 -0.0741 -0.1801 -0.1037
17316TIP3   OH273362   5.494   3.490  10.862  0.4186 -0.3615  0.3357
17316TIP3    H173363   5.471   3.406  10.822  1.4755  0.1010 -1.3581
17316TIP3    H273364   5.451   3.489  10.947 -2.0859 -1.3663 -0.8532
17317TIP3   OH273365   5.431   3.813  11.719 -0.2342  0.4489 -0.2039
17317TIP3    H173366   5.440   3.894  11.770  1.5871  0.0936  0.1075
17317TIP3    H273367   5.411   3.746  11.784 -1.9961  0.6502 -0.4919
17318TIP3   OH273368   1.978   4.070  14.865  0.3830  0.1331 -0.0713
17318TIP3    H173369   1.946   4.149  14.909 -0.7532 -1.1001  1.4522
17318TIP3    H273370   1.946   4.078  14.775 -0.9319  0.7797  0.4265
17319TIP3   OH273371   1.052   0.895  13.006  0.2478 -0.4455 -0.1565
17319TIP3    H173372   1.051   0.881  12.912  0.7282  1.4262 -0.4948
17319TIP3    H273373   1.132   0.852  13.037  2.1353  2.0235 -1.2447
17320TIP3   OH273374   6.722   2.611   3.453 -0.5039 -0.7862 -0.0580
17320TIP3    H173375   6.633   2.635   3.428 -0.9209 -0.0076  2.0188
17320TIP3    H273376   6.732   2.644   3.542  2.3595  0.4220 -0.7159
17321TIP3   OH273377   4.266   3.016  12.947 -0.1150 -0.1446 -0.1599
17321TIP3    H173378   4.241   3.014  12.854 -1.8802  0.0990  0.2782
17321TIP3    H273379   4.188   3.046  12.992  1.5205  2.4932  1.1853
17322TIP3   OH273380   2.801   1.988   1.874 -0.0520  0.4623  0.3046
17322TIP3    H173381   2.719   2.028   1.904  0.2086  1.4942 -0.3277
17322TIP3    H273382   2.776   1.937   1.797 -0.4978 -1.1727  1.4693
17323TIP3   OH273383   6.760   5.503   3.558  0.4889  0.3167 -0.7920
17323TIP3    H173384   6.847   5.542   3.553  0.7653 -0.4812 -2.7355
17323TIP3    H273385   6.753   5.448   3.481 -1.8499  0.5568 -0.8301
17324TIP3   OH273386   3.858   0.223   1.441 -0.4394  0.3131 -0.1820
17324TIP3    H173387   3.836   0.272   1.362 -0.2136 -2.2204 -1.9079
17324TIP3    H273388   3.802   0.145   1.438  1.1046 -0.9112  0.9957
17325TIP3   OH273389   6.121   3.377  11.102 -0.4094 -0.4760 -0.6695
17325TIP3    H173390   6.111   3.290  11.140  0.3439 -0.1197  0.3947
17325TIP3    H273391   6.164   3.362  11.018  0.2715 -1.0946 -0.2184
17326TIP3   OH273392   2.183   0.309  15.628  0.3676 -0.1362  0.9791
17326TIP3    H173393   2.123   0.383  15.629  0.5662  0.1384 -1.5523
17326TIP3    H273394   2.159   0.259  15.549  2.8648 -0.4875  0.3519
17327TIP3   OH273395   0.512   5.903  14.993 -0.1869  0.0535  0.0501
17327TIP3    H173396   0.458   5.976  15.023  0.4486  0.1849  0.9078
17327TIP3    H273397   0.560   5.874  15.071 -0.6325 -1.4650 -0.1900
17328TIP3   OH273398   3.515   6.245  14.827  0.4134 -0.0417 -0.3296
17328TIP3    H173399   3.540   6.316  14.886  0.3708 -0.1721 -0.1533
17328TIP3    H273400   3.446   6.198  14.874  0.1029  0.0898 -0.6519
17329TIP3   OH273401   1.020   0.195  11.072  0.2728 -0.3810 -0.0082
17329TIP3    H173402   1.081   0.245  11.018 -0.7088  0.3152 -0.4914
17329TIP3    H273403   1.048   0.213  11.162 -1.0569  2.5021 -0.0518
17330TIP3   OH273404   3.420   5.098   5.979  0.5454  0.0575  0.9568
17330TIP3    H173405   3.348   5.140   5.932  0.0580 -1.7370  0.0334
17330TIP3    H273406   3.377   5.045   6.047  1.1236  0.5684  1.7451
17331TIP3   OH273407   5.181   6.438  16.252  0.0940 -0.3345 -0.1563
17331TIP3    H173408   5.105   6.407  16.203  0.8190 -3.0687  0.2368
17331TIP3    H273409   5.150   6.515  16.299 -1.9523 -0.4263 -1.2464
17332TIP3   OH273410   3.928   5.319  13.726 -0.1159  0.2576  0.1822
17332TIP3    H173411   3.870   5.243  13.720  0.2396  0.0758 -1.1157
17332TIP3    H273412   4.016   5.282  13.730 -0.0419  0.5335  2.1297
17333TIP3   OH273413   5.913   3.492   0.982 -0.7464  0.5141 -0.2990
17333TIP3    H173414   5.834   3.491   0.929 -1.3668 -2.3298  0.5145
17333TIP3    H273415   5.889   3.444   1.061  2.2838 -2.2824 -0.8808
17334TIP3   OH273416   0.647   6.556  13.684  0.2377  0.2402  0.0484
17334TIP3    H173417   0.638   6.516  13.598 -1.0179  0.2924  0.1420
17334TIP3    H273418   0.720   6.509  13.725 -0.3206 -1.0258 -0.3636
17335TIP3   OH273419   5.989   1.769   5.059 -0.1026  0.0455  0.2560
17335TIP3    H173420   5.961   1.836   5.121 -1.3916 -0.2571  0.0333
17335TIP3    H273421   6.081   1.752   5.081 -0.2505  0.6588  1.4113
17336TIP3   OH273422   1.939   4.664   5.222  0.7040  0.1379  0.5498
17336TIP3    H173423   1.892   4.608   5.282  1.1300 -1.4848 -0.5649
17336TIP3    H273424   1.911   4.636   5.135  2.9093 -0.1915 -0.1166
17337TIP3   OH273425   0.271   6.087   3.459  0.1985 -0.1036 -0.0073
17337TIP3    H173426   0.259   6.092   3.365 -0.1458  0.8960  0.0844
17337TIP3    H273427   0.189   6.120   3.496  0.4080 -0.2867  0.6440
17338TIP3   OH273428   4.959   3.706  13.495 -0.1287 -0.2492  0.4262
17338TIP3    H173429   4.972   3.710  13.401  0.2183  1.5371  0.5184
17338TIP3    H273430   4.984   3.792  13.527 -0.3011 -0.7914  2.1556
17339TIP3   OH273431   5.874   0.197   2.160  0.0281 -0.5944  0.1221
17339TIP3    H173432   5.940   0.131   2.138 -1.4142 -1.1675 -3.0861
17339TIP3    H273433   5.914   0.280   2.133  0.0322 -0.7491 -0.3564
17340TIP3   OH273434   4.833   0.408   6.037  0.0997 -0.6003  0.0886
17340TIP3    H173435   4.888   0.424   6.113 -0.0330  0.6023 -0.0534
17340TIP3    H273436   4.865   0.326   6.000  1.4834 -0.1605  0.2756
17341TIP3   OH273437   4.292   5.967   1.314 -0.2808 -0.0298  0.0848
17341TIP3    H173438   4.374   5.917   1.308  0.6966  1.1964  1.8174
17341TIP3    H273439   4.319   6.050   1.354 -2.2736  0.7381 -0.0655
17342TIP3   OH273440   1.354   0.470   5.013 -0.1118 -0.0771  0.1809
17342TIP3    H173441   1.277   0.517   5.045 -0.2844 -0.2269 -0.0158
17342TIP3    H273442   1.405   0.452   5.092  0.1137  0.7272  0.2261
17343TIP3   OH273443   3.266   6.581   1.251  0.2296  0.1267  0.3938
17343TIP3    H173444   3.340   6.625   1.210 -0.2131  0.0965 -0.4524
17343TIP3    H273445   3.215   6.546   1.178 -1.1798  1.0392  0.9145
17344TIP3   OH273446   0.899   1.456   5.600  0.4277  0.6002 -0.3450
17344TIP3    H173447   0.866   1.526   5.543 -2.5114  0.0862  0.5551
17344TIP3    H273448   0.886   1.376   5.550  3.8741  0.5813 -1.4096
17345TIP3   OH273449   2.369   1.545   5.074 -0.0574  0.0565  0.2432
17345TIP3    H173450   2.275   1.534   5.093  0.0903  0.3723  1.2439
17345TIP3    H273451   2.408   1.562   5.160  1.0138 -0.7003 -0.0792
17346TIP3   OH273452   6.723   0.001   4.526  0.3507 -0.2100  0.0002
17346TIP3    H173453   6.699  -0.033   4.612 -3.0755  0.3408 -0.5979
17346TIP3    H273454   6.687  -0.063   4.464  0.8658  0.4893 -1.0452
17347TIP3   OH273455   5.421   4.056   4.458 -0.1430 -0.1319 -0.0390
17347TIP3    H173456   5.505   4.017   4.434 -0.6717 -0.7507 -0.9538
17347TIP3    H273457   5.356   4.006   4.408 -0.8047  2.3818 -1.9182
17348TIP3   OH273458   5.651   3.332  15.174  0.3420 -0.1230  0.7059
17348TIP3    H173459   5.669   3.262  15.237  2.0517  0.6688  1.1464
17348TIP3    H273460   5.629   3.286  15.093 -0.8495 -1.1489  1.5731
17349TIP3   OH273461   3.771   5.580   1.001 -0.2215  0.3522  0.0947
17349TIP3    H173462   3.771   5.530   1.082 -1.3606 -0.0761 -0.1464
17349TIP3    H273463   3.686   5.624   1.000  0.2282  1.2581 -0.3348
17350TIP3   OH273464   5.154   2.835   1.109  0.2713  0.1792 -0.7550
17350TIP3    H173465   5.220   2.766   1.116  0.0892 -0.0048 -0.8448
17350TIP3    H273466   5.174   2.879   1.027 -0.4636 -0.6642 -1.4118
17351TIP3   OH273467   4.722   3.280   6.751 -0.5219  0.0925 -0.0366
17351TIP3    H173468   4.759   3.194   6.772  1.7267  0.9286 -0.3016
17351TIP3    H273469   4.767   3.306   6.670 -0.8602  1.6830  0.2518
17352TIP3   OH273470   4.407   1.939  14.522  0.0921  0.3910 -0.6263
17352TIP3    H173471   4.324   1.985  14.524  0.4799  1.0884 -0.3410
17352TIP3    H273472   4.459   1.978  14.592  0.9342  0.4909 -1.2884
17353TIP3   OH273473   4.070   5.041  11.920 -0.0080 -0.1000  0.1103
17353TIP3    H173474   3.988   5.080  11.891  0.4124  1.4886  0.9195
17353TIP3    H273475   4.136   5.076  11.861  0.2038 -0.7334 -0.0370
17354TIP3   OH273476   5.288   3.536  16.905 -0.6631  0.3290  0.5137
17354TIP3    H173477   5.282   3.487  16.823 -1.6547  2.2127 -0.6189
17354TIP3    H273478   5.207   3.514  16.952 -1.0326  0.7514  0.0801
17355TIP3   OH273479   5.759   5.589   5.480 -0.3038  0.1349 -0.6880
17355TIP3    H173480   5.673   5.566   5.517 -1.0104  1.6095 -1.3082
17355TIP3    H273481   5.820   5.578   5.553 -1.1684 -0.0672  0.0294
17356TIP3   OH273482   1.691   3.900  12.267  0.6643  0.0253  0.0589
17356TIP3    H173483   1.700   3.814  12.310 -1.1043 -0.2538 -0.0674
17356TIP3    H273484   1.671   3.879  12.176 -0.8975  0.5203  0.2587
17357TIP3   OH273485   5.372   3.828  15.566 -0.2911  0.1337 -0.3806
17357TIP3    H173486   5.294   3.879  15.585  0.1143  1.7385 -2.7065
17357TIP3    H273487   5.427   3.838  15.644 -0.6240  2.5017 -0.3917
17358TIP3   OH273488   2.997   6.361   1.323 -0.4459  0.0575 -0.5549
17358TIP3    H173489   2.968   6.272   1.343 -0.2760 -0.1993 -1.3974
17358TIP3    H273490   3.033   6.395   1.405  0.5652 -1.0743 -0.5131
17359TIP3   OH273491   4.599   3.975   4.595  0.9503 -0.1950 -0.3078
17359TIP3    H173492   4.671   3.997   4.654 -0.0568  0.2876  0.8062
17359TIP3    H273493   4.569   4.060   4.562 -1.5136  0.0662  2.2413
17360TIP3   OH273494   0.604   2.205  12.634 -0.5139  0.5340 -0.0555
17360TIP3    H173495   0.522   2.158  12.616 -0.6472  0.9181 -0.4810
17360TIP3    H273496   0.672   2.151  12.595 -0.6132  0.4572 -0.1220
17361TIP3   OH273497   2.238   5.544   2.827  0.1648  0.0201 -0.4578
17361TIP3    H173498   2.165   5.561   2.769 -0.5531 -0.9607  0.1273
17361TIP3    H273499   2.225   5.603   2.901  0.8119  0.9192 -1.0359
17362TIP3   OH273500   5.624   3.884   4.469 -0.7291  0.2362  0.2762
17362TIP3    H173501   5.653   3.818   4.533 -0.4268  0.1120  0.0142
17362TIP3    H273502   5.645   3.845   4.384  0.1066  0.9764  0.1397
17363TIP3   OH273503   3.052   5.768   2.233 -0.2086 -0.0769  0.0968
17363TIP3    H173504   3.062   5.719   2.151 -0.2187  0.3993 -0.1970
17363TIP3    H273505   3.065   5.703   2.302 -2.5612 -1.0266 -0.2378
17364TIP3   OH273506   2.084   1.945  10.979  0.2140  0.1402  0.4513
17364TIP3    H173507   2.064   1.933  11.072  0.1937  0.5261  0.4997
17364TIP3    H273508   2.094   2.040  10.969 -2.7154  0.4397 -0.5383
17365TIP3   OH273509   5.222   1.516  13.061  0.6005  0.2241  0.6449
17365TIP3    H173510   5.236   1.438  13.007 -0.7960  1.1979 -1.2567
17365TIP3    H273511   5.272   1.584  13.018 -1.1822  1.2088  0.0116
17366TIP3   OH273512   2.923   3.366   5.524 -0.0803  0.7383 -0.2382
17366TIP3    H173513   3.000   3.391   5.575  0.4710 -1.9072  0.3549
17366TIP3    H273514   2.870   3.315   5.585  0.1562 -1.7521 -1.9835
17367TIP3   OH273515   6.513   4.360   0.635 -0.0612  0.2764  0.5204
17367TIP3    H173516   6.599   4.398   0.618 -0.1330  0.3299  0.2751
17367TIP3    H273517   6.520   4.324   0.724  0.3886 -0.2057  0.2928
17368TIP3   OH273518   1.088   6.207  12.338 -0.5143  0.0500 -0.4124
17368TIP3    H173519   1.115   6.158  12.260  1.4621  1.2242 -0.5193
17368TIP3    H273520   1.093   6.299  12.311 -0.8324  0.4369  0.8031
17369TIP3   OH273521   0.639   2.994   2.537 -0.3096 -0.1822  0.6276
17369TIP3    H173522   0.688   2.999   2.455 -1.0066  0.6291  0.2505
17369TIP3    H273523   0.702   3.024   2.603 -0.5815  1.9544  0.0009
17370TIP3   OH273524   4.666   1.753   2.289 -0.5136  0.3297 -0.1970
17370TIP3    H173525   4.722   1.677   2.304  0.3720  0.9916 -0.0649
17370TIP3    H273526   4.644   1.784   2.377  1.5655  1.9585 -0.1845
17371TIP3   OH273527   4.557   4.452  12.286  0.1232  0.2084 -0.9066
17371TIP3    H173528   4.508   4.426  12.364 -0.6611 -1.0983 -1.7990
17371TIP3    H273529   4.634   4.497  12.320  0.2415 -1.0926  0.6624
17372TIP3   OH273530   3.132   4.302   0.360 -0.3296  0.0429 -0.5812
17372TIP3    H173531   3.198   4.365   0.331  1.1808 -1.4303 -0.5158
17372TIP3    H273532   3.102   4.336   0.444 -1.0035  1.6661 -1.4227
17373TIP3   OH273533   3.679   2.837  11.557 -0.1442  0.0695  0.3866
17373TIP3    H173534   3.627   2.758  11.537  0.7202 -1.2838  2.9976
17373TIP3    H273535   3.770   2.808  11.551  0.1884  0.7733  1.6141
17374TIP3   OH273536   3.036   5.042  13.792  1.0327 -0.1635 -0.6194
17374TIP3    H173537   2.999   5.076  13.873  0.0802 -2.6708  0.1127
17374TIP3    H273538   3.092   5.112  13.760 -0.1961  1.7214  1.0808
17375TIP3   OH273539   1.240   5.608  15.664  0.2730 -0.2487 -0.0271
17375TIP3    H173540   1.192   5.571  15.738 -1.2639  0.0183 -0.8376
17375TIP3    H273541   1.201   5.566  15.587  0.9392  0.4304 -0.7548
17376TIP3   OH273542   1.195   1.278   3.292  0.1145 -0.3136  0.5172
17376TIP3    H173543   1.206   1.183   3.286 -1.4783 -0.4667 -0.8532
17376TIP3    H273544   1.171   1.294   3.383 -0.7381 -1.3832  0.5013
17377TIP3   OH273545   4.248   4.703   5.003  0.3285  0.1377 -0.1621
17377TIP3    H173546   4.321   4.668   4.953  1.1004 -0.4643  1.3105
17377TIP3    H273547   4.257   4.663   5.090 -1.2316  0.7457  0.3277
17378TIP3   OH273548   4.499   4.251   2.656  0.1136 -0.0104 -0.0834
17378TIP3    H173549   4.502   4.190   2.730  2.3704  0.1816  0.0355
17378TIP3    H273550   4.586   4.289   2.652 -1.2719  3.5651  0.0789
17379TIP3   OH273551   3.844   1.358   3.631  0.2230  0.3814  0.3576
17379TIP3    H173552   3.936   1.340   3.653 -0.1735 -3.4549 -0.4074
17379TIP3    H273553   3.835   1.330   3.540 -2.4127 -3.3553  1.5201
17380TIP3   OH273554   0.939   0.410   1.024  0.3940 -0.4223  0.0590
17380TIP3    H173555   0.897   0.463   0.956 -0.6283 -2.0198 -0.5966
17380TIP3    H273556   0.992   0.473   1.073 -0.5885  1.1626 -0.8219
17381TIP3   OH273557   4.251   6.402   0.549  0.4120  0.6275  0.5640
17381TIP3    H173558   4.185   6.344   0.587  2.3278  0.1445  3.5077
17381TIP3    H273559   4.226   6.489   0.580  0.5477  0.5792  0.8190
17382TIP3   OH273560   4.428   2.546   0.091 -0.3484  0.0689  0.1222
17382TIP3    H173561   4.440   2.607   0.018 -1.8591 -0.7510 -0.8865
17382TIP3    H273562   4.464   2.591   0.167  1.1442  1.0187 -1.1000
17383TIP3   OH273563   4.439   3.672  11.353 -0.1116 -0.2384  0.2876
17383TIP3    H173564   4.458   3.607  11.420 -0.1708  1.6464  2.2675
17383TIP3    H273565   4.522   3.718  11.339 -0.3936  0.1977 -0.0100
17384TIP3   OH273566   5.976   3.934   1.278  0.0316 -0.5849  0.2923
17384TIP3    H173567   6.016   3.858   1.321 -0.5208 -0.9058  0.2434
17384TIP3    H273568   5.911   3.966   1.340  0.3968 -0.0261  0.3951
17385TIP3   OH273569   1.450   6.055  12.952 -0.1198 -0.1658  0.2880
17385TIP3    H173570   1.370   6.005  12.936 -0.5623  0.0486  1.6679
17385TIP3    H273571   1.480   6.081  12.865 -1.8403  0.1698 -0.2416
17386TIP3   OH273572   6.629   1.451  12.125 -0.5306 -0.3317  0.3556
17386TIP3    H173573   6.700   1.511  12.148 -1.1035  0.7045 -0.4577
17386TIP3    H273574   6.668   1.391  12.062 -0.1867 -0.2113  0.4520
17387TIP3   OH273575   2.019   4.295   6.760  0.7245  0.0724  0.1370
17387TIP3    H173576   2.087   4.362   6.764  0.0641  0.7290  0.5396
17387TIP3    H273577   1.983   4.302   6.672 -0.7059  1.6481  0.7856
17388TIP3   OH273578   1.142   5.334   2.939  0.1766 -0.1196  0.5859
17388TIP3    H173579   1.130   5.250   2.984  3.0509  0.1441  2.0954
17388TIP3    H273580   1.143   5.312   2.846 -0.7743 -1.4912  0.8767
17389TIP3   OH273581   5.852   0.147  16.108 -0.8344  0.3006 -1.0691
17389TIP3    H173582   5.853   0.051  16.105 -0.2804  0.3348 -3.0814
17389TIP3    H273583   5.816   0.173  16.024 -0.8694  1.8799 -0.5897
17390TIP3   OH273584   4.109   1.826   1.679 -0.1072 -0.3110  0.2596
17390TIP3    H173585   4.064   1.809   1.762 -1.5771  2.0769  0.0317
17390TIP3    H273586   4.196   1.857   1.706  0.0666 -1.2150  0.8136
17391TIP3   OH273587   5.755   2.090   1.462 -0.2797  0.0392  0.0914
17391TIP3    H173588   5.830   2.102   1.404 -0.5798 -0.9484 -0.5372
17391TIP3    H273589   5.760   2.162   1.525  1.7055 -0.5062  0.6230
17392TIP3   OH273590   1.720   5.373  16.869  0.2166 -1.6593 -0.2480
17392TIP3    H173591   1.688   5.307  16.807 -0.0458 -1.4615 -0.3248
17392TIP3    H273592   1.768   5.436  16.815 -0.9809 -0.8651 -0.4284
17393TIP3   OH273593   0.944   2.699   5.668  0.2574 -0.1240  0.2054
17393TIP3    H173594   0.916   2.619   5.712 -3.1050  0.2086 -1.0703
17393TIP3    H273595   0.961   2.672   5.577  0.0680  0.4327  0.0004
17394TIP3   OH273596   3.424   4.743   3.748  0.0058 -0.4198 -0.0453
17394TIP3    H173597   3.346   4.790   3.777  0.2975 -0.3349  0.6155
17394TIP3    H273598   3.440   4.678   3.817  0.8835 -0.0168  0.1403
17395TIP3   OH273599   3.123   1.004  12.342  0.2476 -0.6256  0.2116
17395TIP3    H173600   3.129   0.992  12.436  1.3618 -3.2753 -0.0974
17395TIP3    H273601   3.057   0.940  12.314  2.0737 -2.0824 -1.0444
17396TIP3   OH273602   1.670   4.390  13.309  0.0512 -0.0680 -0.3496
17396TIP3    H173603   1.678   4.452  13.237  2.2135  0.1512  0.0265
17396TIP3    H273604   1.608   4.431  13.369 -0.9450  0.2456 -1.5382
17397TIP3   OH273605   0.646   3.922  14.685  0.5645 -0.1475 -0.1506
17397TIP3    H173606   0.605   3.837  14.693 -0.4635  0.4761  2.0148
17397TIP3    H273607   0.581   3.984  14.718  2.5179  1.0763  1.7242
17398TIP3   OH273608   4.201   2.542  11.565 -0.0667  0.3289 -0.2776
17398TIP3    H173609   4.277   2.550  11.508  0.2175  1.5766  0.2388
17398TIP3    H273610   4.229   2.483  11.635  2.0872  4.0599  2.3642
17399TIP3   OH273611   3.762   2.070  17.212  0.1219 -0.2547 -0.1086
17399TIP3    H173612   3.682   2.053  17.262  0.7875  0.5973  1.2894
17399TIP3    H273613   3.730   2.107  17.129 -0.9864 -1.4750 -0.2652
17400TIP3   OH273614   2.700   5.963  16.327  0.4130  0.1591 -0.1414
17400TIP3    H173615   2.662   5.999  16.246 -2.2556  1.7622  1.6539
17400TIP3    H273616   2.650   5.883  16.343  0.1325  0.4546  0.4867
17401TIP3   OH273617   3.826   6.128   5.139  0.6035 -0.3272 -0.3148
17401TIP3    H173618   3.785   6.175   5.066  0.3990 -0.6538 -0.4168
17401TIP3    H273619   3.868   6.196   5.191  0.5645 -0.0657 -0.6185
17402TIP3   OH273620   6.519   5.031  13.665  0.5728  0.0196 -0.2694
17402TIP3    H173621   6.451   5.013  13.730  1.4583 -0.2871  0.5962
17402TIP3    H273622   6.584   4.962  13.679  0.4749 -0.4357 -1.9315
17403TIP3   OH273623   0.913   0.583   0.117 -0.7762 -0.0003  0.4880
17403TIP3    H173624   0.849   0.651   0.138 -0.6285 -0.2249  1.7520
17403TIP3    H273625   0.910   0.575   0.022 -1.4735  1.1082  0.4066
17404TIP3   OH273626   6.645   2.262  12.359  0.1163 -0.4852  0.6147
17404TIP3    H173627   6.723   2.243  12.306 -0.8020 -0.5084 -0.7781
17404TIP3    H273628   6.572   2.252  12.299 -0.8477  1.7160  1.3135
17405TIP3   OH273629   2.862   5.335  12.034 -0.5554 -0.2285  0.3293
17405TIP3    H173630   2.886   5.402  12.098 -0.2299 -0.3884  0.3782
17405TIP3    H273631   2.780   5.366  11.996  0.9323  1.5693 -1.6107
17406TIP3   OH273632   5.083   4.210  10.986 -0.1678  0.0824 -0.1432
17406TIP3    H173633   5.051   4.189  10.898  0.5803  0.2778 -0.4790
17406TIP3    H273634   5.011   4.188  11.044 -0.9876  0.7211 -0.8797
17407TIP3   OH273635   0.625   2.735   3.006 -0.4354  0.9144  0.2414
17407TIP3    H173636   0.575   2.666   3.050 -0.0902 -0.3751 -1.2994
17407TIP3    H273637   0.714   2.726   3.042 -0.8889  2.1207  1.7536
17408TIP3   OH273638   6.334   4.357   0.084 -0.2779 -0.0386  0.3046
17408TIP3    H173639   6.306   4.276   0.040 -1.4179  0.4691  0.0593
17408TIP3    H273640   6.304   4.346   0.174 -0.7767  0.2632  0.1794
17409TIP3   OH273641   0.517   0.383   3.788  0.0585 -0.3671 -0.1922
17409TIP3    H173642   0.526   0.477   3.772 -0.7963 -0.4983 -1.6404
17409TIP3    H273643   0.581   0.343   3.729  0.5491 -0.6918  0.5572
17410TIP3   OH273644   1.103   3.542  13.383  0.1263 -0.2465 -0.9131
17410TIP3    H173645   1.062   3.532  13.469  2.4423  1.6866  0.5547
17410TIP3    H273646   1.154   3.461  13.371  1.0785  0.1442  0.3334
17411TIP3   OH273647   0.741   4.573   4.549  0.3491 -0.0612  0.2707
17411TIP3    H173648   0.655   4.531   4.549  0.8021 -1.0482 -0.8029
17411TIP3    H273649   0.725   4.660   4.585 -0.9715 -0.4669  0.7307
17412TIP3   OH273650   5.847   1.706  16.446 -0.1832  0.5870 -0.0449
17412TIP3    H173651   5.776   1.770  16.455 -0.3073  0.3822  0.4650
17412TIP3    H273652   5.802   1.623  16.430 -0.1274  0.2337  1.4683
17413TIP3   OH273653   6.633   4.925   3.832  0.1402 -0.0295  0.1872
17413TIP3    H173654   6.652   5.013   3.863  0.9218  0.1933 -0.8720
17413TIP3    H273655   6.649   4.868   3.908  0.3620  0.6584  0.6586
17414TIP3   OH273656   0.942   3.972  12.228  0.5521 -0.1959  0.0909
17414TIP3    H173657   0.907   4.044  12.280  0.5442  0.1454 -0.3787
17414TIP3    H273658   0.891   3.973  12.147  1.6256  0.3126 -0.6054
17415TIP3   OH273659   3.237   6.378  12.872  0.0492 -0.4314  0.3944
17415TIP3    H173660   3.172   6.371  12.943 -1.7246 -1.0900 -1.2249
17415TIP3    H273661   3.298   6.306  12.888 -0.8876 -1.1744  0.7255
17416TIP3   OH273662   0.678   1.063  14.757  0.3579  0.0120 -0.0981
17416TIP3    H173663   0.597   1.069  14.706  0.4310  0.8362 -0.1372
17416TIP3    H273664   0.656   1.104  14.841  0.9595  1.0098 -0.4153
17417TIP3   OH273665   1.484   0.005  15.956 -0.3109 -0.0695 -0.0035
17417TIP3    H173666   1.431  -0.045  15.895 -1.7426  0.7928  0.4718
17417TIP3    H273667   1.574  -0.012  15.930 -0.8520 -0.6634 -1.5792
17418TIP3   OH273668   5.866   0.203  10.937  0.1426 -0.2528 -0.4284
17418TIP3    H173669   5.835   0.140  11.002 -1.9971 -0.6776 -1.7733
17418TIP3    H273670   5.904   0.149  10.867 -2.0698 -0.1975 -1.7811
17419TIP3   OH273671   6.214   5.598   3.520  0.5003  0.4611 -0.3544
17419TIP3    H173672   6.259   5.663   3.467 -1.5686  1.7362 -0.6432
17419TIP3    H273673   6.122   5.604   3.494 -0.0462 -1.2839  0.9440
17420TIP3   OH273674   3.236   2.137  11.918 -0.5894 -0.2841  0.1797
17420TIP3    H173675   3.297   2.205  11.946  1.1994 -1.6142 -0.3035
17420TIP3    H273676   3.251   2.127  11.824  1.1752 -3.1070  0.6440
17421TIP3   OH273677   0.862   3.328   5.323  0.5134 -0.1576 -0.7039
17421TIP3    H173678   0.881   3.422   5.316  1.4923 -0.4294 -2.0676
17421TIP3    H273679   0.880   3.307   5.414 -2.1732  1.4552  0.3236
17422TIP3   OH273680   0.818   4.584   2.171  0.7457  0.3442  0.0880
17422TIP3    H173681   0.846   4.497   2.198 -1.9698 -0.3814  0.9492
17422TIP3    H273682   0.832   4.587   2.077  0.4372 -1.2244 -0.0265
17423TIP3   OH273683   5.866   4.584   5.073  0.1341 -0.3537  0.8882
17423TIP3    H173684   5.797   4.551   5.016  0.0192 -0.9149  1.3407
17423TIP3    H273685   5.894   4.666   5.032  0.9201 -1.3397 -0.6708
17424TIP3   OH273686   3.606   0.966   2.946  0.0398 -0.3799 -0.4037
17424TIP3    H173687   3.571   1.045   2.988 -0.2078 -0.3198 -0.7102
17424TIP3    H273688   3.688   0.949   2.991  0.4310  0.4426 -0.7721
17425TIP3   OH273689   2.930   4.578  12.609  0.5391 -0.2072  0.0383
17425TIP3    H173690   2.999   4.549  12.669  1.2913  0.8511 -0.2867
17425TIP3    H273691   2.849   4.553  12.653  1.0712  0.2537  1.3605
17426TIP3   OH273692   1.705   4.628   4.180  0.3061 -0.3640 -0.7679
17426TIP3    H173693   1.720   4.598   4.090  0.0506  0.0919 -0.9653
17426TIP3    H273694   1.643   4.565   4.216 -0.6364  0.2035 -1.3507
17427TIP3   OH273695   4.277   2.035  13.559 -0.5013 -0.7148  0.4311
17427TIP3    H173696   4.315   2.120  13.580 -1.8025  0.3256 -1.1044
17427TIP3    H273697   4.321   1.973  13.617  1.5047  0.7890  0.6100
17428TIP3   OH273698   5.224   3.010  10.511  0.0066 -0.4231 -0.0846
17428TIP3    H173699   5.284   3.032  10.581  0.7535  1.1816 -1.1674
17428TIP3    H273700   5.171   3.089  10.498 -1.2438 -1.2510 -0.2396
17429TIP3   OH273701   0.811   2.245  13.597  0.4094 -0.7559 -0.0469
17429TIP3    H173702   0.870   2.210  13.664  0.8082 -0.5914 -0.3111
17429TIP3    H273703   0.842   2.335  13.582 -0.9807 -0.0444  1.0789
17430TIP3   OH273704   0.872   5.382   4.334  0.1002  0.1748 -0.1582
17430TIP3    H173705   0.916   5.334   4.264  1.0812  2.7163 -1.4150
17430TIP3    H273706   0.780   5.384   4.308 -0.0037 -1.1620  0.0462
17431TIP3   OH273707   1.997   5.099   1.483 -0.0424 -0.1434 -0.2763
17431TIP3    H173708   1.914   5.146   1.483  1.3182  2.4770 -1.5788
17431TIP3    H273709   1.976   5.014   1.445 -2.1577  0.3403 -0.3333
17432TIP3   OH273710   6.668   4.178   5.874 -0.1135 -0.8066  0.0640
17432TIP3    H173711   6.585   4.181   5.826  0.2562 -2.1985 -0.7381
17432TIP3    H273712   6.645   4.197   5.965 -1.2512 -0.7892 -0.2190
17433TIP3   OH273713   3.567   5.074  15.289 -0.1945  0.6752 -0.3106
17433TIP3    H173714   3.593   5.042  15.375  0.4808  0.6676 -0.5073
17433TIP3    H273715   3.649   5.101  15.248 -0.7204  2.6269 -0.1682
17434TIP3   OH273716   3.966   4.527   5.747 -0.2371  0.3410  0.3252
17434TIP3    H173717   3.982   4.437   5.773 -1.0441  0.1631  0.2190
17434TIP3    H273718   3.921   4.521   5.663  1.3094  0.8917 -0.5814
17435TIP3   OH273719   6.214   1.386  16.417  0.6228 -0.5608  1.0922
17435TIP3    H173720   6.163   1.461  16.446 -1.5126 -1.4235 -0.1525
17435TIP3    H273721   6.241   1.408  16.328  1.0444 -0.7715  1.1638
17436TIP3   OH273722   2.520   6.187  13.879  0.0732 -0.4369 -0.2555
17436TIP3    H173723   2.428   6.174  13.858 -0.3359 -0.2177  1.2657
17436TIP3    H273724   2.554   6.239  13.807 -0.8683 -0.9217 -1.0787
17437TIP3   OH273725   2.091   4.028  12.401 -0.2921 -0.3539  0.2904
17437TIP3    H173726   2.109   4.017  12.494  0.3146  0.0104  0.2204
17437TIP3    H273727   2.136   4.108  12.377 -1.8217  0.4778  0.0406
17438TIP3   OH273728   1.814   3.794  12.671  0.2333 -0.1124  0.0705
17438TIP3    H173729   1.778   3.748  12.746  1.3137  0.2183  0.8279
17438TIP3    H273730   1.889   3.741  12.644 -0.2742 -0.3429 -0.9226
17439TIP3   OH273731   4.594   2.377   1.121 -0.0693 -0.0148 -0.1493
17439TIP3    H173732   4.684   2.376   1.088  0.3638 -1.6092  0.9614
17439TIP3    H273733   4.598   2.426   1.202 -0.1013 -0.4325  0.1106
17440TIP3   OH273734   3.203   1.044   5.595 -0.3567  0.1837 -0.1487
17440TIP3    H173735   3.136   1.012   5.535  0.5054 -0.6547 -0.6861
17440TIP3    H273736   3.220   1.134   5.565 -0.6472  0.1207 -0.5143
17441TIP3   OH273737   4.576   5.562  11.396  0.2920 -0.3525 -1.1076
17441TIP3    H173738   4.516   5.637  11.398 -2.0822 -2.1223 -0.0937
17441TIP3    H273739   4.544   5.508  11.323  2.4184 -0.0858 -2.2912
17442TIP3   OH273740   6.284   3.662   0.424 -0.1839 -0.2224  0.0201
17442TIP3    H173741   6.282   3.749   0.385 -1.4939  0.4063  1.3781
17442TIP3    H273742   6.273   3.602   0.350  1.6592  0.6740 -1.0520
17443TIP3   OH273743   5.562   2.698   3.968 -0.2008  0.0330 -0.5108
17443TIP3    H173744   5.585   2.745   3.887  0.0113 -0.4807 -0.7539
17443TIP3    H273745   5.544   2.767   4.031  1.2629  0.4697 -0.5326
17444TIP3   OH273746   3.122   0.165  14.572  0.5414  0.2255  0.0613
17444TIP3    H173747   3.049   0.177  14.633  2.1331  2.5661  1.6887
17444TIP3    H273748   3.112   0.236  14.509  0.8803 -0.0363 -0.2918
17445TIP3   OH273749   0.461   0.966  12.876 -0.1706 -0.0210 -0.3108
17445TIP3    H173750   0.374   0.942  12.907 -0.2483  0.9687  0.2793
17445TIP3    H273751   0.455   1.059  12.857  0.9604  0.2428  0.5017
17446TIP3   OH273752   4.860   2.509   3.768 -0.0313  0.5501  0.2220
17446TIP3    H173753   4.925   2.474   3.707 -1.3223 -0.3464 -0.6861
17446TIP3    H273754   4.883   2.469   3.852  1.0130  0.8080  0.0694
17447TIP3   OH273755   6.082   0.642  15.461  0.2070  0.0584  0.4052
17447TIP3    H173756   6.166   0.636  15.416 -0.6052  0.0513 -1.1829
17447TIP3    H273757   6.047   0.553  15.459 -1.2433  0.6025 -1.8627
17448TIP3   OH273758   6.317   0.812   5.973 -0.7707 -1.1204 -0.2215
17448TIP3    H173759   6.324   0.812   5.877 -1.8637 -0.4896 -0.3199
17448TIP3    H273760   6.310   0.719   5.996  1.9782 -1.4889 -0.5015
17449TIP3   OH273761   4.885   5.876  13.159  0.5349  0.1073  0.1645
17449TIP3    H173762   4.968   5.887  13.206 -1.0685  1.5556  2.8530
17449TIP3    H273763   4.872   5.959  13.113 -0.1332  0.4722  0.9960
17450TIP3   OH273764   3.810   5.628  14.504  0.4978  0.0511  0.0605
17450TIP3    H173765   3.715   5.630  14.496  0.6026  1.2031 -1.3620
17450TIP3    H273766   3.842   5.681  14.430  2.3495 -2.8265 -1.3870
17451TIP3   OH273767   0.417   3.392   3.920  0.7823  0.2785 -0.0350
17451TIP3    H173768   0.442   3.479   3.889  1.4967  0.4753  1.0308
17451TIP3    H273769   0.497   3.339   3.911  0.9056  0.2537  1.1068
17452TIP3   OH273770   0.709   2.330   0.688 -0.2602  0.6110  0.3710
17452TIP3    H173771   0.663   2.368   0.762 -0.6542 -1.8241  1.4608
17452TIP3    H273772   0.642   2.282   0.639  0.5217 -0.3434  0.1914
17453TIP3   OH273773   3.235   6.784   3.066  0.0475 -1.0427 -0.0492
17453TIP3    H173774   3.219   6.848   3.135 -0.0169  0.4322 -1.3923
17453TIP3    H273775   3.276   6.710   3.111  1.4051  0.4783  1.3311
17454TIP3   OH273776   5.969   2.653  11.453  0.3606  0.1450 -0.3263
17454TIP3    H173777   5.929   2.605  11.380 -3.2387  1.2183  0.7388
17454TIP3    H273778   5.970   2.744  11.425  1.0643  0.2877  0.1328
17455TIP3   OH273779   5.829   4.612  12.194  0.1490 -0.7074  0.3996
17455TIP3    H173780   5.802   4.635  12.105  2.6035  0.1085 -0.2183
17455TIP3    H273781   5.784   4.674  12.251 -0.3376 -0.2986 -0.4252
17456TIP3   OH273782   4.310   0.272  16.186  0.2837 -0.0037 -0.4178
17456TIP3    H173783   4.359   0.352  16.165  0.6475  0.1572  0.9349
17456TIP3    H273784   4.325   0.214  16.111 -0.5062  1.4083 -1.7306
17457TIP3   OH273785   5.764   1.479  12.239 -0.1386  0.1221 -0.2187
17457TIP3    H173786   5.824   1.507  12.170 -0.2905  0.2686 -0.2933
17457TIP3    H273787   5.785   1.535  12.314 -0.7504  0.7613 -0.5112
17458TIP3   OH273788   4.248   4.684   5.287  0.3999  0.7561  0.7177
17458TIP3    H173789   4.263   4.774   5.316 -0.9995  1.0324  0.6196
17458TIP3    H273790   4.154   4.679   5.270  0.6318 -0.4189 -0.3461
17459TIP3   OH273791   0.725   5.298   4.026  0.0075 -0.2458 -0.7695
17459TIP3    H173792   0.651   5.321   3.969  0.0622  1.0082 -0.3703
17459TIP3    H273793   0.687   5.239   4.091 -1.0282  1.5440  0.3247
17460TIP3   OH273794   1.118   6.010   3.664 -0.4077 -0.0116  1.0136
17460TIP3    H173795   1.041   6.030   3.717 -1.0719  2.0653 -0.6178
17460TIP3    H273796   1.083   5.971   3.584  0.0997  1.9111 -0.1885
17461TIP3   OH273797   6.454   6.576  11.233 -0.1945 -0.5258 -0.4264
17461TIP3    H173798   6.478   6.498  11.283  1.8497  0.5465  0.3791
17461TIP3    H273799   6.498   6.565  11.148  1.4873  0.4067  0.2569
17462TIP3   OH273800   0.573   4.930   6.050  0.1232  0.0763 -0.4123
17462TIP3    H173801   0.661   4.963   6.069  0.4146 -0.5589 -0.6415
17462TIP3    H273802   0.532   4.923   6.136  2.2371 -5.0701  0.5319
17463TIP3   OH273803   0.113   0.848  16.332 -0.2942 -0.2062 -0.3308
17463TIP3    H173804   0.068   0.930  16.353 -2.2074 -0.8614 -1.5699
17463TIP3    H273805   0.190   0.875  16.283  0.6188  0.9573  1.6298
17464TIP3   OH273806   1.737   1.331  14.906  0.4628  0.2263 -0.3592
17464TIP3    H173807   1.761   1.277  14.830 -0.1004 -0.5546  0.0049
17464TIP3    H273808   1.725   1.268  14.977 -1.4991  0.6747 -0.2393
17465TIP3   OH273809   5.355   5.530  16.117  0.1073  0.7226 -0.0649
17465TIP3    H173810   5.432   5.560  16.069 -1.1778 -0.6954 -3.3174
17465TIP3    H273811   5.379   5.441  16.146 -0.3757  0.0826 -1.5110
17466TIP3   OH273812   0.501   5.946  11.966 -0.9206  0.2414  0.5412
17466TIP3    H173813   0.554   5.976  12.041  0.0185 -1.1687  0.4838
17466TIP3    H273814   0.509   6.016  11.902  0.3206  0.3932  0.8233
17467TIP3   OH273815   1.229   5.247  17.074 -0.4302 -0.3102  0.0043
17467TIP3    H173816   1.320   5.254  17.044  0.0450 -0.2195  1.3835
17467TIP3    H273817   1.211   5.153  17.071 -1.6757 -0.1248 -3.9976
17468TIP3   OH273818   6.514   0.983  13.790 -0.4128  0.6524  0.7183
17468TIP3    H173819   6.446   0.956  13.728 -0.9225  1.6612  0.8172
17468TIP3    H273820   6.544   0.901  13.829 -1.4856  0.1743  0.5836
17469TIP3   OH273821   3.716   0.783  14.185  0.5258 -0.2508 -0.2577
17469TIP3    H173822   3.702   0.739  14.101  1.3643  0.7949 -0.9785
17469TIP3    H273823   3.629   0.803  14.217  0.2010 -0.1818 -1.1558
17470TIP3   OH273824   2.310   1.330  12.366 -0.1506 -0.0183  0.1216
17470TIP3    H173825   2.240   1.292  12.314 -2.9578  1.3186  2.6480
17470TIP3    H273826   2.341   1.259  12.421 -1.0332 -0.1369  0.4760
17471TIP3   OH273827   5.872   5.230  17.187  1.0804 -0.1197  0.0883
17471TIP3    H173828   5.926   5.276  17.251  1.0032 -0.5904  0.5009
17471TIP3    H273829   5.810   5.179  17.240 -0.7944  1.5624 -0.3540
17472TIP3   OH273830   0.136   0.200   1.061 -0.2880 -0.5139  0.0002
17472TIP3    H173831   0.094   0.180   0.978 -0.7542 -0.0660  0.1214
17472TIP3    H273832   0.094   0.141   1.124 -1.3836  0.5124  0.2837
17473TIP3   OH273833   0.244   3.412  15.138 -0.3829 -0.1768 -0.1407
17473TIP3    H173834   0.313   3.391  15.200 -2.2149 -1.3378  1.6230
17473TIP3    H273835   0.216   3.500  15.162  0.8933  0.6004 -1.3344
17474TIP3   OH273836   3.118   4.649  11.627 -0.8700 -0.2793  0.2990
17474TIP3    H173837   3.105   4.577  11.566 -0.3719 -0.5727  0.5326
17474TIP3    H273838   3.056   4.717  11.599 -1.5276 -0.8970  0.2333
17475TIP3   OH273839   5.461   2.730   1.298  0.0344 -0.0750 -0.1305
17475TIP3    H173840   5.445   2.654   1.242 -0.5842  0.1479 -0.2678
17475TIP3    H273841   5.463   2.804   1.238 -0.7773  0.1821  0.1490
17476TIP3   OH273842   5.010   1.533   4.030  0.5559 -0.0414 -0.2182
17476TIP3    H173843   5.069   1.465   4.063  0.0535  0.1562  1.1543
17476TIP3    H273844   4.927   1.517   4.075  0.5555  1.7371  0.5296
17477TIP3   OH273845   3.938   3.122   2.582  0.5768  0.3605  0.1456
17477TIP3    H173846   3.985   3.095   2.503 -0.5312  0.3468 -0.5246
17477TIP3    H273847   3.995   3.094   2.654  2.0451  1.2112 -0.6458
17478TIP3   OH273848   4.154   1.378   5.627 -0.9326 -0.0722 -0.5338
17478TIP3    H173849   4.223   1.379   5.561 -0.3765 -1.3553 -0.0075
17478TIP3    H273850   4.161   1.462   5.671  1.1308 -0.6338  0.3378
17479TIP3   OH273851   3.310   3.924   4.986 -0.0704  0.4499  0.2656
17479TIP3    H173852   3.400   3.891   4.981  0.1402  0.9311  0.8506
17479TIP3    H273853   3.258   3.847   5.009  0.0762  0.0062 -0.7833
17480TIP3   OH273854   1.305   2.737   1.298 -0.2948  0.0705 -0.7209
17480TIP3    H173855   1.228   2.719   1.351 -0.2446 -1.2333 -1.0673
17480TIP3    H273856   1.374   2.756   1.362 -1.0228  1.9415 -0.4193
17481TIP3   OH273857   2.669   0.151  13.056 -0.2106  0.2666 -0.3744
17481TIP3    H173858   2.743   0.143  12.997  0.1281 -1.3211  0.2018
17481TIP3    H273859   2.600   0.190  13.003  0.6181  0.4968 -1.3111
17482TIP3   OH273860   3.755   4.675  13.349 -0.1633 -0.6149 -0.3654
17482TIP3    H173861   3.774   4.769  13.350 -0.0359 -0.5914 -2.3633
17482TIP3    H273862   3.836   4.634  13.321 -0.2490 -1.3439  0.4045
17483TIP3   OH273863   4.585   0.072   0.469  0.1662  0.4227 -0.6794
17483TIP3    H173864   4.569   0.055   0.376 -1.9148 -0.0409 -0.2891
17483TIP3    H273865   4.522   0.140   0.492  2.3894  2.4537 -0.1299
17484TIP3   OH273866   4.892   3.727  11.941 -0.1545  0.9822 -0.0356
17484TIP3    H173867   4.907   3.737  12.035 -0.9428  1.3765  0.0652
17484TIP3    H273868   4.807   3.770  11.926 -1.6409 -1.8543 -0.3809
17485TIP3   OH273869   4.903   0.739   2.940  0.2871  0.0130 -0.0933
17485TIP3    H173870   4.960   0.664   2.958 -0.1809 -0.0449  1.3201
17485TIP3    H273871   4.817   0.699   2.923 -0.2927  0.2093  2.0153
17486TIP3   OH273872   4.051   6.552   3.592 -0.1487 -0.2104 -0.0981
17486TIP3    H173873   4.048   6.458   3.575  0.6357  0.1292 -2.6421
17486TIP3    H273874   3.961   6.581   3.580 -0.8025 -0.8460  2.6922
17487TIP3   OH273875   6.381   0.677   4.295  0.4621  0.4278 -0.0296
17487TIP3    H173876   6.450   0.626   4.253 -0.5938  1.7688 -3.7320
17487TIP3    H273877   6.308   0.616   4.303  0.8093  0.0470  0.3586
17488TIP3   OH273878   3.659   2.944   4.566 -0.2192 -0.5113 -0.4605
17488TIP3    H173879   3.633   2.873   4.625  0.9098 -0.8983 -0.4033
17488TIP3    H273880   3.752   2.955   4.582  0.0541 -0.4356 -1.9794
17489TIP3   OH273881   6.567   1.960   1.842  0.7964 -0.2474 -0.0983
17489TIP3    H173882   6.622   1.910   1.782  3.1733 -1.7043  2.9923
17489TIP3    H273883   6.622   2.035   1.868  1.1225 -1.2662  2.4013
17490TIP3   OH273884   2.159   0.852  13.105  0.8918  0.0266  0.4419
17490TIP3    H173885   2.101   0.926  13.121  0.6128  0.0426 -0.5913
17490TIP3    H273886   2.104   0.787  13.061  1.7305  0.1905 -0.8927
17491TIP3   OH273887   0.812   3.360   2.253  0.2551  0.3334 -0.1272
17491TIP3    H173888   0.881   3.317   2.304  0.0056 -0.6945 -0.6364
17491TIP3    H273889   0.857   3.393   2.175  0.0570 -1.0627 -0.8650
17492TIP3   OH273890   3.404   2.786   2.495  0.1054 -0.0366 -0.0599
17492TIP3    H173891   3.372   2.750   2.577 -0.3484 -0.4101 -0.3927
17492TIP3    H273892   3.349   2.745   2.428  0.0407  0.7504 -0.4999
17493TIP3   OH273893   5.713   4.726   0.086 -0.3884  0.6141  0.0026
17493TIP3    H173894   5.755   4.727   0.172 -0.8310  0.9661  0.2190
17493TIP3    H273895   5.643   4.661   0.095  1.1826 -1.3116 -0.8906
17494TIP3   OH273896   0.269   0.627   1.003  0.4863 -0.7009 -1.3235
17494TIP3    H173897   0.243   0.717   1.024  0.9936 -1.1520  1.7416
17494TIP3    H273898   0.188   0.582   0.981 -0.4231 -0.4279  1.2179
17495TIP3   OH273899   0.948   4.527  10.603 -0.4505  0.0646 -0.2302
17495TIP3    H173900   1.026   4.477  10.580  0.6576  0.0699  2.9957
17495TIP3    H273901   0.938   4.591  10.532  1.3961 -1.0794 -1.6021
17496TIP3   OH273902   3.138   1.381  10.913  0.1287  0.1002  0.0179
17496TIP3    H173903   3.084   1.458  10.896  1.2741  0.7682 -0.7608
17496TIP3    H273904   3.225   1.406  10.882  0.6031 -1.3923  0.0694
17497TIP3   OH273905   6.005   0.644  15.910 -0.9369  0.1192 -0.7517
17497TIP3    H173906   5.934   0.700  15.939 -0.7150 -0.1607  0.3746
17497TIP3    H273907   5.965   0.583  15.847 -1.5840  0.2629 -0.4758
17498TIP3   OH273908   4.452   0.831   0.225 -0.1771 -0.0192  0.7081
17498TIP3    H173909   4.430   0.749   0.180 -1.0066 -1.1027  2.9130
17498TIP3    H273910   4.547   0.839   0.215 -0.0276 -1.4543  0.7115
17499TIP3   OH273911   5.775   5.697   1.729  0.0165 -0.3725  0.1781
17499TIP3    H173912   5.800   5.789   1.730  0.5031 -0.5014  1.3406
17499TIP3    H273913   5.769   5.674   1.636 -1.3404  1.1509 -0.1413
17500TIP3   OH273914   4.972   1.767   2.285 -0.1699  0.3692  0.2247
17500TIP3    H173915   4.923   1.695   2.325 -0.3152  0.4664  0.2234
17500TIP3    H273916   5.059   1.762   2.325 -0.2887  0.4172  0.4954
17501TIP3   OH273917   5.926   0.308  13.698  0.7818 -0.1746  0.0752
17501TIP3    H173918   5.882   0.366  13.761 -1.0104 -2.7992  1.4588
17501TIP3    H273919   5.859   0.290  13.632  1.2208 -0.8543 -0.1893
17502TIP3   OH273920   4.680   2.818   5.125  0.0928 -0.7248 -0.7997
17502TIP3    H173921   4.591   2.847   5.107  0.8444  1.5206 -1.1380
17502TIP3    H273922   4.673   2.767   5.206 -1.2685  0.8443  0.1285
17503TIP3   OH273923   5.203   3.227  12.131  0.1107  0.3166  0.1538
17503TIP3    H173924   5.149   3.273  12.067 -0.9961 -0.2342  0.6563
17503TIP3    H273925   5.159   3.242  12.215  1.8612  1.5456  0.9189
17504TIP3   OH273926   2.388   0.450  11.964  0.3892 -0.5028 -0.1074
17504TIP3    H173927   2.351   0.525  11.918 -0.0580  0.0780  1.1676
17504TIP3    H273928   2.354   0.374  11.916  3.1007  0.0079 -3.1972
17505TIP3   OH273929   2.274   4.991   0.179 -0.0898 -0.3721  0.1276
17505TIP3    H173930   2.253   5.073   0.135 -1.6118  0.1652  1.7455
17505TIP3    H273931   2.190   4.960   0.213  0.8273 -1.3735  1.5903
17506TIP3   OH273932   4.175   1.373  14.629  0.3048 -0.0682  0.2368
17506TIP3    H173933   4.114   1.435  14.669  1.2319  0.5272  0.7758
17506TIP3    H273934   4.141   1.287  14.652  0.4740  0.2618  1.7925
17507TIP3   OH273935   2.892   5.326   2.883  0.2759 -0.4366 -0.5943
17507TIP3    H173936   2.887   5.420   2.900  1.9004 -0.3025 -0.7041
17507TIP3    H273937   2.808   5.292   2.914  0.0197  0.9173  0.2953
17508TIP3   OH273938   5.462   6.324   5.810 -0.2095  0.2114  0.1578
17508TIP3    H173939   5.405   6.394   5.842 -1.3424  0.3798 -2.0132
17508TIP3    H273940   5.415   6.243   5.832 -1.2891  0.3438 -1.4483
17509TIP3   OH273941   0.977   6.141   5.921  0.1031 -0.2757  0.3124
17509TIP3    H173942   1.042   6.105   5.981  0.8342  1.4373  0.6185
17509TIP3    H273943   0.993   6.236   5.922 -0.9671 -0.0306 -1.3008
17510TIP3   OH273944   1.255   5.079  14.648 -0.0168  0.3058 -0.3588
17510TIP3    H173945   1.289   5.063  14.560 -0.0874  1.8451 -0.6848
17510TIP3    H273946   1.273   5.171  14.664 -1.9228  0.5816  0.3954
17511TIP3   OH273947   0.993   0.126   1.307  0.0769  0.0920 -0.0196
17511TIP3    H173948   1.060   0.185   1.341 -0.0472  0.9765 -1.2449
17511TIP3    H273949   0.910   0.164   1.336 -0.0672  1.2466 -1.8082
17512TIP3   OH273950   6.517   6.261   3.966  0.0158  0.6866 -0.4807
17512TIP3    H173951   6.575   6.194   3.929  0.1241  0.2829  0.3981
17512TIP3    H273952   6.475   6.301   3.889  1.1880  0.7575 -1.1097
17513TIP3   OH273953   4.469   3.829  11.653 -0.1318 -0.5917  0.6332
17513TIP3    H173954   4.449   3.873  11.571  2.1550  1.6832  1.1765
17513TIP3    H273955   4.383   3.814  11.694 -1.2039 -0.2453 -1.3831
17514TIP3   OH273956   6.143   0.407   1.406 -0.1915 -0.2095  0.2798
17514TIP3    H173957   6.141   0.311   1.416 -2.4291 -0.2569 -0.1521
17514TIP3    H273958   6.170   0.421   1.316  0.5814 -0.3867  0.4689
17515TIP3   OH273959   1.436   3.839   0.720 -0.6376 -0.3573 -0.7564
17515TIP3    H173960   1.531   3.830   0.716 -0.4181  1.9818 -3.0401
17515TIP3    H273961   1.422   3.907   0.786 -0.7943 -0.8293 -0.2871
17516TIP3   OH273962   4.581   1.781   1.135 -0.5010  0.0270  0.4049
17516TIP3    H173963   4.659   1.765   1.188  1.1253 -0.7844 -2.0637
17516TIP3    H273964   4.602   1.859   1.083 -1.6452  0.2588  0.2579
17517TIP3   OH273965   3.805   4.943  11.133  0.3065 -0.1094  0.0967
17517TIP3    H173966   3.726   4.943  11.079  0.5870  0.7553 -0.3273
17517TIP3    H273967   3.876   4.918  11.073  0.1459 -2.7792  0.8633
17518TIP3   OH273968   2.662   3.212   3.460 -0.1358 -0.6332  0.1507
17518TIP3    H173969   2.752   3.230   3.488  0.3696 -1.0595 -1.1136
17518TIP3    H273970   2.627   3.152   3.526 -0.4328  1.5672  2.1342
17519TIP3   OH273971   4.971   3.037  14.520 -0.4790 -0.3271 -0.8414
17519TIP3    H173972   5.054   2.990  14.508 -1.2651 -1.1864 -4.0311
17519TIP3    H273973   4.995   3.129  14.516  0.5507 -0.4913  0.7238
17520TIP3   OH273974   0.974   5.768   2.109 -0.0328  0.3906  0.0722
17520TIP3    H173975   0.898   5.810   2.149 -0.3465  0.1602 -0.2690
17520TIP3    H273976   1.044   5.832   2.116 -0.9880  1.8234 -2.2147
17521TIP3   OH273977   6.411   1.640  16.718 -0.3605  0.0874  0.5697
17521TIP3    H173978   6.466   1.671  16.646 -1.4913  0.1729 -0.2940
17521TIP3    H273979   6.447   1.680  16.796  0.3608  0.7053 -0.0741
17522TIP3   OH273980   6.148   5.558  11.951  0.5577 -0.0634  0.0283
17522TIP3    H173981   6.054   5.540  11.952  0.4273  0.4848 -0.8105
17522TIP3    H273982   6.179   5.521  11.868  1.5309 -2.2487  1.3004
17523TIP3   OH273983   1.787   4.346  12.565 -0.4366 -0.0994  0.1882
17523TIP3    H173984   1.868   4.393  12.542 -0.8549  0.2259 -0.6753
17523TIP3    H273985   1.761   4.303  12.483 -1.8172  0.8299  0.1036
17524TIP3   OH273986   3.813   0.443   2.704 -0.1895 -0.3858 -0.0040
17524TIP3    H173987   3.901   0.465   2.735 -0.2545  2.1532 -1.3344
17524TIP3    H273988   3.812   0.470   2.613 -1.9142 -1.7974 -0.4670
17525TIP3   OH273989   5.901   5.020  16.668 -0.2227  0.5140 -0.2876
17525TIP3    H173990   5.920   5.045  16.759 -2.0106  1.2661 -0.0738
17525TIP3    H273991   5.806   5.028  16.661 -0.2515 -0.7740 -1.8856
17526TIP3   OH273992   2.181   5.805   0.126  0.1458 -0.6589  0.8620
17526TIP3    H173993   2.112   5.815   0.061  0.8316  0.9118  0.3008
17526TIP3    H273994   2.249   5.754   0.082  0.8684  0.9111  0.0610
17527TIP3   OH273995   4.259   2.454   2.910  0.3561 -0.5309 -0.1032
17527TIP3    H173996   4.294   2.542   2.922  0.6040 -0.5725 -0.5262
17527TIP3    H273997   4.187   2.448   2.973  0.2684  0.0116 -0.1526
17528TIP3   OH273998   3.146   4.887  15.394 -0.1172  0.0147 -0.8223
17528TIP3    H173999   3.138   4.976  15.429 -0.6290 -1.2231  2.6120
17528TIP3    H274000   3.065   4.843  15.422  1.3188 -2.2494  0.1172
17529TIP3   OH274001   0.901   5.273  14.275  0.2014 -0.4178 -0.0301
17529TIP3    H174002   0.857   5.292  14.358 -0.5581  0.0019 -0.5261
17529TIP3    H274003   0.993   5.295  14.292 -0.2426  1.5520  0.1485
17530TIP3   OH274004   2.497   2.586  11.202  0.1778 -0.1322 -0.0626
17530TIP3    H174005   2.539   2.655  11.150  0.0186  0.1742  0.2119
17530TIP3    H274006   2.436   2.632  11.259 -0.4902 -0.5736 -0.4074
17531TIP3   OH274007   4.156   2.583   3.607  0.5702  0.8782  0.3289
17531TIP3    H174008   4.062   2.584   3.592  0.6158  2.6488  0.0168
17531TIP3    H274009   4.166   2.592   3.702  0.4123  2.2468  0.2371
17532TIP3   OH274010   1.671   6.169   2.399 -0.6487  0.1568 -0.4102
17532TIP3    H174011   1.577   6.159   2.415 -0.6268  1.6032  0.8415
17532TIP3    H274012   1.713   6.137   2.479  0.1366 -2.8488 -1.8850
17533TIP3   OH274013   0.809   6.476   1.848 -0.2581  0.2308  0.5063
17533TIP3    H174014   0.869   6.512   1.913 -0.0145 -0.1293  0.4806
17533TIP3    H274015   0.767   6.402   1.891  1.5711 -1.4508 -0.4726
17534TIP3   OH274016   3.385   5.843  13.073  0.5695 -1.0798 -0.6273
17534TIP3    H174017   3.350   5.792  13.146  0.6125  1.3825  1.2080
17534TIP3    H274018   3.309   5.864  13.020  0.4460 -2.3298 -0.9859
17535TIP3   OH274019   6.573   2.849  11.678 -0.2970 -0.2723 -0.8432
17535TIP3    H174020   6.480   2.859  11.659 -0.4615  0.1283  0.0978
17535TIP3    H274021   6.615   2.852  11.593 -0.9780  1.6456 -1.1727
17536TIP3   OH274022   5.515   3.433  14.290  0.2418  0.0488  0.5500
17536TIP3    H174023   5.493   3.497  14.223  0.8320  1.4563  1.6449
17536TIP3    H274024   5.443   3.370  14.286 -0.6103  1.0181 -0.2726
17537TIP3   OH274025   2.885   3.412  14.084  0.2403 -0.2114 -0.2896
17537TIP3    H174026   2.900   3.318  14.081 -0.1380 -0.2937  0.2474
17537TIP3    H274027   2.839   3.426  14.167  1.8555  0.6606  0.5085
17538TIP3   OH274028   1.227   1.186   0.163  0.4269  0.0169  0.2986
17538TIP3    H174029   1.276   1.119   0.212  0.3104 -0.5199 -0.3039
17538TIP3    H274030   1.221   1.151   0.074  2.6795  1.9849 -0.7643
17539TIP3   OH274031   1.831   3.865   5.875  0.2485  0.3178  0.3238
17539TIP3    H174032   1.870   3.908   5.952  1.1498  0.1805 -0.0408
17539TIP3    H274033   1.896   3.800   5.849  1.9786  3.0158 -2.9648
17540TIP3   OH274034   2.950   4.106   5.209  0.0715 -0.3518 -0.6195
17540TIP3    H174035   2.918   4.055   5.134 -0.1293  0.4366 -1.0752
17540TIP3    H274036   2.879   4.101   5.274 -1.1512  1.5933 -1.7198
17541TIP3   OH274037   2.329   4.546   0.452 -0.2265 -0.2738 -0.9083
17541TIP3    H174038   2.275   4.619   0.479  0.4462  0.2874 -1.0497
17541TIP3    H274039   2.404   4.586   0.409  0.7709 -0.9756  0.0961
17542TIP3   OH274040   1.278   1.568  16.432 -0.0795 -0.0876  0.1293
17542TIP3    H174041   1.191   1.542  16.404 -0.2717 -0.1435  0.7608
17542TIP3    H274042   1.304   1.501  16.496  0.9323 -0.7695 -0.9447
17543TIP3   OH274043   4.209   4.350   0.205  0.4400  0.2111 -0.3894
17543TIP3    H174044   4.261   4.286   0.155 -1.7849 -2.2385  0.1967
17543TIP3    H274045   4.122   4.347   0.164  0.2058  2.8295 -0.2270
17544TIP3   OH274046   3.356   2.889  11.817 -0.6128 -0.2149 -0.0795
17544TIP3    H174047   3.352   2.919  11.726 -0.2211  0.0035 -0.0301
17544TIP3    H274048   3.440   2.843  11.823 -0.5401 -0.0483  0.2213
17545TIP3   OH274049   1.945   2.894   3.017  0.1061 -0.3119 -0.2651
17545TIP3    H174050   1.962   2.902   3.111 -0.5977 -1.1893 -0.0525
17545TIP3    H274051   1.933   2.800   3.003 -1.1202 -0.0628 -0.9944
17546TIP3   OH274052   2.926   0.141  12.283  0.3931  0.6296 -0.9214
17546TIP3    H174053   2.891   0.191  12.210  1.3171  1.4774 -0.8079
17546TIP3    H274054   2.989   0.200  12.325 -0.4329  0.3412  0.8353
17547TIP3   OH274055   5.678   5.488   5.031  0.2912 -0.1138  0.5443
17547TIP3    H174056   5.707   5.539   4.955 -0.2392 -0.5046  0.0662
17547TIP3    H274057   5.716   5.533   5.106  0.9566  0.1922  0.0387
17548TIP3   OH274058   3.673   0.833  13.177 -0.1522  0.5714  0.4615
17548TIP3    H174059   3.764   0.802  13.172 -0.2016  0.3815  0.7437
17548TIP3    H274060   3.672   0.912  13.123 -0.4247 -0.8544 -1.7315
17549TIP3   OH274061   3.477   4.475   4.421 -0.2702 -0.0008 -0.0583
17549TIP3    H174062   3.398   4.488   4.370  0.8940  1.2210 -1.6557
17549TIP3    H274063   3.538   4.432   4.361  1.2524  1.7556  0.1293
17550TIP3   OH274064   1.938   0.949  14.851 -0.3144  0.3171 -0.3039
17550TIP3    H174065   1.843   0.943  14.839 -0.2590 -0.6412 -0.3563
17550TIP3    H274066   1.974   0.935  14.763 -0.1340  1.0419 -0.3462
17551TIP3   OH274067   5.677   0.662  16.463  0.4140 -0.0811  0.1169
17551TIP3    H174068   5.767   0.634  16.480  0.6386  0.4985 -0.1362
17551TIP3    H274069   5.685   0.746  16.419 -0.2172 -0.7348 -1.2864
17552TIP3   OH274070   4.782   2.503   4.073  0.0361 -0.0731  0.2461
17552TIP3    H174071   4.723   2.575   4.051  0.4737  0.6138  1.2503
17552TIP3    H274072   4.739   2.425   4.037 -1.2586  0.4669  0.5697
17553TIP3   OH274073   0.491   3.253  15.856  0.3222  0.4516  0.1796
17553TIP3    H174074   0.407   3.294  15.875 -0.2607  0.3207 -1.8287
17553TIP3    H274075   0.504   3.190  15.926 -2.0701 -0.6692 -0.2895
17554TIP3   OH274076   2.674   1.767  11.057 -0.1693 -0.2057 -0.1801
17554TIP3    H174077   2.626   1.709  11.116  0.6796  0.1223  0.8696
17554TIP3    H274078   2.646   1.741  10.969 -1.6199 -0.5765  0.3572
17555TIP3   OH274079   2.337   3.271   4.101  0.1524 -0.3963  0.5811
17555TIP3    H174080   2.405   3.298   4.040 -2.1291 -0.3791 -2.1570
17555TIP3    H274081   2.384   3.227   4.172  3.0225  0.4308 -0.6763
17556TIP3   OH274082   0.265   1.104   5.171 -0.0642 -0.2391 -0.1422
17556TIP3    H174083   0.187   1.111   5.116  0.3267  0.0010 -0.6689
17556TIP3    H274084   0.330   1.062   5.116 -0.3423 -2.0808  0.8607
17557TIP3   OH274085   4.619   3.053  14.038 -0.3702  0.7465  0.2478
17557TIP3    H174086   4.625   2.974  14.092  0.7759  1.1832  0.7963
17557TIP3    H274087   4.687   3.110  14.072 -0.1060  1.3354 -1.1924
17558TIP3   OH274088   4.992   6.593  15.868  0.0469  0.7471  0.2350
17558TIP3    H174089   5.000   6.590  15.963  0.9070  1.4929  0.2036
17558TIP3    H274090   4.904   6.626  15.852 -0.4929 -0.4097  0.7463
17559TIP3   OH274091   2.377   0.912  15.475 -0.2599 -0.7821 -0.1758
17559TIP3    H174092   2.351   0.921  15.383  2.8256  0.6320 -1.0524
17559TIP3    H274093   2.412   0.823  15.482 -0.2841 -0.8152 -0.4556
17560TIP3   OH274094   4.343   4.302  11.861  0.1648  0.3657  0.1278
17560TIP3    H174095   4.331   4.276  11.770  0.4850 -0.1589  0.2358
17560TIP3    H274096   4.376   4.392  11.855  0.4973  0.2229 -0.2875
17561TIP3   OH274097   5.509   3.562  15.846 -0.4584 -0.1473  0.1636
17561TIP3    H174098   5.597   3.567  15.884 -0.2592 -0.5526 -0.2161
17561TIP3    H274099   5.480   3.653  15.839  0.3926  0.0825 -0.7269
17562TIP3   OH274100   5.237   4.943   1.311  0.0551 -0.0787  0.4598
17562TIP3    H174101   5.199   5.007   1.251  0.7058 -1.0557 -1.0456
17562TIP3    H274102   5.203   4.859   1.282 -1.3247 -0.4351  2.8232
17563TIP3   OH274103   3.515   6.729   1.715 -0.3824 -1.0248 -0.0795
17563TIP3    H174104   3.580   6.766   1.655 -2.2232 -1.0794 -2.2545
17563TIP3    H274105   3.431   6.764   1.684 -1.3256  0.9663  4.0645
17564TIP3   OH274106   6.564   0.269   2.412  0.3780  0.6081  0.4391
17564TIP3    H174107   6.496   0.332   2.385  0.7524  0.5997 -0.5870
17564TIP3    H274108   6.608   0.246   2.330  1.1552  0.0669  0.9994
17565TIP3   OH274109   6.768   0.336   2.960 -0.1659  0.5987 -0.0406
17565TIP3    H174110   6.836   0.274   2.986 -1.6769 -0.8211  0.6750
17565TIP3    H274111   6.789   0.358   2.870 -0.1540 -1.7895 -0.6855
17566TIP3   OH274112   1.839   1.401   1.340 -0.4266  0.2030  0.0829
17566TIP3    H174113   1.893   1.361   1.408 -0.7568 -0.9619 -0.3043
17566TIP3    H274114   1.762   1.433   1.386 -1.5887 -2.3250  0.0848
17567TIP3   OH274115   5.683   4.094   4.233 -0.5402 -0.1618  0.6065
17567TIP3    H174116   5.721   4.160   4.176 -0.5401 -1.7325 -1.3262
17567TIP3    H274117   5.593   4.085   4.203 -0.6584 -0.7621  1.1145
17568TIP3   OH274118   3.487   6.463   5.865  0.2388 -0.5237 -0.2181
17568TIP3    H174119   3.461   6.494   5.952 -0.7666  1.1605 -1.0638
17568TIP3    H274120   3.407   6.428   5.827 -0.2415  1.9598 -1.7262
17569TIP3   OH274121   4.215   3.359  16.174 -0.0135 -0.3861 -0.3025
17569TIP3    H174122   4.290   3.299  16.175  1.4810  1.3956 -0.0238
17569TIP3    H274123   4.195   3.371  16.081 -0.8246 -1.8386 -0.3493
17570TIP3   OH274124   5.245   4.119  16.999  0.0783  0.5110 -0.4187
17570TIP3    H174125   5.237   4.197  16.943 -1.1905  1.3050  0.8093
17570TIP3    H274126   5.337   4.119  17.026  0.4129  0.8195 -1.4769
17571TIP3   OH274127   2.950   1.020  13.454 -0.1044  0.6102  0.0026
17571TIP3    H174128   2.993   1.083  13.395 -1.0233  0.8586 -0.4208
17571TIP3    H274129   2.863   1.007  13.416 -0.1928 -0.3610  0.4987
17572TIP3   OH274130   3.515   0.488   0.950 -0.5780  0.5462  0.2855
17572TIP3    H174131   3.513   0.553   0.880 -4.7386  1.1711  0.7508
17572TIP3    H274132   3.468   0.413   0.915 -1.8124  0.4571  2.0198
17573TIP3   OH274133   4.828   6.032   5.287  0.0299  0.1233 -0.1513
17573TIP3    H174134   4.909   6.009   5.241  0.5449  0.0884  0.7537
17573TIP3    H274135   4.820   6.127   5.275  0.6937  0.2719  0.5064
17574TIP3   OH274136   5.047   0.657  13.498 -0.7087  0.6657  0.6622
17574TIP3    H174137   5.016   0.581  13.449 -0.2398  1.2559 -0.6018
17574TIP3    H274138   5.142   0.656  13.487 -0.5330  0.4697  2.0977
17575TIP3   OH274139   0.904   5.218  11.801 -0.5392 -0.4360 -0.4169
17575TIP3    H174140   0.977   5.261  11.844  0.2618 -2.8297  0.7910
17575TIP3    H274141   0.940   5.186  11.718 -0.9953  0.6768 -1.0727
17576TIP3   OH274142   1.591   2.851  13.914 -0.2985  0.1035 -0.4279
17576TIP3    H174143   1.651   2.810  13.851 -0.4658  0.2411 -0.6804
17576TIP3    H274144   1.509   2.862  13.865 -0.8271 -0.9444  0.1834
17577TIP3   OH274145   5.272   2.462  16.325 -0.6927 -0.9010  0.0140
17577TIP3    H174146   5.312   2.490  16.242 -0.9485  0.5623  0.3730
17577TIP3    H274147   5.186   2.429  16.299 -0.6616 -0.7188 -0.3415
17578TIP3   OH274148   4.187   6.471   5.415 -0.3004  0.3043  0.5190
17578TIP3    H174149   4.274   6.441   5.442 -0.8691 -2.1607 -0.1465
17578TIP3    H274150   4.160   6.531   5.485  2.7550  2.9681 -0.3158
17579TIP3   OH274151   2.577   3.278   0.644  0.1777  0.2352  0.2202
17579TIP3    H174152   2.673   3.277   0.654  0.4283  0.3735 -1.8562
17579TIP3    H274153   2.555   3.370   0.637 -0.1751  0.2224  1.0571
17580TIP3   OH274154   1.729   1.199  10.784  0.1643 -0.3582 -0.2535
17580TIP3    H174155   1.725   1.249  10.702 -2.0814  0.2114  0.1238
17580TIP3    H274156   1.762   1.113  10.757 -0.8331 -0.2952 -1.8663
17581TIP3   OH274157   1.453   0.669  16.008  0.0496  0.6693  0.1394
17581TIP3    H174158   1.500   0.667  15.924 -0.8771 -0.1296 -0.3834
17581TIP3    H274159   1.500   0.605  16.062 -0.1364  0.2194 -0.2215
17582TIP3   OH274160   1.971   2.294   3.615 -0.4957  0.4673  0.1950
17582TIP3    H174161   2.008   2.276   3.528 -0.5144  1.0432  0.0683
17582TIP3    H274162   1.972   2.209   3.658 -0.8972  0.0820 -0.5246
17583TIP3   OH274163   0.691   2.060  15.267  0.0911 -0.8898 -0.2851
17583TIP3    H174164   0.702   2.090  15.177 -0.1621 -0.2885 -0.1240
17583TIP3    H274165   0.729   1.972  15.268 -1.6584 -1.7065 -1.4374
17584TIP3   OH274166   1.475   5.862   4.861 -0.3689  0.7007 -0.4025
17584TIP3    H174167   1.384   5.876   4.886 -0.6573  0.7989 -1.4470
17584TIP3    H274168   1.514   5.950   4.861 -0.5280  0.7756 -0.8590
17585TIP3   OH274169   2.817   5.574  11.590  0.1159  0.1032 -0.0660
17585TIP3    H174170   2.852   5.630  11.659 -2.2725 -0.8391  2.0457
17585TIP3    H274171   2.780   5.635  11.525 -1.0588  1.0356  1.4181
17586TIP3   OH274172   3.322   5.305  17.052  0.0957  0.1012 -0.1705
17586TIP3    H174173   3.308   5.391  17.094  0.2305 -0.6516  1.4958
17586TIP3    H274174   3.261   5.305  16.978 -1.7214  0.7068  1.2373
17587TIP3   OH274175   0.864   3.372  12.860 -0.1906 -0.7272  0.5485
17587TIP3    H174176   0.894   3.294  12.815 -0.3795 -0.8395  0.6144
17587TIP3    H274177   0.932   3.438  12.843 -0.6471 -0.5296 -0.5620
17588TIP3   OH274178   5.882   4.044  13.933 -0.4007  0.0449 -0.1463
17588TIP3    H174179   5.857   3.953  13.915  0.0292  0.2006 -1.6349
17588TIP3    H274180   5.881   4.087  13.848  1.7699  0.8557  0.1797
17589TIP3   OH274181   4.534   3.784   2.200  0.6162  0.4369  0.5240
17589TIP3    H174182   4.581   3.817   2.123  0.9423 -0.5502  0.2910
17589TIP3    H274183   4.559   3.692   2.206 -0.0857  0.2873  1.3101
17590TIP3   OH274184   2.410   1.286  15.179 -0.2636  0.0174 -0.2573
17590TIP3    H174185   2.361   1.312  15.101 -0.1180 -1.1233 -0.7522
17590TIP3    H274186   2.344   1.246  15.236 -0.7095  2.3470  0.9908
17591TIP3   OH274187   2.186   0.174   1.340  0.2549 -0.2883 -0.1557
17591TIP3    H174188   2.208   0.157   1.432 -0.8711 -0.8361  0.0373
17591TIP3    H274189   2.122   0.106   1.318  0.1300  0.1466 -1.1951
17592TIP3   OH274190   6.131   5.786  13.512 -0.0254 -0.7938 -0.2263
17592TIP3    H174191   6.107   5.875  13.539 -0.0993 -1.5134  2.4018
17592TIP3    H274192   6.224   5.779  13.533 -0.7618 -2.3830  3.2292
17593TIP3   OH274193   3.618   6.567  16.459 -0.0143  0.1675 -0.5282
17593TIP3    H174194   3.707   6.599  16.446 -0.3192  1.0306 -0.5919
17593TIP3    H274195   3.574   6.583  16.375 -0.3574  0.2262 -0.3420
17594TIP3   OH274196   2.888   1.255   3.769 -0.5902  0.1188 -0.2882
17594TIP3    H174197   2.903   1.342   3.806 -0.2246  0.4568 -1.2044
17594TIP3    H274198   2.797   1.256   3.740 -0.7401  0.0129  0.1761
17595TIP3   OH274199   6.422   1.760  16.963  0.1720 -0.2999  0.2788
17595TIP3    H174200   6.391   1.704  17.035  1.5263 -0.9221  0.4179
17595TIP3    H274201   6.518   1.757  16.971  0.3313 -0.0545 -1.3188
17596TIP3   OH274202   2.061   0.228  12.275 -0.5115  0.0610 -0.5564
17596TIP3    H174203   2.080   0.277  12.195  0.9224  0.0753 -0.2233
17596TIP3    H274204   2.018   0.292  12.333 -0.0593  0.4939 -0.6983
17597TIP3   OH274205   3.051   0.291  14.983  0.1583 -0.0850 -1.1432
17597TIP3    H174206   3.090   0.280  14.896 -1.2290  0.8948 -1.9275
17597TIP3    H274207   2.977   0.230  14.985  0.5753 -0.5917 -0.3684
17598TIP3   OH274208   1.860   4.573  12.036 -0.1711  0.1247 -0.1819
17598TIP3    H174209   1.778   4.616  12.011 -0.4890  0.5351  1.4053
17598TIP3    H274210   1.833   4.485  12.064 -0.8719  1.4927  4.3342
17599TIP3   OH274211   4.955   4.087   4.249  0.2930 -0.1921  0.6671
17599TIP3    H174212   4.885   4.036   4.289  0.3878 -0.2022  0.8244
17599TIP3    H274213   4.934   4.178   4.271  0.6313 -0.2362  1.2087
17600TIP3   OH274214   2.167   1.929  13.377  0.0463  0.0155 -0.2096
17600TIP3    H174215   2.133   2.018  13.375  0.7211  0.3014  0.7616
17600TIP3    H274216   2.258   1.936  13.349  0.4433 -0.1915  0.9662
17601TIP3   OH274217   2.546   3.006  14.466  0.3889  0.1552 -0.0122
17601TIP3    H174218   2.452   3.010  14.486  0.5733 -0.9447  1.1937
17601TIP3    H274219   2.556   2.926  14.414  0.9591 -1.1061  1.9292
17602TIP3   OH274220   5.837   3.481   1.440  0.0445 -0.6422 -0.3467
17602TIP3    H174221   5.759   3.440   1.404  0.3757 -1.0742 -0.5793
17602TIP3    H274222   5.819   3.489   1.534 -0.3018 -0.6866 -0.4093
17603TIP3   OH274223   5.185   5.262   2.222  0.1740  0.1900 -0.4030
17603TIP3    H174224   5.280   5.260   2.228  0.1791  1.9139  0.7682
17603TIP3    H274225   5.155   5.268   2.312 -1.1954 -2.4213 -0.5779
17604TIP3   OH274226   2.491   2.958  11.153 -0.6656 -0.2510  0.1940
17604TIP3    H174227   2.582   2.965  11.181 -1.2849  4.2748  1.8906
17604TIP3    H274228   2.487   3.006  11.070 -1.5959  0.4085  0.5946
17605TIP3   OH274229   6.268   1.794   5.480  0.1881  0.2289  0.5071
17605TIP3    H174230   6.176   1.816   5.466  0.3143  0.5545  0.1724
17605TIP3    H274231   6.309   1.807   5.394  0.4967 -0.1648  0.5897
17606TIP3   OH274232   6.568   4.297  12.522 -0.3548  0.1852  0.2757
17606TIP3    H174233   6.488   4.334  12.485 -0.9543 -0.2659  1.0920
17606TIP3    H274234   6.631   4.301  12.450 -0.4958  2.4174  0.2105
17607TIP3   OH274235   1.823   3.740   5.437  0.5261 -0.1414  0.6175
17607TIP3    H174236   1.841   3.745   5.343 -0.4850  0.1715  0.4351
17607TIP3    H274237   1.902   3.700   5.474  1.3174  0.5757 -0.2439
17608TIP3   OH274238   4.126   5.460  13.435 -1.0042 -0.4471  0.2395
17608TIP3    H174239   4.191   5.459  13.365 -0.0501  0.8127  1.0623
17608TIP3    H274240   4.176   5.444  13.515 -1.9142 -0.7792  0.7554
17609TIP3   OH274241   3.810   2.084  15.643  0.9675 -0.6698 -0.2479
17609TIP3    H174242   3.804   2.085  15.547  1.0892 -2.2601 -0.2937
17609TIP3    H274243   3.835   1.995  15.665  0.9638 -0.3241  1.2826
17610TIP3   OH274244   3.368   0.750   4.776  0.2726  0.4191  0.4556
17610TIP3    H174245   3.369   0.656   4.798 -0.3406 -0.2922 -2.1976
17610TIP3    H274246   3.279   0.778   4.797  0.7465  0.7165  2.2215
17611TIP3   OH274247   1.666   5.715   4.998 -0.0643 -0.1064 -0.2614
17611TIP3    H174248   1.613   5.737   4.921  0.2910 -0.4356 -0.6035
17611TIP3    H274249   1.625   5.764   5.070 -0.7806 -0.2859 -0.5369
17612TIP3   OH274250   1.179   2.445  16.631 -0.0752  0.0388 -0.1692
17612TIP3    H174251   1.157   2.382  16.563 -0.1684 -1.4998  1.2302
17612TIP3    H274252   1.271   2.429  16.651 -0.3737 -0.4202  0.9314
17613TIP3   OH274253   5.494   1.584   5.637  0.2983 -0.3113 -0.2562
17613TIP3    H174254   5.419   1.597   5.695  1.4232  2.0965  0.8353
17613TIP3    H274255   5.508   1.490   5.636 -1.8340 -0.6937  0.6619
17614TIP3   OH274256   4.074   1.040  10.334 -0.1816  0.5284  0.3431
17614TIP3    H174257   4.102   0.950  10.320  0.2044  0.5859  0.7266
17614TIP3    H274258   4.033   1.040  10.421 -1.0895  0.5155 -0.0737
17615TIP3   OH274259   2.997   6.064  11.802 -0.3515  0.3135  0.3250
17615TIP3    H174260   2.950   6.134  11.849  0.0682  0.8155  0.0026
17615TIP3    H274261   2.927   6.013  11.760 -0.6267  0.9805 -0.0490
17616TIP3   OH274262   5.476   4.919  14.717 -0.3215  0.0576 -0.3404
17616TIP3    H174263   5.460   4.902  14.810  0.9242 -0.3380 -0.1694
17616TIP3    H274264   5.473   5.015  14.710 -1.9284  0.0345 -0.2125
17617TIP3   OH274265   0.090   4.035   3.187  0.3043  0.0307 -0.3938
17617TIP3    H174266   0.093   4.011   3.280  3.6550 -1.9689 -0.8475
17617TIP3    H274267   0.112   4.128   3.185 -0.0198  0.1489  0.8360
17618TIP3   OH274268   1.968   1.716   3.216  0.0739 -0.4584  0.2823
17618TIP3    H174269   1.999   1.626   3.208  0.5197 -0.2787 -0.0701
17618TIP3    H274270   1.955   1.745   3.126  1.4359  0.3353  0.3207
17619TIP3   OH274271   4.120   3.812  13.406  0.0249  0.2187  0.4687
17619TIP3    H174272   4.073   3.885  13.447 -0.5082  0.0543  0.1523
17619TIP3    H274273   4.079   3.734  13.443 -1.4451  0.0381 -1.4439
17620TIP3   OH274274   5.828   0.750  14.119  0.4062 -0.0797  0.1237
17620TIP3    H174275   5.871   0.727  14.201  2.0609 -0.4346 -0.7959
17620TIP3    H274276   5.846   0.677  14.060  0.3868  0.7436 -0.9476
17621TIP3   OH274277   5.605   1.300   5.716 -0.4276  0.0292 -0.5895
17621TIP3    H174278   5.520   1.259   5.695 -1.1127  0.8663  0.4626
17621TIP3    H274279   5.611   1.296   5.811  0.3119  0.7818 -0.5940
17622TIP3   OH274280   4.335   4.405   0.455  0.0565 -0.1334 -0.0962
17622TIP3    H174281   4.270   4.475   0.462 -0.4708 -0.5989 -0.2417
17622TIP3    H274282   4.312   4.359   0.374 -0.6644 -1.5105  0.8405
17623TIP3   OH274283   4.314   1.939   3.015  0.0161  0.0657  0.0204
17623TIP3    H174284   4.263   1.960   2.937  0.4857  0.9877 -0.0515
17623TIP3    H274285   4.262   1.971   3.088  0.3393  0.7354 -0.0340
17624TIP3   OH274286   5.699   0.695  15.338 -0.1561  0.2837 -0.2574
17624TIP3    H174287   5.654   0.778  15.323 -1.0753 -0.2175 -0.3011
17624TIP3    H274288   5.632   0.628  15.327  0.1783 -0.3870  1.4200
17625TIP3   OH274289   6.078   3.400   2.176  0.6208 -0.5480  0.1824
17625TIP3    H174290   5.991   3.384   2.139 -0.3480 -2.9833  3.1624
17625TIP3    H274291   6.139   3.368   2.109 -0.7435  0.2895 -1.5454
17626TIP3   OH274292   3.855   1.041   1.672 -0.5063  0.0649  0.6155
17626TIP3    H174293   3.927   1.036   1.609  0.4626  4.1373  1.0669
17626TIP3    H274294   3.882   0.985   1.745  0.7378 -0.8212 -0.4829
17627TIP3   OH274295   1.577   2.272  16.032  0.5621 -0.1455 -0.1977
17627TIP3    H174296   1.503   2.225  15.993 -1.2799  1.7597  0.7934
17627TIP3    H274297   1.629   2.204  16.074 -0.0729 -1.6598 -1.7392
17628TIP3   OH274298   6.042   5.688  16.290 -0.2422 -0.4355  0.0698
17628TIP3    H174299   6.079   5.770  16.320 -1.0408 -0.2291  0.5274
17628TIP3    H274300   6.100   5.620  16.325  1.4315 -0.0388 -1.7520
17629TIP3   OH274301   1.738   6.738  12.024 -0.2581  0.6234  0.4565
17629TIP3    H174302   1.744   6.743  12.119 -1.7058  1.6221  0.5324
17629TIP3    H274303   1.827   6.719  11.994 -0.0921 -1.5979  2.0945
17630TIP3   OH274304   1.551   1.249  14.279  0.0170  0.2983 -1.0905
17630TIP3    H174305   1.580   1.158  14.291  0.7212  0.4925 -1.3108
17630TIP3    H274306   1.629   1.296  14.250  0.1368  1.3833  0.8514
17631TIP3   OH274307   0.810   4.806   4.301  0.3286 -0.0686  0.2172
17631TIP3    H174308   0.719   4.796   4.275  0.4799  1.6309 -1.1969
17631TIP3    H274309   0.851   4.723   4.277 -0.6252 -0.4405 -0.1693
17632TIP3   OH274310   6.631   0.781   4.848  0.2322  0.1478 -0.3228
17632TIP3    H174311   6.554   0.837   4.861  0.2276  0.1390 -0.3120
17632TIP3    H274312   6.640   0.733   4.930 -0.1731 -0.3775 -0.5804
17633TIP3   OH274313   2.107   6.611  16.628 -0.4248 -0.3237 -0.6299
17633TIP3    H174314   2.070   6.694  16.658  0.0045  0.2194 -1.5535
17633TIP3    H274315   2.105   6.617  16.532 -1.6684 -1.9541 -0.7522
17634TIP3   OH274316   3.607   1.811   6.116  0.2706  0.6555  0.5170
17634TIP3    H174317   3.538   1.761   6.161 -0.0776 -0.4240 -1.1256
17634TIP3    H274318   3.576   1.901   6.118 -1.9896  0.0389 -1.3923
17635TIP3   OH274319   3.592   5.411  15.150 -0.3716 -0.0881 -0.0228
17635TIP3    H174320   3.681   5.380  15.170  0.2416  1.1798 -0.6549
17635TIP3    H274321   3.558   5.438  15.235  0.9048  1.9579 -0.0829
17636TIP3   OH274322   0.591   4.166  17.152  0.2025 -0.3354 -0.5194
17636TIP3    H174323   0.639   4.238  17.194 -1.1830  0.7513 -0.7194
17636TIP3    H274324   0.636   4.152  17.069  2.1697 -1.6113  0.6853
17637TIP3   OH274325   4.384   2.360   5.590 -0.0317  0.5127 -0.2322
17637TIP3    H174326   4.367   2.266   5.592 -0.5485  0.5772  2.9430
17637TIP3    H274327   4.351   2.389   5.505 -1.0285 -1.9564 -0.7586
17638TIP3   OH274328   3.164   4.934   3.513 -0.1864  0.4281 -1.0465
17638TIP3    H174329   3.190   5.020   3.546 -0.9469  0.7510 -1.2768
17638TIP3    H274330   3.080   4.917   3.555 -0.9514  0.6461 -2.4322
17639TIP3   OH274331   1.893   6.340  12.046 -0.0111 -0.4195  0.0762
17639TIP3    H174332   1.876   6.400  11.973  0.0110  1.4396  1.5225
17639TIP3    H274333   1.823   6.276  12.041  0.3702 -0.7740 -1.9548
17640TIP3   OH274334   4.008   3.013   1.972 -0.2724 -0.3785  0.2358
17640TIP3    H174335   3.923   3.055   1.955 -0.4826 -0.7988  0.2416
17640TIP3    H274336   4.062   3.083   2.008 -0.3971  0.0642 -0.4221
17641TIP3   OH274337   5.912   1.242  14.104  0.1832 -0.1329  0.7540
17641TIP3    H174338   5.961   1.256  14.185  0.9409 -1.0513  0.4749
17641TIP3    H274339   5.976   1.206  14.043 -0.7329 -0.9513  0.2367
17642TIP3   OH274340   2.638   4.477  16.406  0.2909 -0.0537 -0.2874
17642TIP3    H174341   2.669   4.545  16.465  0.4661 -0.2258 -0.1789
17642TIP3    H274342   2.670   4.503  16.320  0.1384  0.1343 -0.2874
17643TIP3   OH274343   1.108   1.318  11.763 -0.1783 -0.0164  0.0785
17643TIP3    H174344   1.117   1.283  11.674 -2.0885  2.8675 -1.3983
17643TIP3    H274345   1.187   1.370  11.776  0.6524 -1.3376  0.6200
17644TIP3   OH274346   6.248   0.879  13.006 -0.0032  0.8718  0.2038
17644TIP3    H174347   6.222   0.799  13.052  0.8206  0.8222  0.6096
17644TIP3    H274348   6.258   0.851  12.914 -0.3343  0.6589  0.2291
17645TIP3   OH274349   3.022   1.208   3.398  0.4446 -0.4229 -0.6471
17645TIP3    H174350   3.064   1.294   3.404  1.3997 -0.9276  0.2192
17645TIP3    H274351   2.956   1.209   3.467  1.0482 -0.6888 -0.0563
17646TIP3   OH274352   3.315   3.941  11.400 -0.0354  0.2825 -0.1943
17646TIP3    H174353   3.400   3.946  11.442 -0.2645 -0.0044  0.3139
17646TIP3    H274354   3.334   3.939  11.306  0.4988  0.4997 -0.0914
17647TIP3   OH274355   5.460   4.542   5.455 -0.6601 -0.3285 -0.2303
17647TIP3    H174356   5.498   4.454   5.447  0.8350  0.0047  2.2420
17647TIP3    H274357   5.365   4.527   5.447 -0.4458 -2.1607  0.0641
17648TIP3   OH274358   5.377   4.885  17.211 -0.1078  0.2501  0.2855
17648TIP3    H174359   5.299   4.860  17.161  0.6053 -0.5733 -0.4363
17648TIP3    H274360   5.411   4.803  17.246  1.5848  0.3086 -1.1155
17649TIP3   OH274361   4.929   0.401  12.719 -0.0156  0.1331  0.1183
17649TIP3    H174362   4.855   0.452  12.687  1.0786  0.5278 -1.9827
17649TIP3    H274363   4.975   0.461  12.779 -1.1468  0.0071  1.1470
17650TIP3   OH274364   5.470   6.226  11.573  0.2524 -0.1730  0.2383
17650TIP3    H174365   5.465   6.229  11.669  2.1877 -2.4723  0.5102
17650TIP3    H274366   5.555   6.265  11.552 -0.2355  0.4903 -0.5979
17651TIP3   OH274367   3.828   4.942   5.123  0.5466 -0.5776  0.3069
17651TIP3    H174368   3.802   4.959   5.033  2.1467  0.4219 -0.0166
17651TIP3    H274369   3.911   4.989   5.133  1.1754 -1.9208  1.8406
17652TIP3   OH274370   1.590   0.354   3.062 -0.3437  0.1048 -0.1012
17652TIP3    H174371   1.603   0.265   3.029 -2.5350 -0.2389 -0.1435
17652TIP3    H274372   1.641   0.357   3.143  0.6944 -0.7830 -0.6856
17653TIP3   OH274373   2.863   3.689  14.947 -0.4431  0.4752 -0.1947
17653TIP3    H174374   2.793   3.742  14.909 -0.0136  1.3550  0.2270
17653TIP3    H274375   2.935   3.750  14.962 -0.1811 -0.0797  0.9489
17654TIP3   OH274376   3.620   2.543   0.494  0.0082  0.3036 -0.1582
17654TIP3    H174377   3.619   2.525   0.400 -0.2930  0.3800 -0.1682
17654TIP3    H274378   3.578   2.628   0.503  1.0800  0.8392 -0.0664
17655TIP3   OH274379   0.859   1.628  15.669 -0.1029 -0.2969 -0.6734
17655TIP3    H174380   0.889   1.695  15.607  1.7374 -0.8152 -0.3703
17655TIP3    H274381   0.861   1.546  15.619 -0.7905 -0.3912 -0.5604
17656TIP3   OH274382   1.990   6.403  12.720 -0.0048  0.3063  0.8772
17656TIP3    H174383   2.026   6.491  12.735 -2.0928  1.1475  1.3416
17656TIP3    H274384   1.896   6.417  12.712 -0.2045 -1.6485 -1.2135
17657TIP3   OH274385   3.115   2.694  13.787 -0.0698  0.2172  0.1433
17657TIP3    H174386   3.133   2.697  13.694 -1.8558 -2.7816 -0.4375
17657TIP3    H274387   3.175   2.629  13.822  0.0684  0.7572  0.9635
17658TIP3   OH274388   0.710   1.399  16.165  0.8097 -0.7665  0.0679
17658TIP3    H174389   0.698   1.317  16.213 -0.2789 -0.9182 -0.4351
17658TIP3    H274390   0.754   1.374  16.084  1.6899 -0.6516  0.4908
17659TIP3   OH274391   0.079   2.043   6.052  0.0112 -0.0103 -0.3469
17659TIP3    H174392   0.020   1.969   6.064  0.1468 -0.0521  0.0716
17659TIP3    H274393   0.109   2.065   6.141  0.2693  0.2988 -0.5077
17660TIP3   OH274394   3.137   3.633   6.352  0.1052  0.7080 -0.2392
17660TIP3    H174395   3.158   3.613   6.261  1.6097  0.4801  0.1394
17660TIP3    H274396   3.184   3.567   6.402  0.0495  1.4081  0.7484
17661TIP3   OH274397   3.571   1.995  10.598  0.1493  0.3194  0.4652
17661TIP3    H174398   3.631   1.939  10.549 -0.1895 -1.2333  1.7181
17661TIP3    H274399   3.592   2.084  10.570  0.2740 -0.4388 -2.0964
17662TIP3   OH274400   0.736   4.152  11.374 -0.3992  0.5406 -0.0853
17662TIP3    H174401   0.825   4.125  11.397 -0.5690 -0.5465 -0.6154
17662TIP3    H274402   0.704   4.082  11.316 -1.1384  1.5460 -0.9398
17663TIP3   OH274403   3.510   3.402  10.966 -0.3368  0.3329  0.5498
17663TIP3    H174404   3.590   3.359  10.936  0.7412  2.2435  0.5781
17663TIP3    H274405   3.514   3.398  11.061 -0.2746  0.4404  0.5515
17664TIP3   OH274406   4.432   4.890  12.283 -0.7208 -0.6795  0.3056
17664TIP3    H174407   4.415   4.959  12.219 -0.9017 -0.2267  0.8345
17664TIP3    H274408   4.355   4.834  12.279 -1.3916  0.1649  1.1607
17665TIP3   OH274409   0.629   0.690  14.591 -0.4826  0.1453 -0.4237
17665TIP3    H174410   0.586   0.612  14.626  1.1658 -0.2495  0.8096
17665TIP3    H274411   0.598   0.761  14.647  0.1686 -0.0741  0.2150
17666TIP3   OH274412   0.094   5.740   3.774 -0.3827  0.1259  0.0912
17666TIP3    H174413   0.172   5.708   3.818 -0.3143 -0.4682 -0.4467
17666TIP3    H274414   0.114   5.733   3.681 -1.3919 -0.8707 -0.0748
17667TIP3   OH274415   0.841   3.196  16.516 -0.0211 -0.2778  0.4376
17667TIP3    H174416   0.914   3.251  16.545  0.8098 -2.2939  2.4585
17667TIP3    H274417   0.823   3.226  16.427  2.9855  0.6058 -0.0010
17668TIP3   OH274418   0.286   4.484  12.036 -0.0056 -0.3970 -0.2403
17668TIP3    H174419   0.380   4.500  12.025 -0.1141 -1.0816 -2.7123
17668TIP3    H274420   0.265   4.419  11.969 -2.1844 -0.5753  0.5444
17669TIP3   OH274421   2.597   6.261  12.969  0.1910 -0.7018  0.2255
17669TIP3    H174422   2.570   6.232  13.056  2.7730  1.7297  1.9976
17669TIP3    H274423   2.515   6.285  12.925 -1.1753 -1.9741  1.9241
17670TIP3   OH274424   2.177   2.233   4.933 -0.1197 -0.1672 -0.2106
17670TIP3    H174425   2.139   2.172   4.996  0.4617 -0.5214 -0.2049
17670TIP3    H274426   2.151   2.198   4.847  0.1126 -0.3601 -0.2034
17671TIP3   OH274427   2.315   6.762   0.375  0.5583 -0.4735  0.3122
17671TIP3    H174428   2.319   6.737   0.467  2.0678 -1.5108  0.0078
17671TIP3    H274429   2.288   6.682   0.330  0.8474 -0.2606 -0.2443
17672TIP3   OH274430   3.387   2.842  13.602 -0.0928  0.7853  0.0965
17672TIP3    H174431   3.466   2.829  13.655  1.6280  0.2922 -2.4148
17672TIP3    H274432   3.417   2.890  13.524 -2.7025  2.4884 -0.0103
17673TIP3   OH274433   4.058   6.427   4.919 -0.4915 -0.5929 -0.3091
17673TIP3    H174434   3.999   6.354   4.937 -1.0931 -0.0155  0.1241
17673TIP3    H274435   4.108   6.437   5.000 -1.2463  0.2241  0.0770
17674TIP3   OH274436   3.225   2.896   1.208  0.7918  0.7101 -1.0891
17674TIP3    H174437   3.173   2.865   1.134  1.5143  1.4819 -1.9419
17674TIP3    H274438   3.170   2.962   1.249 -0.9678 -1.8334  1.0250
17675TIP3   OH274439   5.445   6.521  14.284  0.3495 -0.2019  0.7007
17675TIP3    H174440   5.476   6.604  14.320  1.9087 -0.5474  0.2364
17675TIP3    H274441   5.419   6.543  14.194 -0.6359  0.0612  1.0434
17676TIP3   OH274442   4.256   1.385   2.358  0.1194 -0.2067 -0.3603
17676TIP3    H174443   4.325   1.448   2.379 -0.4029  0.4759 -0.6639
17676TIP3    H274444   4.298   1.323   2.298  0.0517  1.1505 -1.8821
17677TIP3   OH274445   1.164   2.345  12.098  0.0569  0.3668 -0.1901
17677TIP3    H174446   1.096   2.290  12.058  0.5695 -1.0372  0.7920
17677TIP3    H274447   1.118   2.426  12.120 -0.7077  0.3958 -1.7336
17678TIP3   OH274448   5.958   1.667  15.382  0.4202  0.3162  0.3688
17678TIP3    H174449   5.927   1.596  15.438 -0.5718 -0.2301 -0.8101
17678TIP3    H274450   5.920   1.648  15.296  1.8917  1.1038 -0.5141
17679TIP3   OH274451   5.876   1.205  12.438  0.0994 -0.2643 -0.7891
17679TIP3    H174452   5.792   1.231  12.400 -1.0532  1.1152  2.3542
17679TIP3    H274453   5.941   1.254  12.387 -0.9412 -1.1755 -3.1355
17680TIP3   OH274454   4.439   2.648   0.656 -0.4903  0.1509  0.0936
17680TIP3    H174455   4.447   2.743   0.649 -1.6946  0.1942 -1.2049
17680TIP3    H274456   4.506   2.622   0.719 -0.9376  1.9872  1.3863
17681TIP3   OH274457   1.888   1.181   1.145 -0.4194  0.9081  0.0945
17681TIP3    H174458   1.883   1.262   1.196  0.5080  0.7189  0.5197
17681TIP3    H274459   1.877   1.208   1.054  2.2204  1.8830 -0.0311
17682TIP3   OH274460   5.100   4.290  15.253  0.2020 -0.2887  0.3462
17682TIP3    H174461   5.027   4.324  15.304 -0.8218 -0.3186 -1.0514
17682TIP3    H274462   5.132   4.365  15.204  1.9026 -0.0007  1.7969
17683TIP3   OH274463   5.927   0.418  15.526  0.3296  0.3377 -0.1855
17683TIP3    H174464   5.967   0.332  15.540  1.6584  1.0355  0.4384
17683TIP3    H274465   5.888   0.441  15.610 -1.6270 -0.4165 -0.8347
17684TIP3   OH274466   4.774   2.274   2.385 -0.0187 -0.3192 -0.2494
17684TIP3    H174467   4.694   2.250   2.431  0.6113 -0.2779  0.8967
17684TIP3    H274468   4.831   2.197   2.392  0.1335 -0.2743 -0.8740
17685TIP3   OH274469   5.452   6.521  15.922  0.9443 -0.3796  0.8193
17685TIP3    H174470   5.468   6.614  15.934 -1.5184  0.1219  0.8121
17685TIP3    H274471   5.442   6.486  16.011 -0.8121 -0.0419  0.7886
17686TIP3   OH274472   5.788   2.361   0.552 -0.0582  0.2153  0.0440
17686TIP3    H174473   5.876   2.397   0.547  1.1409 -2.2905  1.2299
17686TIP3    H274474   5.777   2.313   0.470  0.8102 -1.6391  0.9401
17687TIP3   OH274475   6.666   3.047   5.974 -0.3259 -0.2277 -0.3646
17687TIP3    H174476   6.581   3.003   5.965 -0.7372  0.8108 -1.9315
17687TIP3    H274477   6.657   3.099   6.054 -0.0258 -2.4273  1.2141
17688TIP3   OH274478   1.937   5.846  13.550  0.5522  0.0596 -0.0553
17688TIP3    H174479   1.857   5.899  13.554  1.1096  0.8343  1.1804
17688TIP3    H274480   1.908   5.757  13.569  0.2166  0.6234  2.3928
17689TIP3   OH274481   0.113   3.530  16.753  0.5548  0.5790 -0.4919
17689TIP3    H174482   0.065   3.476  16.815  2.6439  0.4822  1.1575
17689TIP3    H274483   0.066   3.614  16.753 -1.4884 -0.4916 -1.5005
17690TIP3   OH274484   3.303   0.115   2.075 -0.6864  0.3828 -0.0548
17690TIP3    H174485   3.353   0.050   2.123 -0.9182  0.7794  0.7368
17690TIP3    H274486   3.353   0.196   2.084 -0.7109  0.4561 -0.5257
17691TIP3   OH274487   2.684   6.031   3.973  0.4821 -0.2409 -0.0520
17691TIP3    H174488   2.712   5.989   4.055 -0.4046 -1.7059 -0.4725
17691TIP3    H274489   2.627   6.103   4.002  0.2284 -0.7011  0.6257
17692TIP3   OH274490   5.692   0.232  16.723  1.1508 -0.2493  0.2398
17692TIP3    H174491   5.785   0.232  16.702  1.4844  0.4844  1.6041
17692TIP3    H274492   5.688   0.213  16.817 -0.1500 -1.4959 -0.0326
17693TIP3   OH274493   0.102   1.127   6.624  0.0296 -0.0884 -0.4310
17693TIP3    H174494   0.034   1.168   6.678  1.1085  2.0100 -0.5659
17693TIP3    H274495   0.182   1.175   6.645  0.6879  0.1747 -3.1388
17694TIP3   OH274496   5.282   5.654  11.206  0.3041  0.0061 -0.4875
17694TIP3    H174497   5.223   5.726  11.185 -0.1149 -0.8245 -2.3063
17694TIP3    H274498   5.225   5.584  11.239  0.7413  0.5435  1.6028
17695TIP3   OH274499   4.193   6.457  11.616  0.2076  0.1325 -0.2977
17695TIP3    H174500   4.151   6.534  11.655 -0.7681 -0.1053 -0.8271
17695TIP3    H274501   4.276   6.490  11.581  0.1884  0.7563  0.2278
17696TIP3   OH274502   3.309   0.424  11.297 -0.2052 -0.0017  0.0189
17696TIP3    H174503   3.279   0.507  11.260  0.4951  0.5658  0.6885
17696TIP3    H274504   3.376   0.394  11.236  0.7470  0.7908  0.6489
17697TIP3   OH274505   6.189   5.426   6.357 -0.2728 -0.4167 -0.1392
17697TIP3    H174506   6.279   5.447   6.331 -0.6689  0.0106 -1.2485
17697TIP3    H274507   6.152   5.510   6.384 -0.0190 -0.7756  1.4241
17698TIP3   OH274508   1.971   0.747   2.442  0.2182 -0.5187 -0.0416
17698TIP3    H174509   2.064   0.765   2.448  0.5427 -2.0781  0.0259
17698TIP3    H274510   1.952   0.692   2.518 -0.3064 -1.8683 -1.0970
17699TIP3   OH274511   6.390   3.009  16.887 -0.3568 -0.2341 -0.6829
17699TIP3    H174512   6.394   2.913  16.881  0.0882 -0.2021 -0.9009
17699TIP3    H274513   6.452   3.040  16.821 -1.0683  0.2202 -1.1594
17700TIP3   OH274514   3.580   3.156  13.807 -0.0494  0.1116 -0.3204
17700TIP3    H174515   3.554   3.248  13.811 -0.4502  0.0447 -1.1498
17700TIP3    H274516   3.575   3.134  13.714 -1.5304 -1.1835  0.0297
17701TIP3   OH274517   1.048   1.155   1.590  0.0501  0.0025  0.1494
17701TIP3    H174518   0.964   1.196   1.610 -1.6109 -2.3996 -1.3045
17701TIP3    H274519   1.084   1.131   1.675 -1.9701 -1.0771  0.7730
17702TIP3   OH274520   0.323   6.496   2.281  0.1684 -0.3490  0.1114
17702TIP3    H174521   0.346   6.457   2.365  1.0871  0.5424  0.3064
17702TIP3    H274522   0.291   6.584   2.303  1.0261  0.1337 -0.4961
17703TIP3   OH274523   1.142   0.958  12.767 -0.1330 -0.1415 -0.1428
17703TIP3    H174524   1.195   1.013  12.826  0.0660 -0.9623  0.4573
17703TIP3    H274525   1.125   1.014  12.692  0.4895  0.5805  0.2375
17704TIP3   OH274526   3.018   4.911  13.486 -0.4964  0.3240  0.4833
17704TIP3    H174527   3.105   4.873  13.472 -1.2007 -0.4394 -2.4051
17704TIP3    H274528   3.036   5.002  13.509  1.0668  0.1365  0.1556
17705TIP3   OH274529   3.675   2.613   0.881  0.2319 -0.4997 -0.2519
17705TIP3    H174530   3.666   2.582   0.791 -0.4794 -2.7503  0.5120
17705TIP3    H274531   3.629   2.697   0.882  0.9388 -0.0428 -2.1352
17706TIP3   OH274532   0.265   2.435   4.105  0.0757  0.2249  0.0258
17706TIP3    H174533   0.294   2.524   4.124  0.8371 -0.1954  0.8983
17706TIP3    H274534   0.170   2.437   4.116  0.0306  1.0262 -0.4111
17707TIP3   OH274535   2.900   5.823   2.667  0.0200  0.9799 -0.7485
17707TIP3    H174536   2.835   5.755   2.648  1.1423  0.1054 -1.5444
17707TIP3    H274537   2.952   5.831   2.587  1.0638  1.4861 -0.0506
17708TIP3   OH274538   1.054   1.217  13.904 -0.5996 -0.5324  0.6716
17708TIP3    H174539   1.122   1.158  13.869  0.6224  0.4118  1.3569
17708TIP3    H274540   1.063   1.209  13.999 -0.7970  0.3473  0.7658
17709TIP3   OH274541   3.785   5.721  13.042  0.2097 -0.0970  0.2408
17709TIP3    H174542   3.789   5.802  13.093 -1.6641 -0.5049  1.1349
17709TIP3    H274543   3.873   5.684  13.049  0.3042  0.3933  2.3364
17710TIP3   OH274544   6.713   0.221  12.925 -0.6278  0.3828  0.1738
17710TIP3    H174545   6.789   0.177  12.887 -0.6196 -0.2137  0.8566
17710TIP3    H274546   6.652   0.231  12.853 -1.8809 -3.4154  0.5002
17711TIP3   OH274547   1.017   1.800  15.503 -0.3143  0.3182  0.4099
17711TIP3    H174548   1.043   1.853  15.579  1.9058  1.3072 -0.9609
17711TIP3    H274549   1.084   1.732  15.498 -0.2820  0.4347 -0.8288
17712TIP3   OH274550   0.124   3.489  14.800  0.6567  0.0934  0.2664
17712TIP3    H174551   0.118   3.553  14.871  0.4999 -0.4227  0.7301
17712TIP3    H274552   0.082   3.410  14.835  0.7337 -0.2249 -0.3381
17713TIP3   OH274553   3.761   0.039  15.967  0.1960 -0.0430  0.2639
17713TIP3    H174554   3.702   0.036  15.892 -3.0341  0.4297  2.5581
17713TIP3    H274555   3.777   0.132  15.982  0.5279 -0.1148  0.3697
17714TIP3   OH274556   6.119   5.892   2.791 -0.2882 -0.0521 -0.4393
17714TIP3    H174557   6.122   5.808   2.746  1.9960  0.1991 -0.8728
17714TIP3    H274558   6.026   5.909   2.803 -0.8876 -1.5643 -2.3563
17715TIP3   OH274559   0.469   6.231   1.688  0.2552 -0.1350  0.7489
17715TIP3    H174560   0.477   6.304   1.748  0.6172  1.1280 -0.7687
17715TIP3    H274561   0.465   6.154   1.744  1.2131  0.9266  2.3469
17716TIP3   OH274562   3.881   2.490  10.979  0.0361  0.2469  0.0398
17716TIP3    H174563   3.967   2.480  10.938 -0.0556  0.1261 -0.1222
17716TIP3    H274564   3.896   2.469  11.071  0.1120 -0.1096 -0.0505
17717TIP3   OH274565   1.092   5.001  13.667 -0.1414 -0.2266 -0.1461
17717TIP3    H174566   1.122   5.087  13.638 -0.6101  0.4091  1.1708
17717TIP3    H274567   1.120   4.941  13.598  2.8574  0.5065  0.2881
17718TIP3   OH274568   3.892   1.964   0.194  0.0482  0.8375  0.2109
17718TIP3    H174569   3.838   2.014   0.132 -1.5935 -1.2124 -0.1446
17718TIP3    H274570   3.910   1.881   0.149  1.6739  0.6008  1.2187
17719TIP3   OH274571   3.744   2.257   4.403 -0.1014  0.1573 -0.7777
17719TIP3    H174572   3.716   2.337   4.358 -2.7142 -0.3746 -0.2767
17719TIP3    H274573   3.686   2.251   4.479  0.9834 -1.4838 -0.0191
17720TIP3   OH274574   1.516   0.853   5.665  0.0879  0.3122 -0.4062
17720TIP3    H174575   1.544   0.844   5.756  0.8617 -0.3131 -0.6950
17720TIP3    H274576   1.435   0.903   5.670 -1.1859 -1.7326  0.8241
17721TIP3   OH274577   2.970   1.016   5.220 -0.2064 -0.0073  0.1467
17721TIP3    H174578   2.964   1.017   5.315  0.0753  2.1697  0.1775
17721TIP3    H274579   3.059   0.985   5.202 -0.0217  0.2556  0.6013
17722TIP3   OH274580   2.915   4.993  14.376 -0.2974  0.5448 -0.0553
17722TIP3    H174581   2.871   5.053  14.436  1.7715  2.2656 -0.0996
17722TIP3    H274582   3.007   4.997  14.402 -0.0408 -2.5700 -0.1928
17723TIP3   OH274583   1.212   4.337   3.185 -0.0147  0.3339  0.7004
17723TIP3    H174584   1.134   4.314   3.133 -0.5048  2.4373  0.4105
17723TIP3    H274585   1.284   4.334   3.122 -0.3834  1.4521  0.1955
17724TIP3   OH274586   6.010   0.221  14.907  0.1080 -0.4060 -0.1049
17724TIP3    H174587   6.101   0.247  14.924 -0.1646  0.2239  0.4762
17724TIP3    H274588   5.992   0.253  14.819  0.5672 -0.8595 -0.3635
17725TIP3   OH274589   5.956   3.943   5.124 -0.2779  0.2761 -0.2624
17725TIP3    H174590   5.933   4.036   5.125 -1.1580  0.0636  0.1667
17725TIP3    H274591   5.978   3.925   5.032  0.3628  1.0072 -0.2593
17726TIP3   OH274592   1.055   0.013   2.852 -0.3938  0.2826 -0.0081
17726TIP3    H174593   0.988  -0.050   2.824  0.4517 -0.5001 -0.3171
17726TIP3    H274594   1.063   0.074   2.778  1.4107 -1.4378 -1.3527
17727TIP3   OH274595   1.361   4.437   4.486 -0.1187 -0.2869  0.4036
17727TIP3    H174596   1.307   4.359   4.478  0.1720 -0.4447 -0.1466
17727TIP3    H274597   1.443   4.405   4.524  0.4309 -0.4792 -0.8689
17728TIP3   OH274598   4.230   6.524   2.146 -0.1615 -0.1309  0.1660
17728TIP3    H174599   4.288   6.452   2.171  0.4292  0.6263  1.0406
17728TIP3    H274600   4.269   6.559   2.066  1.0427  0.8344  1.1389
17729TIP3   OH274601   0.490   1.484   4.063 -0.0057 -0.1658  0.5489
17729TIP3    H174602   0.529   1.408   4.020  0.6212  0.4304  0.0416
17729TIP3    H274603   0.400   1.488   4.029  0.4606  0.2604 -0.6690
17730TIP3   OH274604   0.869   1.922   2.435 -0.1844 -0.6667  0.1787
17730TIP3    H174605   0.902   1.940   2.523  1.3822 -0.9139 -0.3253
17730TIP3    H274606   0.841   1.830   2.438 -0.0699 -0.6957  0.4046
17731TIP3   OH274607   5.342   6.607  15.039 -0.5796 -0.2140 -0.1848
17731TIP3    H174608   5.286   6.562  14.975  1.3542 -2.5210 -0.4117
17731TIP3    H274609   5.412   6.645  14.986 -0.7847  0.8742  0.2951
17732TIP3   OH274610   1.777   6.701   0.806 -0.5347  0.3534  0.4092
17732TIP3    H174611   1.708   6.722   0.869 -1.3901  0.8086 -0.6496
17732TIP3    H274612   1.765   6.608   0.787  0.1917  0.0316  1.4491
17733TIP3   OH274613   5.319   4.690   3.134  0.3415 -0.1879 -0.6427
17733TIP3    H174614   5.300   4.709   3.043 -0.2292 -0.2505 -0.5399
17733TIP3    H274615   5.391   4.627   3.131 -0.2718 -0.8847 -1.0739
17734TIP3   OH274616   1.157   6.454  12.182  0.3706  0.5333  0.4734
17734TIP3    H174617   1.113   6.406  12.112  1.0419 -3.9656  2.7574
17734TIP3    H274618   1.248   6.462  12.153  0.4322 -0.3949  0.3985
17735TIP3   OH274619   3.314   1.828   5.797 -0.1279 -0.6477  0.2213
17735TIP3    H174620   3.327   1.733   5.807  1.1907 -0.6886 -1.4734
17735TIP3    H274621   3.401   1.862   5.777 -0.2830  1.1900  2.2367
17736TIP3   OH274622   6.220   6.225   0.423  0.0006  0.0220  0.2275
17736TIP3    H174623   6.169   6.272   0.357 -1.3043 -0.2184  1.0500
17736TIP3    H274624   6.280   6.291   0.458  0.1236  0.3553 -0.5869
17737TIP3   OH274625   5.128   6.210  11.910 -0.1988 -0.3738 -0.1544
17737TIP3    H174626   5.163   6.174  11.829  1.7756  1.6353 -0.2865
17737TIP3    H274627   5.087   6.293  11.885  0.4006  0.2605  0.8481
17738TIP3   OH274628   2.134   3.904   6.042  0.0246  0.5235  0.0125
17738TIP3    H174629   2.048   3.941   6.062  0.4381  0.6512  1.7041
17738TIP3    H274630   2.196   3.974   6.062  0.6056  0.0529 -0.0998
17739TIP3   OH274631   1.042   3.275   1.620  0.1963 -0.2666  0.1186
17739TIP3    H174632   0.971   3.330   1.654  1.8597  1.7304  0.5988
17739TIP3    H274633   1.028   3.274   1.525 -1.7449 -1.8874  0.3427
17740TIP3   OH274634   3.441   4.559  12.227 -0.0622  0.3768  1.0818
17740TIP3    H174635   3.392   4.604  12.296 -0.9247 -0.3346  0.9518
17740TIP3    H274636   3.400   4.587  12.145  0.4979  0.6656  0.8955
17741TIP3   OH274637   3.074   1.242  13.335  0.2024 -0.3121 -0.1912
17741TIP3    H174638   3.018   1.319  13.345 -0.0110 -0.0964 -2.5386
17741TIP3    H274639   3.158   1.268  13.373  0.0841  1.0353 -0.7985
17742TIP3   OH274640   0.357   0.359  13.145 -0.2578  0.2974 -0.3872
17742TIP3    H174641   0.400   0.444  13.152 -1.0461  0.5991  1.3302
17742TIP3    H274642   0.337   0.349  13.052  0.2921  1.7516 -0.6787
17743TIP3   OH274643   0.068   1.117   4.979  0.2870 -0.4763 -0.0233
17743TIP3    H174644  -0.017   1.105   4.937 -0.2293  0.9977  0.5390
17743TIP3    H274645   0.125   1.149   4.909 -0.3232  1.0615  0.1572
17744TIP3   OH274646   1.849   3.716   0.889  0.3128 -0.0117  0.4795
17744TIP3    H174647   1.889   3.803   0.891  2.0796 -0.7977  1.9491
17744TIP3    H274648   1.818   3.702   0.978 -0.0838 -0.8463  0.2195
17745TIP3   OH274649   3.913   4.532  15.731  0.3425 -0.1153  0.4001
17745TIP3    H174650   3.893   4.590  15.657  2.4615  0.4097  0.1863
17745TIP3    H274651   3.988   4.481  15.702  1.3298  0.2148  2.2436
17746TIP3   OH274652   0.243   6.015  13.591 -0.0357 -0.1159  0.5808
17746TIP3    H174653   0.283   6.059  13.667  1.0384 -0.1674  0.0597
17746TIP3    H274654   0.203   6.086  13.541  0.3693  0.0830  0.5352
17747TIP3   OH274655   0.586   2.281   2.576  0.3746 -0.3571  0.6471
17747TIP3    H174656   0.676   2.268   2.605  0.5104  0.3373  0.5572
17747TIP3    H274657   0.535   2.286   2.657  0.4725 -0.4031  0.7114
17748TIP3   OH274658   1.674   5.276  16.515 -0.0689 -0.4435  0.6721
17748TIP3    H174659   1.678   5.192  16.562  1.1831 -2.2782 -2.3891
17748TIP3    H274660   1.755   5.321  16.538  0.3024 -1.0907  0.6523
17749TIP3   OH274661   5.542   0.709   1.484  0.0328  0.1800  0.2510
17749TIP3    H174662   5.623   0.726   1.531 -0.5381  1.8825  0.7108
17749TIP3    H274663   5.530   0.787   1.429 -0.9532 -0.3364 -0.2888
17750TIP3   OH274664   5.699   5.739  15.771  0.4528  0.0622  0.1774
17750TIP3    H174665   5.689   5.834  15.776  1.5544  0.2413 -0.8097
17750TIP3    H274666   5.777   5.720  15.824  0.7577 -0.1929 -0.3619
17751TIP3   OH274667   5.331   1.334   0.609  0.1692 -0.4011 -0.6644
17751TIP3    H174668   5.368   1.246   0.602 -0.3663 -0.6313 -0.6837
17751TIP3    H274669   5.406   1.392   0.605  1.2496 -0.9786  4.4085
17752TIP3   OH274670   5.201   2.670  16.962  0.1203  0.5982 -0.4948
17752TIP3    H174671   5.280   2.620  16.938  0.3211  0.6093  0.1317
17752TIP3    H274672   5.153   2.678  16.879  1.2794  1.5102 -1.1189
17753TIP3   OH274673   5.428   2.689   0.429 -0.0469  0.3322 -0.2586
17753TIP3    H174674   5.403   2.727   0.513 -0.0426 -1.5467  0.6222
17753TIP3    H274675   5.523   2.679   0.434  0.0030  0.5729 -0.6537
17754TIP3   OH274676   4.013   1.483  16.252  0.3343 -0.3801 -0.0483
17754TIP3    H174677   3.991   1.447  16.338  0.4859  1.8909  1.0409
17754TIP3    H274678   4.108   1.487  16.251  0.3975 -1.6205 -0.9106
17755TIP3   OH274679   3.381   4.270  12.138 -0.3911 -0.2921 -0.6251
17755TIP3    H174680   3.307   4.243  12.191 -0.2359 -0.7688 -0.6405
17755TIP3    H274681   3.414   4.349  12.180 -0.3255 -0.6134 -0.0592
17756TIP3   OH274682   1.643   5.642   1.451 -0.2928  0.0935  0.0271
17756TIP3    H174683   1.706   5.710   1.475 -1.4479  1.3635 -0.4190
17756TIP3    H274684   1.666   5.619   1.361 -0.2049  0.2562  0.0074
17757TIP3   OH274685   0.954   5.242  10.785  0.0733 -0.1061 -0.1107
17757TIP3    H174686   0.964   5.305  10.714  0.4086 -0.4454 -0.3654
17757TIP3    H274687   1.031   5.255  10.840 -0.3581  0.3965  0.3871
17758TIP3   OH274688   5.870   4.105   3.579  0.7338 -0.1265 -0.0189
17758TIP3    H174689   5.806   4.120   3.510  0.1010  1.1578  0.8153
17758TIP3    H274690   5.945   4.160   3.554  0.4245  0.5001  0.3951
17759TIP3   OH274691   4.785   1.386   4.106  0.0273 -0.0308  0.2183
17759TIP3    H174692   4.788   1.292   4.119  0.0414  0.1013  1.2417
17759TIP3    H274693   4.694   1.410   4.128 -0.1422  0.1247 -0.6029
17760TIP3   OH274694   4.222   0.632  12.071  0.4842  0.7297  0.4432
17760TIP3    H174695   4.178   0.707  12.033  0.3411  1.1769  1.4661
17760TIP3    H274696   4.216   0.564  12.004 -1.9706  0.6849  0.5964
17761TIP3   OH274697   1.970   1.977   3.700 -0.6093 -0.6954 -0.3544
17761TIP3    H174698   1.905   1.912   3.674  1.8846 -2.5397 -2.5426
17761TIP3    H274699   2.052   1.946   3.661  1.6833  1.3615  2.3912
17762TIP3   OH274700   1.993   3.891   2.165 -0.0534  0.2769  0.6651
17762TIP3    H174701   2.002   3.940   2.247  1.3258 -1.7857  1.8542
17762TIP3    H274702   2.083   3.871   2.140 -0.5562 -1.7752  0.3591
17763TIP3   OH274703   2.142   0.674   1.314  0.4750 -0.3045  0.4632
17763TIP3    H174704   2.126   0.728   1.236 -3.8973 -0.8170  0.7346
17763TIP3    H274705   2.190   0.732   1.374  2.1731  0.7724 -1.8160
17764TIP3   OH274706   0.208   5.924   1.834 -0.0717  0.2342  0.1325
17764TIP3    H174707   0.163   5.845   1.804  0.4845  0.2197 -0.7158
17764TIP3    H274708   0.242   5.901   1.920  0.0743 -0.4457 -0.0987
17765TIP3   OH274709   5.591   0.209   3.517  0.0605  0.3741 -0.1012
17765TIP3    H174710   5.638   0.188   3.436 -1.1618  2.4485 -1.4396
17765TIP3    H274711   5.634   0.288   3.549  0.2479 -0.1887  1.0746
17766TIP3   OH274712   0.629   3.880   4.079  0.2956  0.3694  0.6076
17766TIP3    H174713   0.672   3.834   4.007  0.4159 -0.4527  1.1831
17766TIP3    H274714   0.696   3.939   4.113  0.4768  0.2138  0.5230
17767TIP3   OH274715   2.394   5.694   1.335 -0.0733 -0.2732 -0.0907
17767TIP3    H174716   2.367   5.756   1.267  0.0795  0.7353  0.7528
17767TIP3    H274717   2.390   5.609   1.292  0.1549  0.3571 -1.4116
17768TIP3   OH274718   1.383   3.101   3.260  0.4871  0.0220  0.0026
17768TIP3    H174719   1.367   3.027   3.319 -0.8182  1.6828  1.8782
17768TIP3    H274720   1.469   3.134   3.286  0.5861 -0.1743 -0.0751
17769TIP3   OH274721   1.145   2.690   2.524 -0.0588 -0.0879 -0.9633
17769TIP3    H174722   1.200   2.668   2.599  0.0829 -0.8051 -1.2708
17769TIP3    H274723   1.206   2.728   2.461 -0.2056  0.6655 -0.6562
17770TIP3   OH274724   4.296   4.840   0.402 -0.3640  0.3474  0.5782
17770TIP3    H174725   4.390   4.847   0.420  0.0183  1.5147 -1.5657
17770TIP3    H274726   4.290   4.793   0.319 -1.7972 -1.0833  1.4208
17771TIP3   OH274727   2.821   3.600   2.701  0.6511  0.5424  0.4380
17771TIP3    H174728   2.781   3.592   2.788 -0.8865  2.5012 -0.0159
17771TIP3    H274729   2.915   3.600   2.718  0.4057  2.7968  2.3862
17772TIP3   OH274730   5.199   4.398   1.199  0.0047  0.2325 -0.3937
17772TIP3    H174731   5.182   4.424   1.109  0.1708  0.1943 -0.4369
17772TIP3    H274732   5.166   4.308   1.205  0.0905  0.1970 -0.4472
17773TIP3   OH274733   0.530   1.517  16.336 -0.5175 -0.4310  0.6368
17773TIP3    H174734   0.509   1.433  16.377 -1.8053 -1.3259 -1.6849
17773TIP3    H274735   0.596   1.495  16.271  0.4018  0.6990  1.1641
17774TIP3   OH274736   4.014   6.290   5.324  0.1704  0.0157 -0.1972
17774TIP3    H174737   3.965   6.277   5.406 -0.4528 -0.1791 -0.5960
17774TIP3    H274738   4.089   6.345   5.349 -0.2528  0.3189  0.4172
17775TIP3   OH274739   0.635   4.989   3.784 -0.1163 -0.0510  0.2971
17775TIP3    H174740   0.629   5.081   3.759 -1.8650  0.1834  1.3910
17775TIP3    H274741   0.679   4.990   3.869 -0.1274 -0.2077  0.3061
17776TIP3   OH274742   6.762   2.604   1.635  0.1300 -0.3266 -0.1604
17776TIP3    H174743   6.800   2.574   1.552  0.9286  2.0879 -0.7510
17776TIP3    H274744   6.673   2.633   1.611 -0.4735 -1.7064  0.3136
17777TIP3   OH274745   2.112   3.656   1.812  0.2638  0.5830  0.4333
17777TIP3    H174746   2.091   3.686   1.724 -1.4801  1.7378  1.1956
17777TIP3    H274747   2.027   3.643   1.854  1.0198 -1.5331  1.4686
17778TIP3   OH274748   1.706   3.659   4.454 -0.4830  0.4931 -0.4856
17778TIP3    H174749   1.704   3.733   4.393 -0.3405  2.0244  1.2676
17778TIP3    H274750   1.618   3.622   4.450 -0.3946  0.3872 -1.7888
17779TIP3   OH274751   4.960   3.488   5.394 -0.0824 -0.7606  0.4356
17779TIP3    H174752   4.949   3.450   5.481 -0.4532  0.8995  1.1611
17779TIP3    H274753   5.035   3.547   5.403  0.5935 -1.4164 -0.6911
17780TIP3   OH274754   0.728   3.992  14.034  0.3372 -0.2998 -0.2108
17780TIP3    H174755   0.783   3.939  13.976 -1.2009 -1.1419 -0.9749
17780TIP3    H274756   0.647   4.005  13.984 -0.2053  0.8154  0.9120
17781TIP3   OH274757   2.022   4.568   1.814 -0.1615  0.2213 -0.0646
17781TIP3    H174758   1.931   4.557   1.843 -0.2537  1.8953  0.3830
17781TIP3    H274759   2.053   4.644   1.861  1.8467 -0.9174  0.5509
17782TIP3   OH274760   5.284   1.881  11.651 -0.7121  0.8861  0.3667
17782TIP3    H174761   5.214   1.821  11.678  0.4111 -0.4570  0.4542
17782TIP3    H274762   5.263   1.904  11.561 -1.3424  0.6234  0.4417
17783TIP3   OH274763   6.469   6.384   5.872 -0.3828 -0.0888  0.6747
17783TIP3    H174764   6.527   6.336   5.813  2.0445  0.9759  2.0515
17783TIP3    H274765   6.445   6.462   5.823 -0.5052 -0.4432  0.1597
17784TIP3   OH274766   5.833   5.933   3.976 -0.0346  0.7490 -0.2854
17784TIP3    H174767   5.895   5.861   3.986 -3.6440 -2.5380  1.1995
17784TIP3    H274768   5.804   5.928   3.885 -0.4802  0.0813 -0.1130
17785TIP3   OH274769   2.695   3.499   1.425 -0.7963  0.3797  0.2052
17785TIP3    H174770   2.668   3.413   1.460  2.4266 -0.5101  0.8213
17785TIP3    H274771   2.658   3.562   1.486 -1.7297 -0.6763  0.7786
17786TIP3   OH274772   3.363   0.404   5.337  0.0963 -0.3122  0.5594
17786TIP3    H174773   3.345   0.358   5.255  0.2121 -0.8560  0.8288
17786TIP3    H274774   3.401   0.488   5.311 -0.2585 -0.3056  0.0502
17787TIP3   OH274775   1.775   2.737   1.923  0.2557  0.4145 -0.6148
17787TIP3    H174776   1.847   2.795   1.897  0.4959 -0.4647 -1.9547
17787TIP3    H274777   1.750   2.691   1.843 -0.5796 -0.6394  0.2206
17788TIP3   OH274778   2.637   5.050  13.418 -0.0101  0.1934 -1.1007
17788TIP3    H174779   2.634   4.956  13.400  0.8811  0.3639 -2.2658
17788TIP3    H274780   2.584   5.089  13.348 -0.7443  0.5442 -0.3696
17789TIP3   OH274781   5.213   6.411   0.808  0.2957 -0.8446  0.4089
17789TIP3    H174782   5.193   6.329   0.852 -2.6921 -0.9377 -0.8379
17789TIP3    H274783   5.270   6.387   0.735  1.2064 -1.4482  1.3101
17790TIP3   OH274784   0.569   4.287  12.230 -0.0173 -0.2078 -0.4419
17790TIP3    H174785   0.593   4.341  12.306 -0.8287  2.3837 -1.9051
17790TIP3    H274786   0.529   4.208  12.268  1.1516  0.1978  1.8121
17791TIP3   OH274787   0.621   2.827  13.556 -0.0330  0.0388 -0.0627
17791TIP3    H174788   0.611   2.917  13.526  2.5796 -0.4666 -2.9946
17791TIP3    H274789   0.617   2.774  13.476 -1.1020 -2.4458  1.5099
17792TIP3   OH274790   6.697   0.699   4.199 -0.2046 -0.1094  0.5975
17792TIP3    H174791   6.660   0.751   4.270 -1.1142 -0.0888  0.1235
17792TIP3    H274792   6.658   0.735   4.120  0.2684 -0.5756  0.1420
17793TIP3   OH274793   1.810   1.798  11.956  0.1086  0.4458 -0.4571
17793TIP3    H174794   1.744   1.827  12.019 -0.0836  1.3184 -1.0400
17793TIP3    H274795   1.819   1.871  11.895  1.3912  0.2219 -0.5780
17794TIP3   OH274796   5.428   5.504  11.609 -0.5602  0.0144  0.3928
17794TIP3    H174797   5.483   5.479  11.683 -1.1702  0.5991  1.0703
17794TIP3    H274798   5.462   5.454  11.535  0.7302  0.1910  0.8352
17795TIP3   OH274799   3.388   3.588   3.596 -0.1944 -0.3357  0.3426
17795TIP3    H174800   3.303   3.608   3.634 -1.6240 -1.7928 -1.8693
17795TIP3    H274801   3.408   3.500   3.626  1.6966  0.7515  2.6255
17796TIP3   OH274802   6.337   1.815   1.534 -0.6495  0.0312  0.5114
17796TIP3    H174803   6.260   1.846   1.582 -0.5058  0.7894  0.2528
17796TIP3    H274804   6.322   1.721   1.524 -1.2385  0.0646  1.0174
17797TIP3   OH274805   5.837   0.907  12.027  0.4878  0.2301  0.4015
17797TIP3    H174806   5.852   0.842  11.958 -0.3770 -0.3461  0.7419
17797TIP3    H274807   5.910   0.895  12.088  0.5986 -0.0794  0.2087
17798TIP3   OH274808   4.319   2.389   2.354  0.7980 -0.5991 -0.1410
17798TIP3    H174809   4.314   2.388   2.450  1.1762 -0.4600 -0.1216
17798TIP3    H274810   4.330   2.481   2.331 -0.7308 -0.4381 -0.3947
17799TIP3   OH274811   3.064   6.117   0.427  0.4774  0.4839 -0.1508
17799TIP3    H174812   3.092   6.041   0.477 -0.7141 -0.3375 -0.6966
17799TIP3    H274813   3.137   6.178   0.434  1.7036 -0.9210 -0.1651
17800TIP3   OH274814   6.070   1.538   5.353  0.3128  0.2822  0.0576
17800TIP3    H174815   6.088   1.632   5.345 -0.8859  0.6422  1.2887
17800TIP3    H274816   6.142   1.496   5.306  1.4733  1.7854  0.4116
17801TIP3   OH274817   5.867   3.879  16.076 -0.5450  0.1780 -0.4903
17801TIP3    H174818   5.877   3.828  15.996 -1.1256 -2.8631  1.2455
17801TIP3    H274819   5.914   3.961  16.057  1.2488 -1.2992 -3.1363
17802TIP3   OH274820   5.434   3.676  15.361  0.2903  0.1108  0.0695
17802TIP3    H174821   5.406   3.731  15.434  1.3681  1.6521 -0.6254
17802TIP3    H274822   5.353   3.653  15.316 -0.2282  0.6819  0.6782
17803TIP3   OH274823   0.820   5.965   0.500 -0.0160 -0.3147  0.5562
17803TIP3    H174824   0.797   5.934   0.412  0.4174 -0.7404  0.5947
17803TIP3    H274825   0.885   5.903   0.532  1.5739  1.1447  0.2722
17804TIP3   OH274826   2.360   6.148  16.396  0.2680  0.1148  0.4867
17804TIP3    H174827   2.303   6.120  16.468  0.0525 -0.9913 -0.0955
17804TIP3    H274828   2.409   6.222  16.432 -0.5042  0.1673  1.4669
17805TIP3   OH274829   3.479   3.408  13.827  0.5095  0.1589 -0.4276
17805TIP3    H174830   3.407   3.370  13.876 -0.7133 -0.6730 -2.6919
17805TIP3    H274831   3.510   3.481  13.881 -0.9102 -0.5033  1.3632
17806TIP3   OH274832   1.485   6.375   4.986  0.5855 -0.5745  0.2156
17806TIP3    H174833   1.464   6.436   4.916 -0.5877 -1.0829  0.0949
17806TIP3    H274834   1.573   6.344   4.966  0.1709 -0.9132 -1.2077
17807TIP3   OH274835   3.552   2.950   2.110  0.6730 -0.6960 -0.1858
17807TIP3    H174836   3.507   2.997   2.181  1.4816 -1.4715  0.8853
17807TIP3    H274837   3.490   2.951   2.037 -0.6367 -0.7919  0.8819
17808TIP3   OH274838   1.449   2.840  15.323 -0.2127 -0.1043 -0.5953
17808TIP3    H174839   1.368   2.793  15.301  0.5959 -1.1539 -1.4067
17808TIP3    H274840   1.452   2.911  15.258 -0.6263  0.1258 -0.3703
17809TIP3   OH274841   3.012   3.541   0.484  0.0360  0.1632  0.1531
17809TIP3    H174842   3.030   3.534   0.390  2.2471 -1.3691  0.6134
17809TIP3    H274843   3.086   3.590   0.519  0.3993 -1.2339  1.3958
17810TIP3   OH274844   4.388   0.309   4.326 -0.0055  0.2008  0.1048
17810TIP3    H174845   4.295   0.329   4.321 -0.3124 -1.4106 -2.0659
17810TIP3    H274846   4.396   0.221   4.290  2.3008  0.0083  0.8908
17811TIP3   OH274847   4.463   0.409  14.240  0.2846 -0.0899 -0.2114
17811TIP3    H174848   4.446   0.500  14.214 -0.0568 -0.2938 -0.7060
17811TIP3    H274849   4.419   0.401  14.325  0.7698  0.3578  0.0915
17812TIP3   OH274850   3.619   3.162  17.193  0.0058 -0.5983  0.2095
17812TIP3    H174851   3.667   3.234  17.151  0.3431 -1.1134 -0.3035
17812TIP3    H274852   3.674   3.138  17.268 -0.9244  0.7697  1.4030
17813TIP3   OH274853   3.440   1.558  13.555  0.6072 -0.2598 -0.4417
17813TIP3    H174854   3.491   1.629  13.516  1.2592 -0.3652  0.1994
17813TIP3    H274855   3.502   1.487  13.566 -0.2121 -1.2322 -1.7827
17814TIP3   OH274856   4.211   4.304  14.239  0.0272  0.4370  0.4458
17814TIP3    H174857   4.296   4.336  14.267 -0.7218  1.9513  1.0937
17814TIP3    H274858   4.213   4.210  14.256  1.8367  0.3067 -0.3116
17815TIP3   OH274859   2.722   0.447  13.451 -0.2330 -0.1545 -0.1623
17815TIP3    H174860   2.645   0.431  13.505  0.1384 -2.1795 -0.1600
17815TIP3    H274861   2.781   0.373  13.469  0.1686 -0.5952 -2.8248
17816TIP3   OH274862   4.325   6.525  17.189  0.0216 -0.6754 -0.4759
17816TIP3    H174863   4.293   6.614  17.205 -0.6197 -0.8106 -0.9844
17816TIP3    H274864   4.268   6.469  17.242 -1.9977 -1.1114 -2.9089
17817TIP3   OH274865   2.785   4.699   4.666  0.2185 -0.5788  0.1536
17817TIP3    H174866   2.724   4.741   4.606  1.6450 -0.1004 -1.0221
17817TIP3    H274867   2.735   4.627   4.705 -1.1472 -0.0525 -0.5778
17818TIP3   OH274868   0.247   2.963   4.857 -0.3857  0.1982 -0.2881
17818TIP3    H174869   0.161   2.997   4.833  0.6407  2.7030 -0.6696
17818TIP3    H274870   0.268   3.008   4.939  0.6171 -0.3134 -0.2493
17819TIP3   OH274871   5.893   1.506  14.486 -0.1220  0.2036  0.3879
17819TIP3    H174872   5.938   1.431  14.447  1.5609  0.9855  0.7544
17819TIP3    H274873   5.847   1.547  14.412 -0.3114 -0.6615  0.0170
17820TIP3   OH274874   1.298   6.285  16.340  0.5874  0.1625 -0.7348
17820TIP3    H174875   1.242   6.333  16.280  0.0789 -0.1721 -0.5386
17820TIP3    H274876   1.265   6.308  16.427  0.9556  0.2042 -0.6047
17821TIP3   OH274877   1.672   1.938  12.355 -0.0108 -0.6265  0.3414
17821TIP3    H174878   1.763   1.915  12.370  0.1510 -0.8914 -0.9409
17821TIP3    H274879   1.672   2.033  12.345 -0.0820 -0.4744  1.5870
17822TIP3   OH274880   5.417   3.063  10.698 -0.1541 -0.5767  0.4678
17822TIP3    H174881   5.406   3.147  10.741 -0.7892  0.0365 -0.8380
17822TIP3    H274882   5.512   3.048  10.698  0.1561  1.0444 -0.8770
17823TIP3   OH274883   0.982   2.158  14.559  0.4494  0.0451  0.5965
17823TIP3    H174884   0.980   2.116  14.645 -1.5969  2.3651  1.7804
17823TIP3    H274885   1.016   2.246  14.575  0.2058  0.4664 -0.9955
17824TIP3   OH274886   0.102   6.410  15.397  0.1056 -0.3433 -0.4485
17824TIP3    H174887   0.138   6.437  15.482  1.1591 -1.2153 -0.5820
17824TIP3    H274888   0.168   6.349  15.363 -0.3523 -0.0744 -1.8528
17825TIP3   OH274889   0.117   1.686  16.584  0.0690  0.1267 -0.7104
17825TIP3    H174890   0.192   1.734  16.621 -0.7777  2.4983 -1.8409
17825TIP3    H274891   0.157   1.610  16.541  1.5991  0.2326  0.4246
17826TIP3   OH274892   5.176   6.675   0.702  0.2656 -0.2990 -0.5244
17826TIP3    H174893   5.184   6.583   0.729  0.9063  0.0616  0.5986
17826TIP3    H274894   5.095   6.705   0.742  1.1857  0.2188  1.0721
17827TIP3   OH274895   3.692   3.176  13.011  0.3665 -0.3331 -0.0142
17827TIP3    H174896   3.747   3.189  12.933  1.5786 -3.5732  0.1352
17827TIP3    H274897   3.676   3.264  13.044  1.2013  1.0577 -2.9710
17828TIP3   OH274898   2.151   6.604   4.375 -0.1277 -0.3636 -0.2661
17828TIP3    H174899   2.126   6.534   4.435 -1.0399  1.0112  1.0341
17828TIP3    H274900   2.192   6.670   4.431 -1.1250  1.0226 -1.1011
17829TIP3   OH274901   1.744   6.017   3.569  0.2387 -0.0738 -0.0633
17829TIP3    H174902   1.800   6.024   3.647 -0.1265 -0.0075  0.1928
17829TIP3    H274903   1.713   6.107   3.555 -1.3857 -0.4380  0.9644
17830TIP3   OH274904   3.707   1.186  13.955 -0.1370 -0.5937 -0.0381
17830TIP3    H174905   3.789   1.149  13.921  0.5818  0.4184  0.5257
17830TIP3    H274906   3.703   1.157  14.046  1.4929  2.1833  1.0843
17831TIP3   OH274907   4.910   4.834   2.677  0.4757  0.1084  0.0538
17831TIP3    H174908   4.915   4.928   2.660  0.5230 -0.0357 -0.7414
17831TIP3    H274909   4.978   4.818   2.742  0.8508  0.5273 -0.2327
17832TIP3   OH274910   4.996   4.158  14.736 -0.4929 -0.0518 -0.3507
17832TIP3    H174911   5.084   4.192  14.722 -1.6885  3.0524 -1.1895
17832TIP3    H274912   4.968   4.125  14.650  0.0067 -1.6438  0.0577
17833TIP3   OH274913   0.706   0.103  14.765 -0.7738 -0.1370  0.5730
17833TIP3    H174914   0.704   0.097  14.861 -1.1727  0.2451  0.5920
17833TIP3    H274915   0.791   0.066  14.741 -0.3240  0.4950  1.1342
17834TIP3   OH274916   4.419   0.591   1.610  0.0602  0.2080  0.4454
17834TIP3    H174917   4.433   0.629   1.697 -2.4141 -1.6812  1.7911
17834TIP3    H274918   4.325   0.571   1.607  0.1756 -0.3481 -2.4514
17835TIP3   OH274919   6.754   1.451  13.340 -0.0417 -0.6230 -0.2392
17835TIP3    H174920   6.757   1.360  13.368 -1.1971 -1.5235 -2.7007
17835TIP3    H274921   6.845   1.474  13.322  0.5271 -0.5210  2.3649
17836TIP3   OH274922   0.794   2.622  11.770 -0.7369  0.1104 -0.6541
17836TIP3    H174923   0.743   2.549  11.804 -1.2803  0.8937  0.2602
17836TIP3    H274924   0.735   2.697  11.775 -0.6925  0.3863 -2.8991
17837TIP3   OH274925   1.560   1.242  10.380  0.3709 -0.6414  0.0087
17837TIP3    H174926   1.596   1.212  10.296  0.6721 -0.0694 -0.0707
17837TIP3    H274927   1.631   1.291  10.420 -0.0984 -0.0816  0.1635
17838TIP3   OH274928   1.167   6.403   3.426 -0.5774  0.6847 -0.1703
17838TIP3    H174929   1.168   6.486   3.474  0.6270 -0.4580  1.9558
17838TIP3    H274930   1.082   6.365   3.447  0.4871 -0.4804  2.4904
17839TIP3   OH274931   1.812   5.072  11.027 -0.1066  0.0219 -0.2527
17839TIP3    H174932   1.884   5.082  11.090 -1.6146  3.1911  1.1614
17839TIP3    H274933   1.841   5.121  10.950 -0.6353  1.1721  0.2608
17840TIP3   OH274934   3.773   5.975  15.696  0.6587 -0.4473  0.1546
17840TIP3    H174935   3.816   6.042  15.749 -1.3095  0.8330  0.2277
17840TIP3    H274936   3.758   6.018  15.612  2.3675 -1.9548 -1.0091
17841TIP3   OH274937   0.311   5.801   0.188  0.2842  0.3416  0.3148
17841TIP3    H174938   0.318   5.798   0.092 -0.5512 -0.1281  0.2604
17841TIP3    H274939   0.226   5.762   0.207 -0.2511  1.8774  1.1713
17842TIP3   OH274940   3.700   2.591   2.240 -0.5640 -0.3048 -0.4728
17842TIP3    H174941   3.796   2.598   2.241 -0.3606 -2.0950  2.5319
17842TIP3    H274942   3.671   2.677   2.211  1.9290  0.4848 -0.9181
17843TIP3   OH274943   5.685   4.951   4.607 -0.0218  0.3805  0.3371
17843TIP3    H174944   5.658   5.037   4.574  0.8873  0.5595  0.0577
17843TIP3    H274945   5.634   4.889   4.556  0.7411  0.6834 -0.8098
17844TIP3   OH274946   2.387   1.947  13.932  0.2351  0.0975  0.3032
17844TIP3    H174947   2.463   1.982  13.977  0.7466 -0.0499 -0.4398
17844TIP3    H274948   2.422   1.881  13.871 -0.6257 -1.1300  1.0818
17845TIP3   OH274949   0.461   1.426   1.017 -0.4897  0.0522 -0.0897
17845TIP3    H174950   0.375   1.404   0.981 -0.6997 -1.9758  1.4959
17845TIP3    H274951   0.523   1.396   0.951 -0.9365 -1.1198  0.0039
17846TIP3   OH274952   3.974   0.572   0.345  0.1892 -0.0404 -0.0128
17846TIP3    H174953   4.014   0.656   0.321 -2.5646  1.1042 -1.0299
17846TIP3    H274954   3.964   0.525   0.262 -1.0912  0.0092  0.0831
17847TIP3   OH274955   6.710   6.080  15.531  0.2899  0.1948  0.5051
17847TIP3    H174956   6.803   6.096  15.549  0.5322 -1.6538  1.0526
17847TIP3    H274957   6.701   6.095  15.437  0.6934  2.2231  0.7288
17848TIP3   OH274958   6.347   2.365  16.696  0.7569 -0.6174  0.0198
17848TIP3    H174959   6.284   2.331  16.633  1.2348 -1.5658  0.0396
17848TIP3    H274960   6.372   2.289  16.749 -0.4303  0.3270  2.0782
17849TIP3   OH274961   4.580   4.909   0.237 -0.0583  0.5783 -0.0381
17849TIP3    H174962   4.523   4.986   0.237 -0.4881  0.2903 -1.8980
17849TIP3    H274963   4.667   4.945   0.252 -0.3142  1.3818 -0.4028
17850TIP3   OH274964   5.597   6.532  12.686  0.0406 -0.2785  0.3243
17850TIP3    H174965   5.546   6.607  12.718  0.5018  0.9243 -1.5850
17850TIP3    H274966   5.671   6.526  12.747  0.8738  1.8857 -0.3878
17851TIP3   OH274967   3.949   1.867  10.468  0.6150  0.6843 -0.3794
17851TIP3    H174968   3.971   1.779  10.439  0.3468 -0.3585  2.2530
17851TIP3    H274969   3.881   1.897  10.408 -0.5865 -1.6539 -0.2787
17852TIP3   OH274970   1.363   1.922   1.276 -0.2243  0.4390 -0.4673
17852TIP3    H174971   1.365   1.956   1.365 -3.4021 -0.4692  0.0577
17852TIP3    H274972   1.406   1.836   1.282 -1.9370 -0.3953  0.6602
17853TIP3   OH274973   0.284   0.842  14.497  0.0441  0.2131  0.4846
17853TIP3    H174974   0.343   0.856  14.422  0.4466  0.5091  0.8496
17853TIP3    H274975   0.343   0.840  14.573 -0.0392 -2.6765  0.5843
17854TIP3   OH274976   4.692   6.746  12.857  0.2809  0.0970  0.1406
17854TIP3    H174977   4.727   6.696  12.783  1.1397 -0.4594  0.8946
17854TIP3    H274978   4.768   6.795  12.890 -0.2644  0.9128  0.2020
17855TIP3   OH274979   5.611   1.867  16.558 -0.4375 -0.4738  0.2955
17855TIP3    H174980   5.647   1.952  16.533  1.5116 -1.1078  0.7894
17855TIP3    H274981   5.516   1.878  16.548 -0.1141  0.9287 -2.1602
17856TIP3   OH274982   0.748   4.657  12.189 -0.1061 -0.1523 -0.3405
17856TIP3    H174983   0.754   4.578  12.134 -0.1069  0.9688 -2.0205
17856TIP3    H274984   0.663   4.649  12.232  0.8485 -2.1759  1.3672
17857TIP3   OH274985   2.647   6.623   5.548 -0.0769  0.3756 -0.2596
17857TIP3    H174986   2.579   6.690   5.559 -0.1195  0.1948  0.6998
17857TIP3    H274987   2.623   6.554   5.610 -0.3390 -0.7929 -1.6322
17858TIP3   OH274988   0.188   4.324   1.106 -0.1863  0.1440  0.2101
17858TIP3    H174989   0.260   4.386   1.094 -0.6633  0.4976 -0.9133
17858TIP3    H274990   0.230   4.238   1.105  0.4156  0.4048  1.2721
17859TIP3   OH274991   0.364   3.903  13.269  0.1352 -0.5040 -0.2047
17859TIP3    H174992   0.421   3.883  13.343  1.6079  0.0036 -1.1405
17859TIP3    H274993   0.374   3.828  13.210  3.0546  1.2262 -2.1841
17860TIP3   OH274994   2.297   0.644   2.697  0.4520 -0.0312  0.1890
17860TIP3    H174995   2.259   0.560   2.722 -2.7269  1.5572  1.2037
17860TIP3    H274996   2.281   0.650   2.603 -0.9131  0.1240  0.4068
17861TIP3   OH274997   3.578   6.629  14.947  0.4089 -0.3721 -0.4917
17861TIP3    H174998   3.618   6.654  15.030  1.9041  0.2219 -1.3558
17861TIP3    H274999   3.509   6.567  14.971  1.3780 -0.8750  1.1235
17862TIP3   OH275000   6.134   2.513  16.006 -0.0899  0.5275  0.0217
17862TIP3    H175001   6.056   2.520  15.952  0.2585 -0.6776 -0.6637
17862TIP3    H275002   6.171   2.602  16.006 -1.0473  0.9318 -0.2568
17863TIP3   OH275003   2.209   5.329  11.694  0.1059 -0.8681 -0.0164
17863TIP3    H175004   2.303   5.313  11.687  0.3847  0.0865  1.1237
17863TIP3    H275005   2.192   5.400  11.632  0.0449 -1.3645 -0.5691
17864TIP3   OH275006   1.643   0.782   2.651  0.1847 -0.3139  0.1395
17864TIP3    H175007   1.674   0.821   2.733 -1.0333 -0.7735  0.8347
17864TIP3    H275008   1.710   0.716   2.630  0.3640 -0.3871  0.9113
17865TIP3   OH275009   2.757   1.996   4.519 -0.4568  0.0787 -0.1365
17865TIP3    H175010   2.782   2.085   4.494  1.4384 -0.7668 -1.5653
17865TIP3    H275011   2.830   1.966   4.573 -0.1215 -1.2240 -1.2587
17866TIP3   OH275012   3.786   6.405  11.305 -0.3689 -0.4307 -0.4286
17866TIP3    H175013   3.872   6.407  11.347 -0.6282 -0.2304  0.1175
17866TIP3    H275014   3.802   6.371  11.217  0.1031 -1.5235  0.0595
17867TIP3   OH275015   5.305   1.619  11.512  0.1273 -0.1721  0.0571
17867TIP3    H175016   5.370   1.570  11.462 -0.3642 -0.4863 -0.2868
17867TIP3    H275017   5.292   1.568  11.592 -0.5527 -0.7329 -0.4051
17868TIP3   OH275018   5.838   5.518  16.248  0.0366 -0.4031  0.2122
17868TIP3    H175019   5.897   5.590  16.269  0.1955 -0.6328  0.5683
17868TIP3    H275020   5.867   5.446  16.304 -0.4303 -0.5926  0.2162
17869TIP3   OH275021   0.092   3.927   0.785  0.3449  0.0776  0.7283
17869TIP3    H175022   0.021   3.983   0.754  0.9025 -0.0592 -0.8869
17869TIP3    H275023   0.136   3.898   0.705 -0.1606 -3.0103  1.4334
17870TIP3   OH275024   4.177   5.194  13.750 -0.2696  0.0994 -0.8287
17870TIP3    H175025   4.194   5.184  13.844 -0.7701  0.6133 -0.6781
17870TIP3    H275026   4.263   5.205  13.710 -0.1265  1.0381 -0.2866
17871TIP3   OH275027   2.818   1.028   2.883  0.3128  0.7851 -0.0979
17871TIP3    H175028   2.789   1.117   2.860 -0.6773  0.1230 -1.5891
17871TIP3    H275029   2.896   1.042   2.937 -0.8663  2.5844  1.2847
17872TIP3   OH275030   5.644   6.365  16.614 -0.1834  0.1716  0.0450
17872TIP3    H175031   5.740   6.372  16.620 -0.1934  0.8949 -0.6310
17872TIP3    H275032   5.629   6.276  16.583  0.3262  0.4354 -1.0149
17873TIP3   OH275033   0.396   2.095   4.350 -0.0357 -0.1610  0.1090
17873TIP3    H175034   0.304   2.088   4.324 -0.2438 -0.0051  0.7996
17873TIP3    H275035   0.431   2.167   4.298 -0.7880  1.0180  1.1877
17874TIP3   OH275036   2.758   2.191   4.128 -0.1217  0.1765  0.1881
17874TIP3    H175037   2.816   2.116   4.139  0.1557  0.3940  0.2318
17874TIP3    H275038   2.670   2.156   4.141  0.0544  0.0072  0.9460
17875TIP3   OH275039   4.818   1.524   2.366 -0.7101  0.0872  0.3881
17875TIP3    H175040   4.885   1.469   2.326 -0.0042  1.5690 -0.5298
17875TIP3    H275041   4.785   1.471   2.439  0.9825 -0.9449  0.4608
17876TIP3   OH275042   4.102   3.034  11.682 -0.5345  0.3369  0.4597
17876TIP3    H175043   4.137   3.023  11.594  1.0075  0.4447  1.0195
17876TIP3    H275044   4.019   2.986  11.682 -0.1757 -0.3179 -0.8196
17877TIP3   OH275045   5.697   2.129  13.153 -0.2268  0.2608  0.2584
17877TIP3    H175046   5.733   2.216  13.173  1.4934 -0.0986 -1.0845
17877TIP3    H275047   5.765   2.068  13.180 -1.1580 -0.6556  0.5931
17878TIP3   OH275048   5.804   1.826   3.619  0.1505 -0.2143 -0.0528
17878TIP3    H175049   5.720   1.822   3.573 -0.4263  0.7391  0.8792
17878TIP3    H275050   5.829   1.735   3.631  0.4382 -0.5233 -2.4187
17879TIP3   OH275051   3.806   5.588   2.706  0.0481  0.0654 -0.2794
17879TIP3    H175052   3.816   5.497   2.734 -1.5998  0.0026  0.1740
17879TIP3    H275053   3.852   5.639   2.773  1.0767 -0.4117 -0.5952
17880TIP3   OH275054   0.640   4.645   1.906 -0.3633  0.5323  0.3262
17880TIP3    H175055   0.680   4.703   1.842  1.1411 -1.1907 -0.3833
17880TIP3    H275056   0.613   4.568   1.855 -1.6871  0.2833  1.3421
17881TIP3   OH275057   2.249   0.429   2.025 -0.1752 -0.1577 -0.0060
17881TIP3    H175058   2.291   0.505   1.984 -1.1436 -0.4085 -1.5438
17881TIP3    H275059   2.315   0.359   2.019 -0.5243 -0.3725 -1.7927
17882TIP3   OH275060   4.799   5.672  12.834  0.2165 -0.2789  0.5686
17882TIP3    H175061   4.888   5.649  12.807  0.2975 -0.3847  0.9104
17882TIP3    H275062   4.743   5.610  12.787  0.3349 -0.3145  0.4745
17883TIP3   OH275063   4.685   0.514  16.196 -0.1827  0.0456 -0.0407
17883TIP3    H175064   4.728   0.466  16.125  0.8628  0.8885 -0.0166
17883TIP3    H275065   4.746   0.506  16.270 -0.4764  0.5396  0.2571
17884TIP3   OH275066   1.428   5.489   5.366  0.3189 -0.4212 -0.2083
17884TIP3    H175067   1.457   5.558   5.426 -1.8894  0.7663 -0.3774
17884TIP3    H275068   1.409   5.535   5.284  0.1217 -1.4514 -0.7499
17885TIP3   OH275069   0.640   3.103   2.825 -0.0299  0.5490 -0.0411
17885TIP3    H175070   0.725   3.127   2.860  0.4735  0.2240 -1.0181
17885TIP3    H275071   0.587   3.183   2.833 -0.1614  0.3009  2.0565
17886TIP3   OH275072   4.693   0.521  12.629 -0.1308 -0.4104 -0.2067
17886TIP3    H175073   4.609   0.479  12.612 -2.5205  3.7903 -0.1528
17886TIP3    H275074   4.713   0.568  12.548  0.0514  1.7880  1.0514
17887TIP3   OH275075   3.642   0.183  15.080  0.2813  0.6120 -0.0103
17887TIP3    H175076   3.610   0.225  15.159  2.2844  0.0408  1.1923
17887TIP3    H275077   3.687   0.104  15.111  2.3607  1.0992 -1.5418
17888TIP3   OH275078   3.007   2.943  11.316  0.5418 -0.4108  0.1114
17888TIP3    H175079   2.929   2.914  11.267 -0.9519 -0.0304  2.1177
17888TIP3    H275080   3.025   3.031  11.283  0.3262 -0.6207 -0.5902
17889TIP3   OH275081   2.076   1.771  13.161  0.3420 -0.0361  0.0165
17889TIP3    H175082   2.113   1.813  13.239  1.6415 -1.7818  0.4137
17889TIP3    H275083   1.982   1.768  13.178  0.4545  0.8414  0.8945
17890TIP3   OH275084   2.652   0.761  16.741 -0.3500 -0.2435 -0.4797
17890TIP3    H175085   2.681   0.677  16.778 -0.0455  0.5981  1.2674
17890TIP3    H275086   2.711   0.775  16.667 -0.7020 -1.7730 -1.0896
17891TIP3   OH275087   3.228   0.490  10.923 -0.3606  0.1324  0.2972
17891TIP3    H175088   3.226   0.585  10.917  0.5160  0.3018  2.0945
17891TIP3    H275089   3.155   0.461  10.868 -0.0651  1.7680 -1.0517
17892TIP3   OH275090   1.399   3.338   0.753  0.1495  0.1176  0.7546
17892TIP3    H175091   1.422   3.392   0.829 -0.1245 -1.4778  2.0170
17892TIP3    H275092   1.469   3.354   0.690 -0.2831  2.4484  0.7901
17893TIP3   OH275093   6.618   5.242  13.866 -0.4793  0.3456 -0.5490
17893TIP3    H175094   6.548   5.184  13.835  0.2440 -0.1687 -1.2546
17893TIP3    H275095   6.573   5.304  13.923 -1.0650 -1.7927  1.4840
17894TIP3   OH275096   5.124   5.282   5.693 -0.3251 -0.7545  0.3280
17894TIP3    H175097   5.105   5.374   5.673 -0.5953 -1.2231 -1.8958
17894TIP3    H275098   5.129   5.279   5.788 -0.6139  1.4991  0.4862
17895TIP3   OH275099   5.597   5.862  16.525  0.1766 -0.1575 -0.1802
17895TIP3    H175100   5.617   5.793  16.588 -0.1178 -0.5802 -0.5435
17895TIP3    H275101   5.577   5.816  16.443 -1.9808  0.2116  0.0615
17896TIP3   OH275102   0.070   1.385   3.230 -0.3448 -0.0062  0.7524
17896TIP3    H175103   0.133   1.457   3.239  0.5282 -0.0802 -3.0502
17896TIP3    H275104   0.101   1.319   3.291 -0.0339  2.0177  2.9455
17897TIP3   OH275105   6.704   3.608   4.930  0.3742  0.2519  0.1829
17897TIP3    H175106   6.756   3.558   4.994  1.7742  1.6582  0.1894
17897TIP3    H275107   6.761   3.681   4.905 -1.1863  1.2076 -0.6812
17898TIP3   OH275108   5.516   2.144   1.626  0.0686 -0.6046  0.1209
17898TIP3    H175109   5.598   2.102   1.601 -0.3783 -0.9469 -0.8212
17898TIP3    H275110   5.504   2.120   1.718  1.4834  0.2339  0.5521
17899TIP3   OH275111   1.705   2.356  11.882  0.0924 -0.5282 -0.0846
17899TIP3    H175112   1.634   2.391  11.829 -0.5593 -0.8821  0.5358
17899TIP3    H275113   1.716   2.266  11.851 -0.3048 -0.7432  0.3829
17900TIP3   OH275114   1.900   0.004  15.399  0.4287  0.1514  0.5594
17900TIP3    H175115   1.914  -0.072  15.456  0.9061 -0.7788 -0.7662
17900TIP3    H275116   1.805   0.013  15.393  0.2808  1.6398  3.2310
17901TIP3   OH275117   3.059   1.184  15.511 -0.2412  0.1043 -1.1603
17901TIP3    H175118   3.008   1.263  15.496  0.8117  0.7881 -1.2503
17901TIP3    H275119   3.146   1.205  15.479  0.0786 -1.0732 -1.1117
17902TIP3   OH275120   2.356   6.426   3.885  0.3146 -0.4813 -0.5744
17902TIP3    H175121   2.327   6.388   3.803  0.0680 -0.4199 -0.5169
17902TIP3    H275122   2.276   6.457   3.927  0.4206 -0.6513 -0.2422
17903TIP3   OH275123   1.526   5.564  16.148 -0.3363 -0.2789  0.4196
17903TIP3    H175124   1.478   5.645  16.135 -1.3336 -0.8358  0.4910
17903TIP3    H275125   1.560   5.541  16.061 -2.0306 -0.9703 -0.1022
17904TIP3   OH275126   0.886   2.403   4.379 -0.5562 -0.3951 -0.2255
17904TIP3    H175127   0.954   2.361   4.432  0.1877  0.8378 -0.1688
17904TIP3    H275128   0.912   2.385   4.289  0.0900  0.4259 -0.2115
17905TIP3   OH275129   5.634   1.802  12.175 -0.1196  0.5907  0.2297
17905TIP3    H175130   5.549   1.758  12.169 -1.2945  2.3996  2.2198
17905TIP3    H275131   5.626   1.878  12.117  0.9005 -0.2606 -1.0813
17906TIP3   OH275132   1.955   6.575  15.551 -0.1853  0.2095  0.1922
17906TIP3    H175133   1.963   6.480  15.536  0.7580  0.4997 -1.3761
17906TIP3    H275134   2.011   6.592  15.628  0.0784 -0.4237  0.1464
17907TIP3   OH275135   5.106   2.574   4.996  0.4376 -0.2704 -0.2038
17907TIP3    H175136   5.027   2.575   5.050  0.3470 -1.1223 -0.3186
17907TIP3    H275137   5.170   2.523   5.046  1.2546  1.2229  0.3401
17908TIP3   OH275138   3.156   4.609  16.311 -0.1391 -0.6244  0.3244
17908TIP3    H175139   3.092   4.582  16.245 -0.1656  0.5726 -0.1761
17908TIP3    H275140   3.139   4.552  16.386 -3.5739  1.2885  1.2168
17909TIP3   OH275141   4.848   1.161  14.293 -0.1713  0.6163 -0.3985
17909TIP3    H175142   4.865   1.087  14.235  0.6353  1.4702 -1.3077
17909TIP3    H275143   4.756   1.153  14.316 -0.2568 -0.3070 -1.0033
17910TIP3   OH275144   5.598   1.572   6.450  0.3372  0.1665 -0.0349
17910TIP3    H175145   5.572   1.482   6.429  1.8775 -0.5976  1.0776
17910TIP3    H275146   5.694   1.567   6.459  0.2016  1.0175  3.7383
17911TIP3   OH275147   2.965   0.190   2.725 -0.3364  0.4984  0.3686
17911TIP3    H175148   3.026   0.126   2.687  0.0248  0.3300  1.2071
17911TIP3    H275149   2.997   0.274   2.694 -0.0619  0.3647  0.2836
17912TIP3   OH275150   3.699   1.411   0.520  0.0856  0.3416  0.0217
17912TIP3    H175151   3.675   1.469   0.448 -0.2275  1.4224  0.9727
17912TIP3    H275152   3.794   1.420   0.527  0.0616  0.6046  0.0393
17913TIP3   OH275153   2.360   5.906  16.006 -0.1033 -1.0701  0.9493
17913TIP3    H175154   2.426   5.945  16.065 -1.4678  0.3357  1.6201
17913TIP3    H275155   2.411   5.877  15.930  1.1547  1.4213  0.7258
17914TIP3   OH275156   4.416   2.307   4.070 -1.0101 -0.1997  0.2075
17914TIP3    H175157   4.422   2.307   3.975  3.3231 -0.3407  0.3167
17914TIP3    H275158   4.350   2.240   4.090 -1.2091 -0.9776 -2.6408
17915TIP3   OH275159   0.678   0.911  12.714 -0.4252 -0.1112 -0.2285
17915TIP3    H175160   0.599   0.887  12.762 -0.0668  0.3782  0.6288
17915TIP3    H275161   0.731   0.959  12.778 -0.0886  0.8652 -1.1984
17916TIP3   OH275162   2.111   4.319  16.916 -0.1215 -0.2816  0.2920
17916TIP3    H175163   2.022   4.286  16.931 -0.4257 -0.4289 -1.5703
17916TIP3    H275164   2.155   4.308  17.000 -2.0824  0.5347  1.5101
17917TIP3   OH275165   6.116   6.188   3.607 -0.1946 -0.1245  0.2866
17917TIP3    H175166   6.093   6.281   3.614 -0.2202 -0.1501  0.5701
17917TIP3    H275167   6.171   6.172   3.684  1.2664  0.0833 -0.6709
17918TIP3   OH275168   2.218   4.016  14.235  0.4075 -0.1952 -0.3142
17918TIP3    H175169   2.306   4.041  14.263  0.3731  0.2467 -0.5795
17918TIP3    H275170   2.192   4.085  14.173 -0.9438  0.8679  1.3356
17919TIP3   OH275171   2.919   0.245   3.680  0.2159 -0.5771 -0.2553
17919TIP3    H175172   2.896   0.332   3.714  3.4403 -0.1707  1.2284
17919TIP3    H275173   2.981   0.263   3.609  1.9152 -1.6431  0.9048
17920TIP3   OH275174   6.072   2.725  12.579  0.3267 -1.1824  0.1523
17920TIP3    H175175   6.039   2.662  12.514  0.6100 -3.5446  2.1222
17920TIP3    H275176   6.158   2.691  12.604  0.5634  0.0916  1.1988
17921TIP3   OH275177   2.545   4.639   1.785 -0.0646  0.1376  0.2620
17921TIP3    H175178   2.485   4.655   1.713 -1.7835 -0.0113  1.5982
17921TIP3    H275179   2.595   4.562   1.759 -0.3809  0.3209 -0.9186
17922TIP3   OH275180   4.139   0.219   4.657 -0.2535  0.3083 -0.0698
17922TIP3    H175181   4.214   0.164   4.683 -0.4805  0.1366  0.2354
17922TIP3    H275182   4.163   0.307   4.685 -0.2547  0.2171  0.2243
17923TIP3   OH275183   3.083   5.209   1.455  0.7109  0.3985 -0.4960
17923TIP3    H175184   3.101   5.272   1.525  0.0531  0.5936 -0.4984
17923TIP3    H275185   3.093   5.124   1.497 -1.0720  0.5074  0.2192
17924TIP3   OH275186   2.284   4.867  14.495  0.1122 -0.5153  0.2855
17924TIP3    H175187   2.211   4.877  14.434  0.3064 -0.7034  0.0240
17924TIP3    H275188   2.243   4.868  14.582 -0.1820 -0.4472  0.1456
17925TIP3   OH275189   2.283   1.589  13.480 -0.0501  0.4065 -0.0319
17925TIP3    H175190   2.300   1.643  13.403  1.4101  1.5934  1.0516
17925TIP3    H275191   2.367   1.547  13.498 -0.4594 -0.1137  0.7195
17926TIP3   OH275192   6.274   6.094  14.225  0.2368 -0.5074 -0.4262
17926TIP3    H175193   6.187   6.084  14.264 -0.2847  0.0527 -1.4042
17926TIP3    H275194   6.333   6.103  14.300 -0.3127 -2.5102  0.2889
17927TIP3   OH275195   6.532   4.872   1.034  0.4755  0.3129 -0.4511
17927TIP3    H175196   6.445   4.869   1.076  1.7436 -0.9186  2.3235
17927TIP3    H275197   6.521   4.825   0.952 -1.8427  1.6797 -1.0391
17928TIP3   OH275198   0.611   1.804  10.996  0.7497  0.1076  0.2078
17928TIP3    H175199   0.702   1.816  11.022  1.7908 -1.1249 -2.4833
17928TIP3    H275200   0.596   1.872  10.930 -0.5325  0.7032  1.0645
17929TIP3   OH275201   1.976   3.971   4.572  0.1182  0.2811 -0.3524
17929TIP3    H175202   1.988   3.929   4.657 -0.8297 -0.1249 -0.4111
17929TIP3    H275203   2.065   3.993   4.544  0.5305 -0.5560  0.2407
17930TIP3   OH275204   1.552   6.529  15.507  0.3559  0.0871 -0.5366
17930TIP3    H175205   1.550   6.617  15.468  0.2790 -0.1005 -0.9645
17930TIP3    H275206   1.587   6.473  15.438  0.6002 -0.1862 -0.1922
17931TIP3   OH275207   0.805   1.289   1.139  0.1800 -0.6030  0.6173
17931TIP3    H175208   0.755   1.371   1.141  0.5354 -0.3408 -0.4167
17931TIP3    H275209   0.739   1.221   1.131 -0.0500 -0.2489 -0.8761
17932TIP3   OH275210   1.893   1.566   3.486  0.8342  0.2326 -0.3620
17932TIP3    H175211   1.954   1.639   3.475  3.3670 -1.8784 -1.4206
17932TIP3    H275212   1.937   1.508   3.548 -0.3963 -1.0942 -0.6926
17933TIP3   OH275213   4.344   3.624  16.042 -0.2581  0.5043 -0.2550
17933TIP3    H175214   4.334   3.658  16.131  2.1493  0.3351  0.1594
17933TIP3    H275215   4.418   3.672  16.006 -0.3649 -0.3553 -1.7058
17934TIP3   OH275216   5.729   4.610  11.925 -0.1834 -0.0257 -0.2251
17934TIP3    H175217   5.718   4.700  11.893 -0.0201 -0.0077 -0.2325
17934TIP3    H275218   5.737   4.558  11.845 -2.5839 -0.3646 -0.2948
17935TIP3   OH275219   4.086   5.223   6.077 -0.0990 -0.3652 -0.1587
17935TIP3    H175220   4.135   5.170   6.140  0.1517 -0.3267 -0.3205
17935TIP3    H275221   4.025   5.274   6.131  0.0602 -0.3917  0.0458
17936TIP3   OH275222   4.199   3.448  14.693 -0.3844  0.3695  0.1550
17936TIP3    H175223   4.254   3.445  14.615 -1.7332  2.4892 -0.9883
17936TIP3    H275224   4.235   3.381  14.751  1.4217 -0.4399 -1.7761
17937TIP3   OH275225   6.064   5.545   2.020  0.6187 -0.1373 -0.2059
17937TIP3    H175226   6.117   5.496   2.083 -0.8002 -0.5159  0.7553
17937TIP3    H275227   6.004   5.479   1.984  0.8968  0.2432 -1.3978
17938TIP3   OH275228   5.787   2.351  14.853 -0.1569 -0.3368  0.1649
17938TIP3    H175229   5.796   2.431  14.906  1.3835 -0.8985  0.8068
17938TIP3    H275230   5.704   2.313  14.882 -0.6346  0.7243  0.2545
17939TIP3   OH275231   6.531   1.602  11.492  0.1471 -0.0535 -1.0422
17939TIP3    H175232   6.454   1.547  11.508  1.4507 -1.3441  1.5985
17939TIP3    H275233   6.497   1.691  11.488 -1.7601 -0.7972 -2.9717
17940TIP3   OH275234   4.766   2.954  15.364 -0.8578  0.1506  0.3472
17940TIP3    H175235   4.763   2.859  15.379 -0.4838  0.1613  0.5067
17940TIP3    H275236   4.763   2.992  15.452  0.9718  0.2268  0.4138
17941TIP3   OH275237   4.202   0.813   6.113 -0.2059  0.4106 -0.4312
17941TIP3    H175238   4.166   0.856   6.036 -0.2175 -0.5208 -0.9694
17941TIP3    H275239   4.182   0.720   6.100 -0.7084  0.2920  0.9756
17942TIP3   OH275240   6.078   1.062   5.027  0.5513  0.2536 -0.1635
17942TIP3    H175241   5.988   1.094   5.037  0.3950 -0.4646  0.9009
17942TIP3    H275242   6.069   0.968   5.016  1.1581  0.2149 -0.3555
17943TIP3   OH275243   4.719   5.669   0.188 -0.3949  0.0197 -0.3246
17943TIP3    H175244   4.775   5.746   0.172  1.5675 -0.9566  1.3643
17943TIP3    H275245   4.647   5.703   0.241  0.3088  0.7559  0.1932
17944TIP3   OH275246   2.558   6.545  11.856  0.5329  0.0178  0.7968
17944TIP3    H175247   2.574   6.587  11.771  0.3018 -0.2145  0.6392
17944TIP3    H275248   2.465   6.526  11.857  0.5294  0.0463  1.1170
17945TIP3   OH275249   1.760   4.465  14.372 -0.0271 -0.0453 -0.2712
17945TIP3    H175250   1.740   4.548  14.417  0.8340 -0.6141  1.2446
17945TIP3    H275251   1.789   4.492  14.285 -0.3604  1.2019 -0.0272
17946TIP3   OH275252   5.428   1.587   0.838  0.4160 -0.3099 -0.2016
17946TIP3    H175253   5.407   1.630   0.921  2.1531 -0.6000  0.4289
17946TIP3    H275254   5.450   1.497   0.862  0.8182 -0.4314 -0.9916
17947TIP3   OH275255   2.567   3.177  13.795 -0.3644  0.5342  0.0374
17947TIP3    H175256   2.583   3.094  13.840 -0.2350  0.5057 -0.0607
17947TIP3    H275257   2.523   3.231  13.860  0.5774  0.7896  0.4875
17948TIP3   OH275258   4.584   4.487   4.361 -0.7121  0.1748  0.0817
17948TIP3    H175259   4.492   4.505   4.381 -0.5179  0.9384  0.3363
17948TIP3    H275260   4.627   4.572   4.370 -0.0502 -0.0997 -0.4283
17949TIP3   OH275261   0.010   1.235   6.383  0.2738  0.3014  0.0519
17949TIP3    H175262   0.050   1.191   6.457 -0.2486  0.4488  0.4357
17949TIP3    H275263   0.050   1.196   6.306  1.3026  0.5988  0.4152
17950TIP3   OH275264   6.250   2.696  12.954  0.4060 -0.8359  0.8295
17950TIP3    H175265   6.241   2.780  12.998  1.0867  0.3504 -1.1655
17950TIP3    H275266   6.330   2.658  12.991  1.5832  0.6434 -0.0686
17951TIP3   OH275267   4.383   2.850   5.155  0.4467  0.6464 -0.8057
17951TIP3    H175268   4.325   2.921   5.127 -0.1557  0.0943 -0.9574
17951TIP3    H275269   4.348   2.821   5.239 -0.5270 -0.8095 -1.6700
17952TIP3   OH275270   3.372   4.699  12.442  0.4158  0.0686 -0.2836
17952TIP3    H175271   3.307   4.630  12.455  0.2785  0.5683  2.2392
17952TIP3    H275272   3.323   4.770  12.400 -0.2914 -0.1286  0.1926
17953TIP3   OH275273   2.555   2.988   1.019  0.6624 -0.1984 -0.4178
17953TIP3    H175274   2.507   2.917   1.062 -0.8637 -0.1826 -1.9658
17953TIP3    H275275   2.620   2.944   0.965  1.0891 -0.3120  0.1795
17954TIP3   OH275276   4.302   2.930  15.344  0.5675  0.0581 -0.2354
17954TIP3    H175277   4.393   2.910  15.320  0.5794 -0.9340  0.5834
17954TIP3    H275278   4.309   3.005  15.402  1.2593 -2.0961  2.7236
17955TIP3   OH275279   0.454   5.683   1.813  0.0038 -0.2389  0.4419
17955TIP3    H175280   0.530   5.624   1.813 -0.1407 -0.4340  1.2368
17955TIP3    H275281   0.469   5.741   1.739 -0.2719 -1.7997 -0.8972
17956TIP3   OH275282   1.054   5.248  13.990  0.2379 -0.7437  0.0393
17956TIP3    H175283   0.983   5.251  14.053  0.2799 -1.0853  0.1069
17956TIP3    H275284   1.043   5.326  13.936 -0.1566 -0.7728  0.0812
17957TIP3   OH275285   6.602   4.188   1.531 -0.0605  0.3264 -0.0469
17957TIP3    H175286   6.679   4.142   1.495 -0.0109  0.9444 -0.7477
17957TIP3    H275287   6.639   4.261   1.580 -0.0599 -1.1577  2.3378
17958TIP3   OH275288   4.304   3.880  12.049 -0.0029  0.5476  0.0944
17958TIP3    H175289   4.305   3.874  12.145  0.9725 -0.9517  0.0122
17958TIP3    H275290   4.376   3.825  12.020  1.1145  2.6768 -1.4633
17959TIP3   OH275291   5.766   5.766   5.934  0.0511  0.6760  0.2611
17959TIP3    H175292   5.828   5.704   5.974 -0.8071 -0.1001  0.4128
17959TIP3    H275293   5.697   5.777   5.999 -1.9043 -1.3952 -1.3095
17960TIP3   OH275294   6.592   1.306   6.088  0.2342  0.2394 -0.1733
17960TIP3    H175295   6.588   1.367   6.161  1.0405 -0.7834  0.7662
17960TIP3    H275296   6.606   1.361   6.011 -0.3016  1.3147  0.4752
17961TIP3   OH275297   0.734   1.922   0.416 -0.3129 -0.1856 -0.1423
17961TIP3    H175298   0.768   1.949   0.502 -1.5536  0.0116  0.3162
17961TIP3    H275299   0.664   1.860   0.437 -1.0153  0.3024 -0.9735
17962TIP3   OH275300   3.967   4.994  11.389  0.2403 -0.2315  0.1557
17962TIP3    H175301   3.974   4.944  11.471 -0.3152 -0.0296  0.3252
17962TIP3    H275302   3.874   4.998  11.370  0.2902  0.5777  0.0368
17963TIP3   OH275303   3.172   4.855  12.294 -0.5161 -0.0975 -0.0551
17963TIP3    H175304   3.205   4.906  12.219  1.3708  0.1122  0.8504
17963TIP3    H275305   3.097   4.807  12.259  0.3748 -0.1043 -2.1244
17964TIP3   OH275306   5.108   5.100   3.665 -0.1679  0.9450  0.1576
17964TIP3    H175307   5.080   5.035   3.601 -1.1745  1.2825  0.2426
17964TIP3    H275308   5.083   5.063   3.750 -3.0113  2.4525  0.0952
17965TIP3   OH275309   4.088   0.591  15.035  0.3271 -0.1456 -0.0209
17965TIP3    H175310   4.080   0.620  14.944 -0.8988  0.3639  0.2174
17965TIP3    H275311   4.042   0.507  15.037 -0.6514  0.3751  0.3322
17966TIP3   OH275312   6.523   4.424  10.985 -0.4546  0.2887 -1.1135
17966TIP3    H175313   6.563   4.422  10.898  0.3936 -3.3877 -0.7810
17966TIP3    H275314   6.441   4.375  10.975 -0.5256  0.1295  0.0749
17967TIP3   OH275315   6.108   2.726   2.046  0.2582  0.3531 -0.2657
17967TIP3    H175316   6.127   2.649   1.992  0.2778  0.3310 -0.2275
17967TIP3    H275317   6.188   2.739   2.098 -0.1234 -0.2309  0.4902
17968TIP3   OH275318   5.920   4.049   3.946  0.2894  0.5028  0.0015
17968TIP3    H175319   5.880   4.121   3.994 -0.2325 -0.6496  1.3536
17968TIP3    H275320   5.987   4.091   3.891  1.0740  1.8605  1.9102
17969TIP3   OH275321   0.101   5.304  11.046 -0.2004 -0.4073 -0.2040
17969TIP3    H175322   0.116   5.396  11.026 -1.4377 -0.4989 -1.7616
17969TIP3    H275323   0.166   5.257  10.994 -0.5665 -0.4497 -0.6400
17970TIP3   OH275324   5.056   2.936   2.323 -0.7690 -0.4535  0.1569
17970TIP3    H175325   5.077   2.908   2.233 -0.3461  0.2597  0.0213
17970TIP3    H275326   5.141   2.961   2.360 -1.2870  2.5485 -0.4061
17971TIP3   OH275327   0.390   1.355  13.334 -0.0654  0.4868  0.2304
17971TIP3    H175328   0.467   1.335  13.388 -0.9462  0.5685  1.5500
17971TIP3    H275329   0.382   1.450  13.338  0.1664  0.5467 -0.5064
17972TIP3   OH275330   3.688   4.224  12.200 -0.1458 -0.4294 -0.0080
17972TIP3    H175331   3.643   4.276  12.267 -0.0071 -1.9939  1.3788
17972TIP3    H275332   3.779   4.254  12.203 -0.3171  0.1038 -0.1028
17973TIP3   OH275333   3.348   1.648  14.901  0.0319 -0.2291 -0.3554
17973TIP3    H175334   3.421   1.645  14.839 -0.9378 -1.7230 -1.4857
17973TIP3    H275335   3.271   1.622  14.850 -1.4082  1.6490  0.7119
17974TIP3   OH275336   0.811   0.438  15.787 -0.3216  0.9308 -0.2624
17974TIP3    H175337   0.896   0.428  15.830  0.2072  0.9321 -1.2762
17974TIP3    H275338   0.769   0.511  15.833 -0.0524  0.5242  0.6603
17975TIP3   OH275339   1.412   4.226  14.190  0.0528 -0.0686  0.3952
17975TIP3    H175340   1.365   4.284  14.130  1.0968  0.7500  0.3404
17975TIP3    H275341   1.465   4.284  14.244  0.6718 -0.9330  0.7443
17976TIP3   OH275342   6.718   5.247  16.201  0.0709  0.4192  0.8063
17976TIP3    H175343   6.718   5.270  16.294 -1.9411 -0.1981  1.0270
17976TIP3    H275344   6.783   5.304  16.161  0.5326  1.1246  2.4916
17977TIP3   OH275345   3.516   4.004   0.708  0.5561  0.2990  0.3896
17977TIP3    H175346   3.449   3.936   0.704 -0.7887  1.5925  0.4264
17977TIP3    H275347   3.549   3.999   0.798 -0.3933  0.4836  0.7620
17978TIP3   OH275348   5.480   0.506   3.736 -0.3271  0.3098  0.3749
17978TIP3    H175349   5.536   0.494   3.659 -1.1671 -1.5937  0.0027
17978TIP3    H275350   5.402   0.550   3.702 -0.0330  0.8959  0.4512
17979TIP3   OH275351   5.196   0.935  11.411  0.2273 -0.1323 -0.5859
17979TIP3    H175352   5.118   0.926  11.466 -0.2133 -0.6137 -1.2727
17979TIP3    H275353   5.172   0.892  11.329 -0.0596  2.6789 -2.1007
17980TIP3   OH275354   2.679   5.686   1.836 -0.0958  0.0713 -0.0476
17980TIP3    H175355   2.769   5.701   1.866 -0.3441 -0.5107  1.0421
17980TIP3    H275356   2.661   5.759   1.777  0.3872  1.3529  1.3083
17981TIP3   OH275357   2.816   5.203  16.089  0.5716  0.7123 -0.1617
17981TIP3    H175358   2.742   5.250  16.128  0.4642 -0.4065  1.0524
17981TIP3    H275359   2.893   5.240  16.133  0.4971 -0.1152  0.6936
17982TIP3   OH275360   0.163   3.102   3.320 -0.4082 -0.4079 -0.4846
17982TIP3    H175361   0.204   3.030   3.272  1.4644  1.5809 -2.0444
17982TIP3    H275362   0.206   3.103   3.405  0.5543 -0.3046 -0.9660
17983TIP3   OH275363   6.187   1.048  11.986 -0.9098  0.0734 -0.4686
17983TIP3    H175364   6.282   1.057  11.982 -0.6177 -0.8361  2.1405
17983TIP3    H275365   6.158   1.053  11.895  1.5367  1.1256 -1.2706
17984TIP3   OH275366   5.513   4.122  13.315  0.1884  0.2479  0.3507
17984TIP3    H175367   5.528   4.044  13.369 -0.4834 -0.7341 -0.8211
17984TIP3    H275368   5.469   4.184  13.374 -2.1325 -1.4359  0.5234
17985TIP3   OH275369   5.579   1.262   0.775  0.7154 -0.3563 -0.0466
17985TIP3    H175370   5.536   1.202   0.714  1.0036 -0.8338  0.2127
17985TIP3    H275371   5.568   1.221   0.860  2.3962 -0.9273 -0.0689
17986TIP3   OH275372   6.640   0.601  15.630 -0.2594  0.1901 -0.0261
17986TIP3    H175373   6.706   0.621  15.697 -0.3929  0.8644 -0.0956
17986TIP3    H275374   6.609   0.513  15.653  1.3382 -0.5499 -0.5362
17987TIP3   OH275375   5.150   1.274   3.727  0.3765 -0.4933 -0.2857
17987TIP3    H175376   5.112   1.204   3.780  0.8496  0.2818  1.1317
17987TIP3    H275377   5.104   1.269   3.643  0.2031 -2.3030 -0.1207
17988TIP3   OH275378   4.721   1.908   0.640  0.0677  1.0598 -0.6791
17988TIP3    H175379   4.738   1.821   0.603 -2.8545 -0.0604  0.3480
17988TIP3    H275380   4.796   1.960   0.612  2.9192 -2.1824  0.0845
17989TIP3   OH275381   5.431   2.855  12.487  0.0333  0.0769  0.1860
17989TIP3    H175382   5.432   2.802  12.407  0.8368 -0.6772  0.6862
17989TIP3    H275383   5.372   2.928  12.466 -0.2258 -0.4198 -0.8893
17990TIP3   OH275384   2.936   0.441  11.730 -0.3737 -0.2629  0.3263
17990TIP3    H175385   2.986   0.492  11.666 -1.0459  0.6484  0.5083
17990TIP3    H275386   2.868   0.398  11.677 -1.1632  0.7909  0.4639
17991TIP3   OH275387   3.444   0.725  10.865 -0.4836 -0.3832  0.2614
17991TIP3    H175388   3.405   0.806  10.832  0.2067 -0.0342  0.2805
17991TIP3    H275389   3.502   0.696  10.794  0.8830  0.2817  1.0587
17992TIP3   OH275390   5.558   5.558  16.416  0.1776 -0.1956 -0.5197
17992TIP3    H175391   5.653   5.566  16.427  0.5269  1.5504 -3.5786
17992TIP3    H275392   5.547   5.480  16.361  0.1028  0.8812 -2.0862
17993TIP3   OH275393   1.631   2.748   0.292  0.5201  0.2474 -0.3271
17993TIP3    H175394   1.692   2.770   0.222 -0.2822 -0.3086 -1.2362
17993TIP3    H275395   1.673   2.779   0.372  1.4401  0.9461 -1.0574
17994TIP3   OH275396   2.576   2.572  16.221  0.2386 -0.2308  0.2465
17994TIP3    H175397   2.536   2.486  16.211  1.5169 -0.8565  0.3654
17994TIP3    H275398   2.560   2.596  16.312  1.7594 -1.3442  0.8466
17995TIP3   OH275399   1.688   1.588  13.756  0.2565  0.0608  0.6916
17995TIP3    H175400   1.744   1.546  13.820 -0.0533 -2.4153 -0.5365
17995TIP3    H275401   1.735   1.579  13.673 -1.3368 -1.0292 -0.1694
17996TIP3   OH275402   2.628   3.244  11.307 -0.3017 -0.1786 -0.2670
17996TIP3    H175403   2.576   3.169  11.335 -0.0931 -0.9326 -1.8013
17996TIP3    H275404   2.566   3.316  11.303 -0.9298 -0.7349 -0.6695
17997TIP3   OH275405   1.266   5.922   1.497  0.1505  0.4750  0.5215
17997TIP3    H175406   1.308   5.891   1.416 -1.4069  1.8101 -0.8829
17997TIP3    H275407   1.250   6.015   1.481 -1.4418  0.4667  1.8162
17998TIP3   OH275408   4.841   3.385  15.760  0.2632  0.0163  0.1994
17998TIP3    H175409   4.896   3.309  15.782  0.4027  0.9037  3.3994
17998TIP3    H275410   4.898   3.442  15.709  1.8446  0.1043  1.9345
17999TIP3   OH275411   0.488   6.483   3.771  0.1316  0.2453  0.1277
17999TIP3    H175412   0.430   6.442   3.708  0.4916  0.5376 -0.4018
17999TIP3    H275413   0.567   6.430   3.770 -0.4419 -0.6888  1.5147
18000TIP3   OH275414   5.002   3.930  15.359 -0.8033 -0.0849  0.8603
18000TIP3    H175415   5.027   3.851  15.310  3.0131  2.3598 -1.7752
18000TIP3    H275416   5.063   3.932  15.433 -1.8383 -0.2827  1.7261
18001TIP3   OH275417   4.086   4.494  11.301 -0.3306  0.4732  0.0139
18001TIP3    H175418   4.143   4.475  11.227 -0.3732 -1.4198  0.4153
18001TIP3    H275419   4.037   4.572  11.275 -0.8625 -0.5473 -2.2534
18002TIP3   OH275420   5.896   4.300   1.711 -0.3507 -0.0700  0.5590
18002TIP3    H175421   5.932   4.388   1.728  0.9514 -0.6403  0.8873
18002TIP3    H275422   5.972   4.248   1.685 -0.8718 -1.4213  1.6423
18003TIP3   OH275423   3.163   5.997   0.652 -0.5382  0.7401  0.1318
18003TIP3    H175424   3.088   6.012   0.709 -1.4296 -1.7901 -0.2372
18003TIP3    H275425   3.216   5.932   0.698 -1.0799 -1.0743 -1.6220
18004TIP3   OH275426   2.021   3.085  15.763 -0.3937 -0.3810 -0.1482
18004TIP3    H175427   2.113   3.083  15.790 -0.3550  1.1766 -0.0434
18004TIP3    H275428   1.974   3.042  15.834  0.0197  0.9956  1.0198
18005TIP3   OH275429   3.352   2.325  11.370  0.7310  0.1115 -0.6305
18005TIP3    H175430   3.307   2.409  11.361 -0.1539 -0.3194 -0.3309
18005TIP3    H275431   3.317   2.271  11.299 -0.7285 -0.8687  0.7578
18006TIP3   OH275432   2.159   1.269   0.707  0.6323  0.1842 -0.4035
18006TIP3    H175433   2.188   1.219   0.783  0.7281 -1.2450 -1.3307
18006TIP3    H275434   2.113   1.205   0.652  2.3048  0.6420 -2.4814
18007TIP3   OH275435   3.173   2.439   3.045  0.5685  0.4809 -0.2820
18007TIP3    H175436   3.110   2.511   3.049 -0.1803 -0.2143  1.2223
18007TIP3    H275437   3.152   2.393   2.964 -2.0423 -0.7281  0.9799
18008TIP3   OH275438   6.076   0.559  10.440 -0.3908 -0.0370 -0.3971
18008TIP3    H175439   6.166   0.536  10.416  0.3371  0.5705  1.5384
18008TIP3    H275440   6.022   0.492  10.398  1.1858 -2.0557  0.5945
18009TIP3   OH275441   6.636   4.596   0.799 -0.1623 -0.1319  0.1609
18009TIP3    H175442   6.545   4.612   0.824 -0.5854 -1.2225 -0.6243
18009TIP3    H275443   6.650   4.651   0.721  0.3311  1.1850  1.1454
18010TIP3   OH275444   2.933   5.762   1.947  0.0737 -0.3140 -0.3158
18010TIP3    H175445   2.992   5.754   1.871  0.7176  0.4151  0.0901
18010TIP3    H275446   2.960   5.844   1.989 -1.2301  0.0207 -0.1004
18011TIP3   OH275447   5.852   4.256   0.334  0.3388  0.1247  0.2000
18011TIP3    H175448   5.888   4.243   0.247 -0.5986  0.7389 -0.2895
18011TIP3    H275449   5.928   4.274   0.389  0.9250 -0.1585 -0.5090
18012TIP3   OH275450   4.061   3.480  16.964 -0.1255  0.0089 -0.3642
18012TIP3    H175451   4.130   3.483  16.898  1.6038  0.2686  1.3512
18012TIP3    H275452   4.074   3.396  17.009 -0.6477  0.2459  0.2474
18013TIP3   OH275453   2.679   6.180  11.115 -0.1476 -0.2455  0.5348
18013TIP3    H175454   2.618   6.155  11.045  0.1072 -1.3726  0.6925
18013TIP3    H275455   2.719   6.261  11.084 -0.7359 -0.2241 -0.1960
18014TIP3   OH275456   2.833   0.856  16.547 -0.0308  0.5187 -0.0165
18014TIP3    H175457   2.824   0.843  16.453 -0.2312 -1.1130  0.1847
18014TIP3    H275458   2.918   0.817  16.569  0.2200  1.2953  0.4159
18015TIP3   OH275459   6.374   1.581   0.353  0.2196 -0.0406  0.0144
18015TIP3    H175460   6.467   1.578   0.375  0.4692 -2.8208 -1.0324
18015TIP3    H275461   6.372   1.603   0.260 -0.2367  0.6775  0.1824
18016TIP3   OH275462   2.852   1.326   1.211 -0.0654  0.1270 -0.1769
18016TIP3    H175463   2.885   1.305   1.298  0.5757  2.6831  0.2901
18016TIP3    H275464   2.882   1.255   1.155  0.6215 -0.9030  1.4431
18017TIP3   OH275465   5.270   2.754  13.273 -0.3981  0.6226 -0.0152
18017TIP3    H175466   5.183   2.716  13.291 -0.6507  0.4468 -1.5130
18017TIP3    H275467   5.272   2.834  13.326 -1.2418  0.3318  0.4817
18018TIP3   OH275468   5.841   3.759  12.182  0.2857 -0.5337 -0.0479
18018TIP3    H175469   5.759   3.801  12.209  1.7469  1.9820  0.8137
18018TIP3    H275470   5.884   3.823  12.126  0.9617 -2.4917 -1.8765
18019TIP3   OH275471   3.232   4.602   2.644  0.2622  0.1989  0.2919
18019TIP3    H175472   3.259   4.657   2.718 -0.6663  0.8764  0.1558
18019TIP3    H275473   3.232   4.513   2.679 -0.6605  0.5594  1.2762
18020TIP3   OH275474   5.525   0.028   4.603 -0.2272  1.0204 -0.4042
18020TIP3    H175475   5.587  -0.044   4.590  0.8456  1.8591 -0.0911
18020TIP3    H275476   5.496   0.052   4.515 -2.3631 -1.2348 -0.4229
18021TIP3   OH275477   6.583   3.187   6.204 -0.2336  0.4685  0.1767
18021TIP3    H175478   6.614   3.257   6.261  0.8005 -1.0727  1.6117
18021TIP3    H275479   6.536   3.128   6.263 -2.3617  0.6380 -1.2506
18022TIP3   OH275480   3.609   2.472  10.959 -0.3773 -0.0528  0.0260
18022TIP3    H175481   3.552   2.397  10.975  0.6618 -0.5264  1.7764
18022TIP3    H275482   3.697   2.437  10.965  0.1656  0.6920 -2.5167
18023TIP3   OH275483   0.493   2.730  13.790 -0.3396 -0.3187 -0.1633
18023TIP3    H175484   0.527   2.744  13.701 -1.5813 -0.8495 -0.7533
18023TIP3    H275485   0.429   2.799  13.802 -0.1616 -0.2385  0.3434
18024TIP3   OH275486   4.321   2.724  12.819  0.0563 -0.8392 -0.0614
18024TIP3    H175487   4.408   2.734  12.779 -1.0177  1.0147 -2.1300
18024TIP3    H275488   4.280   2.809  12.809 -1.3071 -1.0584  2.7661
18025TIP3   OH275489   3.213   1.404  11.411  0.0859 -0.1111  0.6583
18025TIP3    H175490   3.292   1.404  11.465  2.9822 -1.3462 -3.1210
18025TIP3    H275491   3.205   1.494  11.380  1.6508 -0.4231 -0.8522
18026TIP3   OH275492   3.810   4.343  15.927 -0.2178  0.1591 -0.1073
18026TIP3    H175493   3.903   4.329  15.944  0.1770  2.4042 -0.1146
18026TIP3    H275494   3.808   4.413  15.863 -1.9351  0.9487  0.7565
18027TIP3   OH275495   5.324   5.835   5.682 -0.1921  0.5062 -0.4129
18027TIP3    H175496   5.343   5.757   5.735 -1.3773  0.3577 -0.1785
18027TIP3    H275497   5.236   5.820   5.649  0.1600  1.0571 -1.6440
18028TIP3   OH275498   4.770   1.740  17.135 -0.3536 -0.1222 -0.5833
18028TIP3    H175499   4.813   1.662  17.169 -1.3166 -1.4542 -2.2272
18028TIP3    H275500   4.681   1.736  17.170 -0.1493  0.7889  0.0872
18029TIP3   OH275501   3.059   5.195  11.886 -0.4050  0.7963  0.5536
18029TIP3    H175502   2.998   5.229  11.952 -2.5292 -0.2451 -0.7741
18029TIP3    H275503   3.003   5.150  11.823  1.6875  0.5846 -1.2472
18030TIP3   OH275504   0.711   2.674   0.274 -0.4490  0.5396  0.5511
18030TIP3    H175505   0.805   2.689   0.259 -0.6171  0.7853 -0.2875
18030TIP3    H275506   0.709   2.606   0.341  0.3361  0.1636  0.2132
18031TIP3   OH275507   6.141   5.450  14.759  0.2077 -0.3206  0.1348
18031TIP3    H175508   6.149   5.357  14.737  0.5158 -0.7912  2.0977
18031TIP3    H275509   6.230   5.484  14.749  0.4648 -0.6643  1.1366
18032TIP3   OH275510   3.077   2.113   2.954  0.5373 -0.3963  0.2196
18032TIP3    H175511   3.018   2.057   3.004  1.2196 -1.6556 -0.3466
18032TIP3    H275512   3.034   2.123   2.869  0.5185 -0.2282  0.2487
18033TIP3   OH275513   1.749   6.164   1.888  0.3320  0.0427 -0.2012
18033TIP3    H175514   1.793   6.140   1.970 -0.2421  0.6413  0.2967
18033TIP3    H275515   1.668   6.207   1.916  0.4874  0.9377 -1.0712
18034TIP3   OH275516   2.294   4.857  12.481 -0.0692 -0.2346 -0.1702
18034TIP3    H175517   2.310   4.944  12.517  1.5007 -0.4491 -0.2622
18034TIP3    H275518   2.307   4.867  12.387 -1.0209 -0.3373 -0.3198
18035TIP3   OH275519   0.629   3.415   5.602  0.1566  0.3662  0.0154
18035TIP3    H175520   0.611   3.325   5.630 -0.0755  0.3728 -0.1035
18035TIP3    H275521   0.675   3.455   5.676 -0.2048  0.3022  0.2773
18036TIP3   OH275522   4.887   4.956  11.765 -0.0182 -0.1952 -0.3933
18036TIP3    H175523   4.847   4.974  11.680 -0.1460  0.1017 -0.2702
18036TIP3    H275524   4.967   4.908  11.744  0.3623  0.5834 -0.7269
18037TIP3   OH275525   5.607   4.927   5.325 -0.3169 -0.0956 -0.2805
18037TIP3    H175526   5.515   4.931   5.297 -0.5828 -2.1050  0.1560
18037TIP3    H275527   5.628   4.834   5.323  0.7122 -0.0196  2.7670
18038TIP3   OH275528   2.653   3.338  10.808  0.5574  0.0963 -0.7186
18038TIP3    H175529   2.728   3.305  10.757  1.1095 -1.4756  0.9933
18038TIP3    H275530   2.693   3.376  10.886 -0.4033 -0.4834  0.0710
18039TIP3   OH275531   4.410   0.225  13.844  0.8604  0.1428  0.3270
18039TIP3    H175532   4.486   0.170  13.856  0.4507 -0.0799  2.2197
18039TIP3    H275533   4.335   0.166  13.851  0.4759  0.4692 -0.7676
18040TIP3   OH275534   2.369   3.924  13.058  0.4366 -0.5191 -0.3540
18040TIP3    H175535   2.452   3.878  13.068  0.7062  0.4191  2.9597
18040TIP3    H275536   2.394   4.012  13.031  0.4586 -0.4951 -0.2563
18041TIP3   OH275537   1.662   4.894   5.691  0.1978  0.1842 -0.0979
18041TIP3    H175538   1.651   4.989   5.697 -1.1982 -0.0189  1.2866
18041TIP3    H275539   1.753   4.883   5.665 -0.0186  1.9067 -1.8712
18042TIP3   OH275540   2.513   4.226   2.046  1.2583  0.0616  0.6230
18042TIP3    H175541   2.536   4.271   1.965 -0.8687  3.4975  1.7433
18042TIP3    H275542   2.422   4.198   2.034  1.6349 -1.4482  1.0478
18043TIP3   OH275543   1.034   5.775   2.698 -0.0871 -0.1352  0.0892
18043TIP3    H175544   1.037   5.781   2.793 -1.6397 -2.6817  0.3842
18043TIP3    H275545   1.097   5.707   2.676 -0.0936  0.0948 -0.6764
18044TIP3   OH275546   1.215   6.220  16.021 -0.4986 -0.3163 -0.4166
18044TIP3    H175547   1.150   6.171  15.970 -0.5524  1.2071 -1.9352
18044TIP3    H275548   1.163   6.277  16.077 -0.6576  2.0904 -2.7894
18045TIP3   OH275549   4.408   3.936  13.688 -0.1257 -0.1629  0.3120
18045TIP3    H175550   4.355   3.909  13.763 -1.6642  0.4231 -0.5225
18045TIP3    H275551   4.389   3.871  13.620  0.4524 -0.1083  0.0899
18046TIP3   OH275552   5.374   3.947  14.125  0.4076 -0.0462  0.7783
18046TIP3    H175553   5.435   3.899  14.180  0.6694 -1.0670 -0.3726
18046TIP3    H275554   5.421   3.960  14.043 -0.5437  0.0557  0.2361
18047TIP3   OH275555   6.746   0.346   1.225 -0.3692 -0.3071 -0.1840
18047TIP3    H175556   6.830   0.347   1.180  0.4688  0.3262  1.3519
18047TIP3    H275557   6.714   0.256   1.215 -0.1900 -0.2093 -1.9392
18048TIP3   OH275558   0.965   1.491  16.445  0.5917 -0.0295 -0.3474
18048TIP3    H175559   1.001   1.557  16.504  0.8757 -1.0593  0.6611
18048TIP3    H275560   0.896   1.449  16.495  0.4358 -0.5236 -0.9682
18049TIP3   OH275561   5.326   4.146   5.137  0.2728 -0.1383 -0.6657
18049TIP3    H175562   5.417   4.177   5.136 -0.5968  2.6215 -0.6015
18049TIP3    H275563   5.319   4.092   5.058  1.9863 -0.5589 -0.5819
18050TIP3   OH275564   4.513   5.706  15.935 -0.7216 -0.4977  0.2820
18050TIP3    H175565   4.568   5.639  15.894 -0.0359 -0.4733  1.1395
18050TIP3    H275566   4.495   5.671  16.022  0.6144  0.9409  1.1709
18051TIP3   OH275567   5.036   5.527  15.342 -0.1102  0.5037 -0.1411
18051TIP3    H175568   5.027   5.514  15.437 -4.5576  1.2787 -0.2305
18051TIP3    H275569   5.016   5.441  15.305  2.3297  0.0173 -0.4800
18052TIP3   OH275570   0.725   5.917   6.397 -0.5994 -0.5086 -0.0091
18052TIP3    H175571   0.757   5.850   6.457 -2.1662 -1.2210  0.0645
18052TIP3    H275572   0.797   5.930   6.335  0.0288 -1.6695  0.4593
18053TIP3   OH275573   6.432   3.911  12.893 -0.5060 -0.1255  0.2301
18053TIP3    H175574   6.350   3.904  12.842 -0.6673 -0.3956  0.5260
18053TIP3    H275575   6.485   3.974  12.844 -0.2664 -1.1041 -0.8085
18054TIP3   OH275576   5.581   2.737  16.997  0.5034 -0.7743 -0.2366
18054TIP3    H175577   5.550   2.736  16.906  1.0327 -0.8536 -0.4201
18054TIP3    H275578   5.609   2.647  17.014 -1.4314 -1.2525  0.6681
18055TIP3   OH275579   4.850   0.317  11.443 -0.2698 -0.3216 -0.3381
18055TIP3    H175580   4.836   0.321  11.538 -1.0545  1.5147 -0.4812
18055TIP3    H275581   4.870   0.408  11.418 -2.0248 -0.3472 -2.1787
18056TIP3   OH275582   2.333   2.404  13.209  0.6289 -0.0251  0.0196
18056TIP3    H175583   2.259   2.460  13.232 -0.9735 -1.6748 -0.8839
18056TIP3    H275584   2.330   2.400  13.113  0.0719 -2.3897  0.0836
18057TIP3   OH275585   6.088   4.072   1.705  0.6400 -0.4260  0.0362
18057TIP3    H175586   6.013   4.019   1.730  0.6952 -1.2640 -1.4154
18057TIP3    H275587   6.155   4.008   1.679  0.8806  0.3220 -1.2796
18058TIP3   OH275588   3.787   2.322   1.125  0.3987  0.3246  0.1623
18058TIP3    H175589   3.754   2.282   1.044  0.9853  1.5816 -0.7284
18058TIP3    H275590   3.801   2.413   1.102 -0.4592  0.9612  2.0136
18059TIP3   OH275591   3.568   4.996  15.774  0.1332  0.7510  0.4387
18059TIP3    H175592   3.539   5.087  15.771  1.5735  1.2106 -1.7956
18059TIP3    H275593   3.633   4.994  15.844 -0.3526  1.2694  0.9159
18060TIP3   OH275594   0.614   5.740  17.107 -0.5166 -0.3526  0.4057
18060TIP3    H175595   0.572   5.668  17.060 -0.5916  1.2004 -2.0979
18060TIP3    H275596   0.700   5.749  17.065 -1.1340  1.9955 -0.5066
18061TIP3   OH275597   5.766   0.242   2.782 -0.0669  0.0246  0.1152
18061TIP3    H175598   5.756   0.295   2.703  0.3170 -0.4519 -0.2571
18061TIP3    H275599   5.804   0.302   2.846 -0.4747  0.4417 -0.0284
18062TIP3   OH275600   1.900   0.585   5.237 -0.1422 -0.2280  0.3638
18062TIP3    H175601   1.961   0.533   5.184  1.1778  1.1073  0.5187
18062TIP3    H275602   1.928   0.570   5.327 -1.1354 -0.9372  0.5653
18063TIP3   OH275603   0.033   6.710  16.106  0.6995  0.1717 -0.0817
18063TIP3    H175604   0.014   6.624  16.069 -1.3953  0.8412 -0.7062
18063TIP3    H275605   0.058   6.764  16.030  1.2720  0.3096  0.2007
18064TIP3   OH275606   2.942   3.695   5.843 -0.2212 -0.8541  0.3061
18064TIP3    H175607   2.940   3.695   5.939  0.1773 -0.2396  0.3179
18064TIP3    H275608   2.857   3.660   5.817 -1.1168  0.8490  0.8712
18065TIP3   OH275609   6.448   2.189   2.275 -0.4636  0.3166  0.0648
18065TIP3    H175610   6.507   2.216   2.345 -0.6439 -0.7280  0.6300
18065TIP3    H275611   6.415   2.272   2.240  0.9335  0.9017  0.0613
18066TIP3   OH275612   3.986   3.932   1.124 -0.2603  0.2968 -0.4804
18066TIP3    H175613   4.064   3.899   1.171  1.5262  3.1271 -1.2165
18066TIP3    H275614   3.993   3.894   1.037  0.4209  0.6368 -0.5853
18067TIP3   OH275615   1.523   5.191  15.506  0.6186  0.1335 -0.4361
18067TIP3    H175616   1.461   5.120  15.524  1.1045  0.1239  1.5272
18067TIP3    H275617   1.609   5.150  15.520  0.8840  1.4879  2.7854
18068TIP3   OH275618   4.997   5.418  14.182  0.2553  0.2600 -0.5830
18068TIP3    H175619   5.087   5.419  14.216 -0.6073 -1.0324  2.0841
18068TIP3    H275620   4.951   5.484  14.234 -0.6842 -0.2509 -0.7354
18069TIP3   OH275621   0.600   1.844   5.109 -0.7156  0.6302  0.1240
18069TIP3    H175622   0.596   1.939   5.121  0.8785  0.5582  1.5971
18069TIP3    H275623   0.674   1.830   5.050  0.5360  0.2402  1.7081
18070TIP3   OH275624   0.601   1.743   2.824  0.4445  0.0924 -0.3330
18070TIP3    H175625   0.525   1.800   2.827  0.5000  0.2549  3.5932
18070TIP3    H275626   0.676   1.802   2.813  0.2147  0.2946 -0.7909
18071TIP3   OH275627   2.150   6.677  15.067  0.4714  0.2752  0.0818
18071TIP3    H175628   2.101   6.746  15.021  0.8819  1.1538  0.9290
18071TIP3    H275629   2.199   6.632  14.998 -0.5204  0.2066 -0.6089
18072TIP3   OH275630   6.720   3.585  11.761 -0.3508 -0.0767 -0.1037
18072TIP3    H175631   6.663   3.531  11.815 -0.5956 -1.8163 -1.9686
18072TIP3    H275632   6.715   3.672  11.800 -0.9954 -1.0843  2.2291
18073TIP3   OH275633   1.397   2.724  15.028  0.9141  0.2455  0.7245
18073TIP3    H175634   1.343   2.672  15.087  2.5707 -1.8420  0.5357
18073TIP3    H275635   1.367   2.700  14.940  0.2971  1.2361  0.6553
18074TIP3   OH275636   6.340   3.519   0.657  0.3247  0.4827  0.2606
18074TIP3    H175637   6.250   3.512   0.690  0.1565  2.7556  0.4445
18074TIP3    H275638   6.331   3.563   0.573  1.2908  1.2548  0.5392
18075TIP3   OH275639   6.706   1.390  11.846  0.2254  0.2428 -0.5617
18075TIP3    H175640   6.799   1.390  11.823  0.5184  1.5929  0.4713
18075TIP3    H275641   6.675   1.478  11.823 -0.2833  0.4826  0.9080
18076TIP3   OH275642   2.418   4.862  11.869 -0.2111  0.1791 -0.3076
18076TIP3    H175643   2.348   4.916  11.905 -1.0939 -0.6195 -0.7848
18076TIP3    H275644   2.384   4.832  11.785 -1.0852 -3.5752  1.1676
18077TIP3   OH275645   1.365   0.944  14.272 -0.2669 -0.3522 -0.7570
18077TIP3    H175646   1.284   0.935  14.323  0.6489 -1.7686  0.5369
18077TIP3    H275647   1.335   0.953  14.181 -1.9043  0.7876 -0.1478
18078TIP3   OH275648   6.658   1.664  11.745 -0.2621  0.3659  0.3988
18078TIP3    H175649   6.623   1.640  11.659  1.4146  3.1028 -1.1906
18078TIP3    H275650   6.584   1.706  11.789 -1.1012 -0.9407  0.2992
18079TIP3   OH275651   0.001   5.899  13.113  0.9565  0.3480  0.3366
18079TIP3    H175652   0.041   5.831  13.059  1.0664  1.1896 -0.6752
18079TIP3    H275653  -0.093   5.887  13.100  0.9899  0.7226 -0.2734
18080TIP3   OH275654   0.103   0.632   3.432  0.9785 -0.1947  0.2247
18080TIP3    H175655   0.125   0.559   3.374  0.9559  0.8438 -1.1550
18080TIP3    H275656   0.172   0.630   3.499  0.6464 -1.8100  0.5713
18081TIP3   OH275657   1.609   1.005  14.468  0.0093 -0.2576 -0.0580
18081TIP3    H175658   1.672   0.945  14.428  0.7196 -0.2857  1.0581
18081TIP3    H275659   1.530   0.995  14.416  0.9399 -0.1533 -1.5588
18082TIP3   OH275660   3.094   6.599  14.384  0.8594  0.4802 -0.1977
18082TIP3    H175661   3.168   6.562  14.336  0.5384  1.7334 -1.7309
18082TIP3    H275662   3.135   6.651  14.454  1.3316 -1.2674  0.8971
18083TIP3   OH275663   4.554   0.178  10.665  0.1006 -0.4319 -0.2477
18083TIP3    H175664   4.580   0.256  10.616 -0.0460  1.1285  1.9705
18083TIP3    H275665   4.637   0.139  10.693  0.1725 -1.0512 -1.2897
18084TIP3   OH275666   0.389   6.562   5.167 -0.0682 -0.6019  0.7157
18084TIP3    H175667   0.434   6.598   5.244  2.1135 -0.6788 -0.4422
18084TIP3    H275668   0.332   6.633   5.138  1.6180  0.7203  0.4677
18085TIP3   OH275669   3.955   4.845  13.080 -0.0006  0.0946 -0.3491
18085TIP3    H175670   4.000   4.845  13.164  1.5375 -1.2759 -1.1292
18085TIP3    H275671   3.966   4.934  13.046 -0.0793  0.4702  0.5897
18086TIP3   OH275672   2.204   6.698  14.689  0.5046 -0.5433  0.4221
18086TIP3    H175673   2.125   6.645  14.680  1.2508 -1.8204  1.0727
18086TIP3    H275674   2.220   6.731  14.601  0.2609 -1.7892 -0.1241
18087TIP3   OH275675   4.144   3.464   5.166 -0.6750 -0.0234 -0.7369
18087TIP3    H175676   4.227   3.511   5.167  0.3147 -1.6141 -1.9910
18087TIP3    H275677   4.096   3.498   5.242 -0.7546  4.0707 -2.3737
18088TIP3   OH275678   2.065   0.989   2.111 -0.5076 -0.2037  0.4367
18088TIP3    H175679   2.006   1.063   2.125  0.1093  0.1054  1.4716
18088TIP3    H275680   2.108   1.009   2.028 -1.0144  0.1415  0.2501
18089TIP3   OH275681   2.807   2.543   4.900  0.1556  0.5034 -0.5557
18089TIP3    H175682   2.842   2.612   4.957  1.3880 -0.8593  0.4161
18089TIP3    H275683   2.874   2.533   4.832  0.6992 -0.6668  0.1149
18090TIP3   OH275684   3.874   4.340  16.298  0.4514  0.4422 -0.2508
18090TIP3    H175685   3.953   4.309  16.254  0.3582  1.2784 -1.0206
18090TIP3    H275686   3.802   4.300  16.250  0.3557 -2.3715  1.9406
18091TIP3   OH275687   3.660   2.985  13.199  0.4515 -0.4901  0.4860
18091TIP3    H175688   3.572   2.957  13.175  0.2459 -0.0213  0.6818
18091TIP3    H275689   3.676   3.062  13.145 -0.1079  0.7108  1.9634
18092TIP3   OH275690   2.852   2.632   0.934 -0.3694 -0.4762  0.0264
18092TIP3    H175691   2.855   2.632   0.839 -0.1353  1.9224 -0.0206
18092TIP3    H275692   2.850   2.539   0.958  0.6981 -1.1557 -2.2528
18093TIP3   OH275693   4.619   4.408   1.536 -0.0079  0.2525 -0.1479
18093TIP3    H175694   4.536   4.395   1.581 -0.4130  1.2125 -0.5911
18093TIP3    H275695   4.676   4.340   1.572 -0.3655  0.8354  1.6749
18094TIP3   OH275696   1.314   5.786   1.006 -0.2978 -0.2515  0.0398
18094TIP3    H175697   1.234   5.808   0.960 -0.2070 -0.2295 -0.1082
18094TIP3    H275698   1.295   5.703   1.051 -0.7299  0.2653  0.8229
18095TIP3   OH275699   2.655   4.580  16.171  0.3767 -0.1168  0.5928
18095TIP3    H175700   2.594   4.653  16.157  0.0882 -0.6722 -1.4552
18095TIP3    H275701   2.672   4.547  16.083  1.9516 -1.3703  1.3253
18096TIP3   OH275702   4.810   1.362   4.443 -1.2808 -0.3506  0.5249
18096TIP3    H175703   4.740   1.349   4.506 -1.0547 -0.3410  0.7804
18096TIP3    H275704   4.794   1.448   4.406 -2.9053 -1.3549 -1.3098
18097TIP3   OH275705   6.754   0.434  16.255 -0.1658 -0.1207 -0.5733
18097TIP3    H175706   6.689   0.369  16.228  0.4399  0.4863 -3.9043
18097TIP3    H275707   6.707   0.517  16.255  0.2391  0.1249 -1.5991
18098TIP3   OH275708   4.161   6.107  14.672  0.7579 -0.3031 -0.4679
18098TIP3    H175709   4.074   6.119  14.634  0.9810 -0.0292 -0.8926
18098TIP3    H275710   4.144   6.069  14.759  0.0834  1.9384  0.4424
18099TIP3   OH275711   4.148   5.610   5.565 -0.1793  0.2797  0.3693
18099TIP3    H175712   4.212   5.594   5.635 -0.2057  1.4227  0.6670
18099TIP3    H275713   4.074   5.554   5.587 -0.0287  0.3396  1.0458
18100TIP3   OH275714   4.298   4.009   1.908  0.0911  0.0307  0.4809
18100TIP3    H175715   4.270   4.041   1.822  0.2862 -0.4114  0.2503
18100TIP3    H275716   4.245   4.059   1.970 -0.8691 -0.4389  0.0623
18101TIP3   OH275717   5.454   5.676   1.291 -0.0740 -0.5585  0.0571
18101TIP3    H175718   5.381   5.713   1.340  0.3670  0.2179  0.1435
18101TIP3    H275719   5.470   5.591   1.332 -1.8417 -1.3959 -0.8688
18102TIP3   OH275720   2.816   0.445  12.957 -0.7038 -0.3814 -0.2829
18102TIP3    H175721   2.860   0.398  13.028 -0.4176 -0.1206 -0.2874
18102TIP3    H275722   2.748   0.496  13.001  0.4222  0.9310 -0.0117
18103TIP3   OH275723   1.164   2.265  17.169 -0.3920  0.4510 -0.5752
18103TIP3    H175724   1.165   2.293  17.260 -0.0571  0.2421 -0.5145
18103TIP3    H275725   1.242   2.304  17.130  1.0310 -1.7027 -0.0876
18104TIP3   OH275726   0.610   1.076  11.396  1.1565  0.7416 -0.3325
18104TIP3    H175727   0.544   1.027  11.347 -0.0679  1.6704  0.3597
18104TIP3    H275728   0.689   1.022  11.390  0.0758 -0.8968 -0.3099
18105TIP3   OH275729   2.375   5.985   1.251 -0.4258  0.0492  0.5904
18105TIP3    H175730   2.469   5.988   1.270  0.0131 -1.4517 -1.0831
18105TIP3    H275731   2.337   6.053   1.307  1.5751  0.3402  1.6889
18106TIP3   OH275732   0.151   5.201  12.863  0.5014  0.3881 -0.5588
18106TIP3    H175733   0.097   5.221  12.938  1.5000  0.4792  0.1609
18106TIP3    H275734   0.095   5.217  12.787 -0.1332  1.5092  0.1285
18107TIP3   OH275735   6.318   2.061  16.856  0.3582  0.2631 -0.2107
18107TIP3    H175736   6.225   2.042  16.859  0.6716 -2.0612 -2.0150
18107TIP3    H275737   6.359   1.985  16.898  1.5506 -1.3764 -3.8901
18108TIP3   OH275738   0.429   6.078   5.138  0.1516 -0.6624 -0.1405
18108TIP3    H175739   0.375   6.022   5.083 -1.1898  0.3040  0.1403
18108TIP3    H275740   0.369   6.111   5.205  1.1199  0.3513  0.2653
18109TIP3   OH275741   1.822   1.242   1.636 -0.0291 -0.3833 -0.0059
18109TIP3    H175742   1.783   1.329   1.642  0.3488 -0.2741  1.2955
18109TIP3    H275743   1.916   1.259   1.625 -0.1459 -0.6456 -1.6741
18110TIP3   OH275744   0.508   0.027   2.141  0.4120 -0.1974  0.5325
18110TIP3    H175745   0.552  -0.046   2.185  0.6973  0.4508  1.3570
18110TIP3    H275746   0.569   0.054   2.073  0.2163 -0.8474  0.0897
18111TIP3   OH275747   2.585   1.756  13.472  0.7328 -0.0235 -0.2549
18111TIP3    H175748   2.648   1.781  13.404  3.6550  0.0334  2.2280
18111TIP3    H275749   2.519   1.825  13.470  1.5987  0.8183 -2.0133
18112TIP3   OH275750   3.685   5.903  14.427  0.6624  0.3309 -0.4055
18112TIP3    H175751   3.666   5.857  14.346  2.4566  1.3526 -1.4878
18112TIP3    H275752   3.624   5.867  14.491  0.1837 -1.5446 -1.8435
18113TIP3   OH275753   5.449   6.210  13.703 -0.2731  0.7642  0.4134
18113TIP3    H175754   5.522   6.158  13.670 -0.5835  1.1150 -0.8681
18113TIP3    H275755   5.474   6.231  13.793  0.0045 -1.3000  0.8598
18114TIP3   OH275756   6.176   0.350   5.252 -0.2081 -0.0082  0.2564
18114TIP3    H175757   6.256   0.328   5.300 -0.9657  0.2712  1.6906
18114TIP3    H275758   6.115   0.380   5.319 -1.4585 -0.0170 -0.8391
18115TIP3   OH275759   4.503   1.330   5.252 -0.0864  0.5383  0.0350
18115TIP3    H175760   4.440   1.271   5.210 -0.0754  1.5120 -1.4322
18115TIP3    H275761   4.490   1.316   5.346 -2.4732  0.6767 -0.2109
18116TIP3   OH275762   1.457   0.292   0.781 -0.1803 -0.1562  0.5498
18116TIP3    H175763   1.515   0.365   0.758  0.5022 -0.7867  0.2117
18116TIP3    H275764   1.375   0.334   0.808  0.4612  0.7690  1.1380
18117TIP3   OH275765   1.316   0.090   0.604 -0.1962  0.2177 -0.0145
18117TIP3    H175766   1.359   0.170   0.633  1.0743 -0.3048 -0.4013
18117TIP3    H275767   1.223   0.113   0.599 -0.2426  0.8932  2.5263
18118TIP3   OH275768   5.572   1.767  14.848  0.2046  0.3812  0.4140
18118TIP3    H175769   5.661   1.802  14.853 -0.1187  1.3643 -0.5021
18118TIP3    H275770   5.550   1.746  14.939  0.0616  3.5192  1.2213
18119TIP3   OH275771   4.973   1.194  12.287  0.1282  0.4076 -0.0294
18119TIP3    H175772   4.923   1.130  12.237  0.8970  0.1232 -0.4423
18119TIP3    H275773   4.922   1.275  12.279 -0.7185 -0.0780  0.2901
18120TIP3   OH275774   4.312   4.457  12.749 -0.1165 -0.0875 -0.3946
18120TIP3    H175775   4.303   4.362  12.757 -0.5889  0.0276  0.5351
18120TIP3    H275776   4.254   4.480  12.677 -0.8817 -0.3766  0.1173
18121TIP3   OH275777   5.698   1.365   4.551  0.6760  0.4382  0.1551
18121TIP3    H175778   5.774   1.313   4.577  0.8284 -0.6211 -2.0980
18121TIP3    H275779   5.710   1.379   4.457 -0.8986  2.0057  0.1382
18122TIP3   OH275780   0.791   3.949  12.014 -0.6870  0.1203 -0.0496
18122TIP3    H175781   0.696   3.947  12.026 -1.0561 -2.1760 -2.4105
18122TIP3    H275782   0.809   3.873  11.959  2.8793 -1.0483  2.4188
18123TIP3   OH275783   6.091   4.310   4.663 -0.4792 -0.2712 -0.8178
18123TIP3    H175784   6.068   4.402   4.647 -0.8349  0.0352  1.2339
18123TIP3    H275785   6.175   4.315   4.709 -0.7609 -0.9476 -0.2305
18124TIP3   OH275786   2.443   3.682   1.528  0.1175  0.1081 -0.9611
18124TIP3    H175787   2.367   3.681   1.470 -0.2071  0.8232 -0.5559
18124TIP3    H275788   2.458   3.775   1.547  0.9857 -0.0355 -0.8953
18125TIP3   OH275789   1.064   0.197   2.397  0.0937  0.8278  0.0153
18125TIP3    H175790   1.056   0.282   2.440 -0.3061 -0.3969  2.6230
18125TIP3    H275791   1.102   0.140   2.465 -0.6646 -1.3014 -1.2474
18126TIP3   OH275792   1.726   0.542  10.840 -0.4263 -0.2157 -1.0949
18126TIP3    H175793   1.813   0.505  10.856 -0.5710 -0.7395 -1.4767
18126TIP3    H275794   1.741   0.612  10.776 -0.2158  0.0567 -0.7479
18127TIP3   OH275795   2.154   2.676  13.022  0.5396  0.0321 -0.0825
18127TIP3    H175796   2.249   2.675  13.022  0.6953  1.8352  3.0228
18127TIP3    H275797   2.129   2.625  13.099 -0.8921  1.1920  0.2827
18128TIP3   OH275798   2.864   5.497   1.613  0.1596  0.1584  0.2694
18128TIP3    H175799   2.774   5.506   1.646  0.0049  0.9173 -0.3301
18128TIP3    H275800   2.915   5.474   1.690 -0.6364 -0.9011  0.5156
18129TIP3   OH275801   4.057   6.246   3.565  0.0282 -0.1877  0.3896
18129TIP3    H175802   4.138   6.227   3.612 -0.4340 -0.2958  1.1582
18129TIP3    H275803   4.003   6.168   3.578 -0.3717  0.0667  0.2688
18130TIP3   OH275804   0.328   4.375  11.534 -0.4153 -0.2820  0.4730
18130TIP3    H175805   0.312   4.335  11.449  1.2479 -0.7278  0.3291
18130TIP3    H275806   0.417   4.347  11.558 -0.9134 -0.3413  2.4505
18131TIP3   OH275807   2.822   1.653  11.788  0.5488 -0.0658 -0.0280
18131TIP3    H175808   2.763   1.621  11.856  0.1309  0.8641  0.0757
18131TIP3    H275809   2.802   1.747  11.782  0.4827 -0.1485 -1.5243
18132TIP3   OH275810   4.735   5.983  11.900  0.6727 -0.2550  0.2785
18132TIP3    H175811   4.785   5.992  11.819  0.5511 -0.7774  0.1426
18132TIP3    H275812   4.797   5.944  11.962  0.5055 -0.7137  0.1678
18133TIP3   OH275813   0.975   4.381   0.769 -0.0154  0.4211 -0.6614
18133TIP3    H175814   0.892   4.348   0.736  0.9940 -1.1507 -1.7622
18133TIP3    H275815   1.004   4.444   0.702 -0.9331  2.0715  0.4120
18134TIP3   OH275816   6.336   4.565  17.125  0.2414 -0.2435 -0.1056
18134TIP3    H175817   6.416   4.618  17.127 -0.7221  1.3662 -1.9321
18134TIP3    H275818   6.352   4.496  17.190  3.8518 -1.0621 -1.6184
18135TIP3   OH275819   4.555   1.536   2.028  0.4257 -0.2187 -0.0795
18135TIP3    H175820   4.615   1.467   2.057 -0.3995 -0.1867  1.8614
18135TIP3    H275821   4.470   1.510   2.065  0.1847  2.0254  1.0812
18136TIP3   OH275822   6.269   2.563   5.838  0.4803 -0.1879 -0.7222
18136TIP3    H175823   6.353   2.531   5.873  0.7992  0.5233 -0.8263
18136TIP3    H275824   6.206   2.545   5.908  1.3911  2.7390  1.0413
18137TIP3   OH275825   0.949   3.868   2.048  0.0586 -0.1486 -0.2931
18137TIP3    H175826   0.880   3.889   2.112  0.4625  1.4406 -0.3173
18137TIP3    H275827   0.924   3.783   2.014  0.4512 -1.6522  2.7998
18138TIP3   OH275828   2.862   2.461   4.165  0.0377  0.1930 -0.6629
18138TIP3    H175829   2.800   2.488   4.098 -0.5436 -0.5941 -0.4552
18138TIP3    H275830   2.859   2.366   4.164 -0.9169  0.1481  1.3074
18139TIP3   OH275831   3.235   2.475  13.098  0.2373  0.3122  0.4835
18139TIP3    H175832   3.159   2.470  13.157 -0.8643  0.4366 -0.8705
18139TIP3    H275833   3.215   2.413  13.028  0.3179  1.9289 -1.0505
18140TIP3   OH275834   5.454   4.569  14.579  0.4285 -0.1878 -0.1069
18140TIP3    H175835   5.507   4.574  14.659  0.6105  0.3350 -0.2556
18140TIP3    H275836   5.383   4.631  14.594 -0.2614 -1.0244  0.1679
18141TIP3   OH275837   4.682   6.094  13.320  0.3435 -0.1876 -0.4061
18141TIP3    H175838   4.765   6.057  13.290  0.5103  0.4303 -0.7324
18141TIP3    H275839   4.616   6.055  13.262  0.1339 -2.2048  1.1037
18142TIP3   OH275840   2.034   5.478   3.464  0.3373 -0.1755  0.1112
18142TIP3    H175841   1.964   5.417   3.490  2.1360 -1.4362  2.3495
18142TIP3    H275842   2.025   5.552   3.524 -0.3804  0.7396 -1.0687
18143TIP3   OH275843   6.609   1.186  13.967  0.2869  0.6260 -0.2106
18143TIP3    H175844   6.638   1.138  14.045 -2.1683 -0.3748  0.1950
18143TIP3    H275845   6.571   1.118  13.911 -2.6977  1.8893  0.0771
18144TIP3   OH275846   2.448   4.997   6.376  0.2798  0.4013  0.0188
18144TIP3    H175847   2.536   5.007   6.412  0.1706 -0.3356  0.5217
18144TIP3    H275848   2.407   4.932   6.432 -0.1969 -0.1235 -0.9174
18145TIP3   OH275849   1.610   0.006  16.715 -0.2506  0.2587  0.7275
18145TIP3    H175850   1.515  -0.006  16.719 -0.4867  1.8330  0.6230
18145TIP3    H275851   1.646  -0.075  16.751 -1.6255 -0.3761  0.7511
18146TIP3   OH275852   6.508   2.575   2.906  0.6987  0.0403  0.6272
18146TIP3    H175853   6.520   2.626   2.985  1.0826 -0.3328  0.8104
18146TIP3    H275854   6.448   2.627   2.853  0.3755  0.2527  1.1948
18147TIP3   OH275855   4.360   1.850  16.942  0.3012  0.0790 -0.3302
18147TIP3    H175856   4.451   1.825  16.929  0.7422 -0.0346  2.3871
18147TIP3    H275857   4.364   1.927  16.999 -1.2842  0.8328 -1.1791
18148TIP3   OH275858   3.596   3.367   2.471 -0.0653  0.3664 -0.2672
18148TIP3    H175859   3.634   3.450   2.499 -0.3271  0.9686 -1.6392
18148TIP3    H275860   3.568   3.382   2.381 -0.9217 -0.9482 -0.2469
18149TIP3   OH275861   5.594   0.326  13.251  0.0506  0.3959 -0.7288
18149TIP3    H175862   5.626   0.281  13.173  1.8636 -0.5482  0.4846
18149TIP3    H275863   5.588   0.257  13.318 -2.3059  0.9984 -0.2045
18150TIP3   OH275864   5.354   5.738  16.387  0.2249 -0.4573  0.8349
18150TIP3    H175865   5.419   5.667  16.382 -0.4155 -0.9988 -0.0816
18150TIP3    H275866   5.298   5.724  16.311  0.5977  1.5476  0.1358
18151TIP3   OH275867   6.586   4.074   1.051  0.2877  0.8577 -0.5987
18151TIP3    H175868   6.498   4.108   1.038 -0.1798  0.3919  1.1545
18151TIP3    H275869   6.627   4.137   1.111  0.1928 -0.3883  0.8137
18152TIP3   OH275870   2.867   5.212  13.395  0.1135 -0.2120 -0.4339
18152TIP3    H175871   2.789   5.173  13.434 -0.9864  2.0553 -0.1600
18152TIP3    H275872   2.875   5.171  13.309 -2.0310  0.2362 -0.8886
18153TIP3   OH275873   3.113   0.757  10.956 -0.6255 -0.2235 -0.0465
18153TIP3    H175874   3.045   0.689  10.949 -0.5599 -0.0864 -3.3222
18153TIP3    H275875   3.077   0.832  10.910  1.0197  0.4953 -0.2283
18154TIP3   OH275876   2.223   2.530  15.386  0.1389  0.4885  0.3306
18154TIP3    H175877   2.185   2.450  15.423  0.9076  1.0408  2.4444
18154TIP3    H275878   2.152   2.594  15.389  0.4624  0.8089  1.8761
18155TIP3   OH275879   1.624   4.091  16.193 -0.4026 -0.1802 -0.0706
18155TIP3    H175880   1.684   4.135  16.133 -0.2072 -1.1581 -0.6244
18155TIP3    H275881   1.677   4.073  16.271 -0.4178  0.3334  0.0619
18156TIP3   OH275882   4.953   6.553  16.156  0.2280 -0.0793  0.2597
18156TIP3    H175883   4.869   6.511  16.139 -1.2548  2.4821  0.7196
18156TIP3    H275884   4.948   6.580  16.248  0.8754  1.4615 -0.1238
18157TIP3   OH275885   2.445   3.158   3.167  0.4050  0.6590 -0.2015
18157TIP3    H175886   2.384   3.089   3.143 -0.3433  1.2316  0.0399
18157TIP3    H275887   2.458   3.148   3.261  2.2387 -0.6917 -0.5322
18158TIP3   OH275888   2.237   2.293  15.163  0.3198  0.0502  0.0343
18158TIP3    H175889   2.263   2.385  15.155 -1.0434  0.5970  1.5136
18158TIP3    H275890   2.319   2.244  15.157  1.0326  1.3133 -1.0780
18159TIP3   OH275891   6.459   6.185  12.081  0.2612 -0.5271  0.1507
18159TIP3    H175892   6.489   6.202  11.992  0.2279 -1.9190 -0.1508
18159TIP3    H275893   6.408   6.263  12.104 -0.0559 -0.3070 -1.1932
18160TIP3   OH275894   0.788   2.604  13.798 -0.1389  0.4266 -0.5695
18160TIP3    H175895   0.858   2.560  13.750 -0.7818 -1.7766  0.4080
18160TIP3    H275896   0.709   2.554  13.777 -0.6852  0.3262  1.5549
18161TIP3   OH275897   6.720   4.019  11.773  0.1557  0.2614 -0.1656
18161TIP3    H175898   6.687   4.018  11.683  1.9898  0.6880 -0.9082
18161TIP3    H275899   6.679   4.095  11.813 -2.0218 -0.9092 -0.0536
18162TIP3   OH275900   3.837   1.542  12.717 -0.3543 -0.0426  0.0749
18162TIP3    H175901   3.897   1.474  12.687 -1.4453 -1.4444  0.9756
18162TIP3    H275902   3.830   1.529  12.811 -0.4105  1.4901  0.3167
18163TIP3   OH275903   4.627   5.172  14.588 -0.6354  0.4869  0.2086
18163TIP3    H175904   4.645   5.266  14.597 -0.1809  0.5134 -0.8049
18163TIP3    H275905   4.645   5.135  14.674 -1.1154  1.3709  0.7098
18164TIP3   OH275906   2.282   6.596  16.835  0.1586  0.0252 -0.3444
18164TIP3    H175907   2.222   6.527  16.863  1.0271 -1.5428 -2.1476
18164TIP3    H275908   2.250   6.623  16.749  0.5498  1.0119 -0.1932
18165TIP3   OH275909   0.221   5.368   1.303  0.6342 -0.6183 -0.2180
18165TIP3    H175910   0.197   5.461   1.308  1.5847 -0.4087  1.2624
18165TIP3    H275911   0.149   5.326   1.256 -0.8039  0.5374  0.8849
18166TIP3   OH275912   6.254   1.587   5.647 -0.6749 -0.0571 -0.3704
18166TIP3    H175913   6.161   1.565   5.651 -1.0954  1.6319  0.0142
18166TIP3    H275914   6.257   1.666   5.593  0.8220 -1.3817 -2.3550
18167TIP3   OH275915   2.059   5.408  10.683 -0.4006  0.4443 -0.0751
18167TIP3    H175916   2.103   5.332  10.647 -2.3432 -0.4177 -0.7546
18167TIP3    H275917   2.130   5.466  10.710  1.1417 -0.4446 -1.9639
18168TIP3   OH275918   1.084   6.259  15.596  0.0797  0.0535  0.3622
18168TIP3    H175919   1.085   6.178  15.647 -0.3849 -0.4681 -0.4268
18168TIP3    H275920   1.066   6.230  15.506  0.9059  0.9413 -0.1092
18169TIP3   OH275921   1.126   5.264  16.547  0.0189  0.1633 -0.4731
18169TIP3    H175922   1.093   5.199  16.485 -0.4049  0.1189 -0.2017
18169TIP3    H275923   1.140   5.215  16.628 -0.2797  0.4081 -0.2736
18170TIP3   OH275924   2.720   3.564  17.084 -0.0613 -0.1008 -0.4480
18170TIP3    H175925   2.801   3.537  17.041 -0.7702  0.0339 -1.9422
18170TIP3    H275926   2.690   3.485  17.129  0.2663 -0.5179 -0.9383
18171TIP3   OH275927   6.146   5.228  13.364 -0.8005  0.2648 -0.1299
18171TIP3    H175928   6.166   5.246  13.272 -0.2948 -1.4150 -0.3786
18171TIP3    H275929   6.216   5.169  13.393 -1.0519  0.6279  1.2859
18172TIP3   OH275930   1.109   2.384  13.164  0.3304 -0.4231  0.0979
18172TIP3    H175931   1.037   2.408  13.106  0.8438  1.2584  0.1125
18172TIP3    H275932   1.153   2.312  13.120  0.5758  0.6659 -1.5036
18173TIP3   OH275933   4.627   4.071   6.021 -0.3469 -0.6915 -0.3138
18173TIP3    H175934   4.578   3.993   6.048  0.5741 -1.6500 -1.3080
18173TIP3    H275935   4.566   4.118   5.964 -0.8638 -0.7636  0.1781
18174TIP3   OH275936   3.036   5.320  16.219 -0.2725 -0.3213 -0.0934
18174TIP3    H175937   2.992   5.390  16.268  0.5344  1.8333 -2.2535
18174TIP3    H275938   3.113   5.299  16.271  1.6197  3.2730 -1.1169
18175TIP3   OH275939   5.073   0.937  15.694 -0.8534  0.0257 -0.2765
18175TIP3    H175940   5.111   1.025  15.689  0.8734 -0.6445  0.3537
18175TIP3    H275941   5.022   0.938  15.775  0.3831  0.0267  0.5353
18176TIP3   OH275942   0.220   2.009  16.584 -0.4656 -1.0314 -0.1864
18176TIP3    H175943   0.303   1.962  16.572 -0.3310 -0.6555 -0.7890
18176TIP3    H275944   0.165   1.980  16.512 -0.5259 -0.5882 -0.3252
18177TIP3   OH275945   2.610   4.824   3.234  0.6577 -0.3976  0.2732
18177TIP3    H175946   2.681   4.871   3.191  0.4615  0.1214  0.5037
18177TIP3    H275947   2.653   4.750   3.278  1.1930  0.4396  1.1901
18178TIP3   OH275948   0.397   0.362  16.407  0.1328 -0.2467  0.4326
18178TIP3    H175949   0.317   0.399  16.444  0.8319  1.2434  0.5278
18178TIP3    H275950   0.405   0.403  16.321 -0.6480 -2.5112 -0.8025
18179TIP3   OH275951   5.416   4.264   0.691 -0.0814 -0.1335 -0.3252
18179TIP3    H175952   5.362   4.194   0.654 -1.3461  0.3453  0.5468
18179TIP3    H275953   5.413   4.333   0.625 -0.1456 -0.2882 -0.4866
18180TIP3   OH275954   1.874   3.474   1.815 -0.0300  0.8199  0.0901
18180TIP3    H175955   1.849   3.563   1.840 -0.9706  0.3628  0.8212
18180TIP3    H275956   1.791   3.431   1.793  0.6098  0.8107 -2.6508
18181TIP3   OH275957   2.417   1.089  12.488  0.0072 -0.2572  0.0533
18181TIP3    H175958   2.495   1.085  12.432 -0.7396 -1.2204 -0.9872
18181TIP3    H275959   2.359   1.021  12.452 -1.1250  0.1304  1.0807
18182TIP3   OH275960   4.504   1.567   2.540 -0.1235 -0.8569  0.2196
18182TIP3    H175961   4.509   1.509   2.616 -1.6342 -1.7391 -0.3077
18182TIP3    H275962   4.551   1.520   2.471  0.3170 -0.5500  0.3048
18183TIP3   OH275963   3.721   1.092  13.099  0.1588  0.2269  0.1295
18183TIP3    H175964   3.714   1.164  13.037 -1.4639  0.8247  0.9377
18183TIP3    H275965   3.687   1.128  13.181 -0.3799 -1.3456  0.6444
18184TIP3   OH275966   3.326   1.363  13.352  0.5678 -0.0260 -0.0083
18184TIP3    H175967   3.409   1.319  13.335  1.2086  1.0592  0.1729
18184TIP3    H275968   3.343   1.417  13.430 -0.8800 -1.2363  1.2060
18185TIP3   OH275969   4.983   2.265  13.931  0.2129 -0.0466 -0.2600
18185TIP3    H175970   5.008   2.312  14.011 -0.0287  0.0531 -0.2428
18185TIP3    H275971   4.986   2.331  13.862 -0.0255 -0.0288 -0.2542
18186TIP3   OH275972   5.980   6.511  12.635  0.3079  0.1060 -0.0656
18186TIP3    H175973   5.909   6.510  12.700 -0.4455  0.8585 -0.8510
18186TIP3    H275974   6.048   6.566  12.675 -0.5592  1.4027 -0.2957
18187TIP3   OH275975   0.990   6.452   1.393 -0.2209  0.1907  0.0515
18187TIP3    H175976   0.940   6.499   1.461  0.2103 -1.3487  1.4976
18187TIP3    H275977   1.077   6.491   1.398 -0.2230  0.1684  0.2959
18188TIP3   OH275978   5.579   5.271  11.050  0.1200  0.3042 -0.4572
18188TIP3    H175979   5.629   5.338  11.003 -0.6045  0.6287 -0.7770
18188TIP3    H275980   5.614   5.188  11.018 -0.4648  0.5143 -1.6996
18189TIP3   OH275981   2.388   4.729   6.445 -0.4866 -0.4863 -0.1716
18189TIP3    H175982   2.309   4.703   6.491 -0.7741  0.6811  0.0203
18189TIP3    H275983   2.373   4.705   6.354 -1.0669 -0.2619 -0.1358
18190TIP3   OH275984   5.996   2.279   0.194 -0.9833 -0.7831  0.0297
18190TIP3    H175985   6.013   2.212   0.260  2.1076  0.1490  0.3547
18190TIP3    H275986   6.053   2.255   0.120 -0.5611  0.8944 -0.2374
18191TIP3   OH275987   4.905   1.482   0.683 -0.3809 -0.4923  0.1014
18191TIP3    H175988   4.864   1.411   0.733 -2.1579 -0.6414 -1.4783
18191TIP3    H275989   4.926   1.443   0.598  0.7697  0.2892  0.0002
18192TIP3   OH275990   3.317   1.804   3.449 -0.5542  0.3073 -0.6941
18192TIP3    H175991   3.238   1.822   3.398  0.5657  1.0869 -2.2401
18192TIP3    H275992   3.285   1.767   3.531 -2.5343  1.0111 -1.0989
18193TIP3   OH275993   4.140   1.683  11.709 -0.0383  0.1227  0.1763
18193TIP3    H175994   4.085   1.759  11.730  1.4704  1.3142 -0.0332
18193TIP3    H275995   4.197   1.673  11.785 -0.8142 -1.3911  0.5905
18194TIP3   OH275996   4.911   4.791  16.148  0.6026 -0.3192  0.4035
18194TIP3    H175997   4.954   4.713  16.183  2.5323 -0.3213 -1.7364
18194TIP3    H275998   4.963   4.816  16.072 -2.4585  0.4960 -1.6568
18195TIP3   OH275999   2.804   5.984  11.602 -0.6207 -0.0898  0.1136
18195TIP3    H176000   2.768   6.011  11.518  1.2533 -1.6617 -1.2985
18195TIP3    H276001   2.876   5.924  11.579 -0.3171 -0.9114  2.8444
18196TIP3   OH276002   5.273   6.055   1.463 -0.6871  0.2268  0.4086
18196TIP3    H176003   5.365   6.081   1.467 -0.2008 -1.4727  1.6125
18196TIP3    H276004   5.252   6.029   1.553 -2.0635 -0.3062 -0.0410
18197TIP3   OH276005   6.417   0.552  16.418  0.1410 -0.5208 -0.1301
18197TIP3    H176006   6.451   0.589  16.336  0.1423 -2.4291 -1.0302
18197TIP3    H276007   6.328   0.525  16.397 -0.2431 -0.0561  0.8327
18198TIP3   OH276008   0.943   6.411  14.451  0.2151  0.4048 -0.1193
18198TIP3    H176009   0.915   6.489  14.404 -0.7157  1.1246  1.5454
18198TIP3    H276010   1.033   6.431  14.479  2.0130 -1.2394 -4.0224
18199TIP3   OH276011   0.066   4.871   4.236  0.1942 -0.0825 -0.0235
18199TIP3    H176012   0.007   4.878   4.311 -1.5183  0.7551 -1.3766
18199TIP3    H276013   0.032   4.797   4.186  0.3363  0.3682 -0.7897
18200TIP3   OH276014   2.116   4.283   1.323 -1.1004 -0.0513  0.0889
18200TIP3    H176015   2.058   4.231   1.267 -0.2378  0.5910 -1.4390
18200TIP3    H276016   2.059   4.353   1.357 -1.3862  0.2067 -0.8908
18201TIP3   OH276017   2.677   2.686   5.161  0.4012  0.1479  0.2348
18201TIP3    H176018   2.588   2.691   5.196 -0.0811  2.6217 -1.1678
18201TIP3    H276019   2.666   2.661   5.070  1.3971 -2.2587  0.6985
18202TIP3   OH276020   1.510   3.188   5.439 -0.1912 -0.1702 -0.4219
18202TIP3    H176021   1.530   3.269   5.393 -0.7171 -0.6789 -1.5776
18202TIP3    H276022   1.589   3.168   5.489 -0.4661  1.6790  0.8705
18203TIP3   OH276023   6.493   4.983   2.776  0.0213 -0.0611 -0.1357
18203TIP3    H176024   6.508   4.892   2.752 -1.2206  0.2842 -2.5278
18203TIP3    H276025   6.557   5.032   2.726 -0.7765  0.5183 -0.6097
18204TIP3   OH276026   0.336   4.325   4.153 -0.1818 -0.2502  0.4424
18204TIP3    H176027   0.325   4.327   4.058 -0.8794 -0.6262  0.5073
18204TIP3    H276028   0.415   4.273   4.166  0.4490  0.5882  0.0394
18205TIP3   OH276029   4.797   2.991   4.387 -0.5070  0.0605 -0.2088
18205TIP3    H176030   4.836   2.921   4.440  0.4530  1.1151  0.5387
18205TIP3    H276031   4.744   3.041   4.449 -1.0559  0.0814 -0.6986
18206TIP3   OH276032   1.450   0.772   3.270  0.3729  0.0168 -0.3324
18206TIP3    H176033   1.393   0.726   3.331  0.6105 -0.2178 -0.2861
18206TIP3    H276034   1.539   0.750   3.299  0.5044 -1.2488 -1.6228
18207TIP3   OH276035   3.646   2.524   4.365 -0.6065 -0.4854  0.3058
18207TIP3    H176036   3.703   2.520   4.442  1.3047 -1.2176 -1.0655
18207TIP3    H276037   3.624   2.616   4.356 -1.0077 -0.3985  1.7795
18208TIP3   OH276038   5.061   6.351  13.302 -0.4500  0.4322  0.6153
18208TIP3    H176039   4.977   6.314  13.274 -0.1403 -0.4695  0.8164
18208TIP3    H276040   5.052   6.361  13.397  0.3626 -1.6966  0.9938
18209TIP3   OH276041   6.484   2.316  17.031 -0.6031 -0.3314  0.0414
18209TIP3    H176042   6.568   2.310  16.986 -1.7599 -0.5990 -2.1750
18209TIP3    H276043   6.473   2.231  17.072  0.2201 -0.2637  0.4336
18210TIP3   OH276044   5.108   3.886   3.249 -0.1907 -0.0520  0.5054
18210TIP3    H176045   5.104   3.896   3.154 -1.5851  0.2047  0.5719
18210TIP3    H276046   5.017   3.897   3.278  0.1722 -0.4194  1.8380
18211TIP3   OH276047   5.030   5.569   5.731 -0.0885 -0.4962 -0.1578
18211TIP3    H176048   4.943   5.577   5.692 -1.0045 -0.6234  1.7623
18211TIP3    H276049   5.043   5.650   5.780  1.3393 -0.0327 -1.2096
18212TIP3   OH276050   0.910   2.919  10.920 -0.1072  0.0881  0.3552
18212TIP3    H176051   0.842   2.876  10.868  0.3156 -1.3928  0.9625
18212TIP3    H276052   0.987   2.863  10.909  1.9181  3.0859 -2.4406
18213TIP3   OH276053   2.973   1.770   2.448  0.1922 -0.1808  0.1812
18213TIP3    H176054   2.942   1.726   2.369 -1.3445 -0.7440  1.0720
18213TIP3    H276055   2.901   1.827   2.474 -0.3076 -1.6763  2.4126
18214TIP3   OH276056   0.902   1.505  11.670 -0.0525 -0.5352 -0.0040
18214TIP3    H176057   0.965   1.525  11.601  0.6252  2.7069  1.3817
18214TIP3    H276058   0.946   1.439  11.724  0.3431 -1.4094 -1.3389
18215TIP3   OH276059   6.334   4.058   2.996 -0.2615 -0.1683 -0.0430
18215TIP3    H176060   6.352   4.058   2.902 -0.2133  0.5329 -0.0340
18215TIP3    H276061   6.326   4.150   3.019  1.4184 -0.2439  0.9713
18216TIP3   OH276062   5.265   6.435   5.303 -0.2293 -0.1212 -0.1513
18216TIP3    H176063   5.265   6.509   5.243  1.2556 -0.7593 -0.9787
18216TIP3    H276064   5.346   6.389   5.284 -0.3025 -1.0110  1.5314
18217TIP3   OH276065   2.077   1.907   2.892  0.5369  0.4490  0.2758
18217TIP3    H176066   2.042   1.984   2.938  1.6131  0.5550  0.9345
18217TIP3    H276067   2.097   1.939   2.804 -0.5755  0.4959  0.0158
18218TIP3   OH276068   3.588   5.857   4.299 -0.4180  0.5175 -0.1165
18218TIP3    H176069   3.609   5.909   4.222 -0.4476  0.7692  0.0420
18218TIP3    H276070   3.520   5.796   4.270 -0.0178  0.2180 -0.4359
18219TIP3   OH276071   2.879   5.812  11.189  0.0879  0.3213  0.4686
18219TIP3    H176072   2.965   5.784  11.159 -0.7326  1.3235 -3.2888
18219TIP3    H276073   2.895   5.897  11.230  1.0656 -0.2834  1.3831
18220TIP3   OH276074   5.370   0.011   1.519 -0.0136 -0.1395 -0.0563
18220TIP3    H176075   5.331   0.086   1.474 -0.9214  0.1471  1.1785
18220TIP3    H276076   5.334   0.014   1.607 -1.6497 -3.1694 -0.4992
18221TIP3   OH276077   2.875   1.480   4.287 -0.5099  0.3169  0.0945
18221TIP3    H176078   2.895   1.544   4.355 -0.4657  0.1622  0.2250
18221TIP3    H276079   2.847   1.402   4.334  1.3184 -0.4418  0.0119
18222TIP3   OH276080   5.091   1.900  13.035  0.4690 -0.1130 -0.5847
18222TIP3    H176081   5.149   1.828  13.008  1.0723  0.6687 -1.4141
18222TIP3    H276082   5.149   1.974  13.050  0.1028 -0.3217  2.3844
18223TIP3   OH276083   4.009   1.271   5.879  0.1324 -0.3599  0.2241
18223TIP3    H176084   4.007   1.296   5.786  0.5676  0.0133  0.3132
18223TIP3    H276085   4.084   1.318   5.915 -0.8359  0.5746  1.0941
18224TIP3   OH276086   6.612   6.272   6.191 -0.4091  0.4565 -0.5413
18224TIP3    H176087   6.600   6.360   6.155  0.0178  1.2911  1.2391
18224TIP3    H276088   6.699   6.245   6.160 -1.0393  0.1239 -2.0958
18225TIP3   OH276089   6.753   3.767   6.311 -0.0151  0.1532 -0.0333
18225TIP3    H176090   6.778   3.857   6.332 -1.1125  0.6369 -0.7382
18225TIP3    H276091   6.719   3.731   6.392 -2.1567  1.2903 -0.3588
18226TIP3   OH276092   4.413   2.050  17.181 -0.5402 -0.4431 -0.0976
18226TIP3    H176093   4.330   2.038  17.227 -2.7334  0.6759 -3.3460
18226TIP3    H276094   4.448   2.133  17.215 -1.3934 -0.2967  0.4485
18227TIP3   OH276095   4.771   6.239   2.961 -0.7835 -0.3111 -0.0112
18227TIP3    H176096   4.769   6.169   2.896  0.8172  1.1624 -1.7871
18227TIP3    H276097   4.833   6.303   2.925 -2.9160  2.5179  0.9554
18228TIP3   OH276098   0.046   5.044   1.614 -0.4727 -0.1718  0.3864
18228TIP3    H176099  -0.011   4.971   1.637  0.1790 -0.2886  1.7628
18228TIP3    H276100   0.126   5.028   1.664 -0.3459  1.5117  0.7983
18229TIP3   OH276101   6.426   0.992  16.152  0.6971  0.2393  0.0656
18229TIP3    H176102   6.350   0.979  16.095 -1.7239  0.6938  2.9488
18229TIP3    H276103   6.483   1.049  16.101 -0.3193 -0.9840 -2.6638
18230TIP3   OH276104   5.462   2.927   2.842  0.8095  0.0783 -0.1897
18230TIP3    H176105   5.453   2.860   2.773  1.6043  0.3798 -0.5957
18230TIP3    H276106   5.547   2.908   2.882 -0.5608 -1.4837  2.2290
18231TIP3   OH276107   4.969   3.585  12.984 -0.0492  0.0335 -0.9643
18231TIP3    H176108   4.956   3.500  12.942 -0.6914  1.2060 -3.3279
18231TIP3    H276109   5.049   3.619  12.945 -1.5804  1.8933 -2.7307
18232TIP3   OH276110   3.222   4.392  12.749  0.1917 -0.2009 -0.1822
18232TIP3    H176111   3.230   4.451  12.823  2.2057 -2.4050  1.5067
18232TIP3    H276112   3.142   4.342  12.767 -1.2412  1.5212 -1.3671
18233TIP3   OH276113   6.477   4.148   4.131  0.4437 -0.0929  0.5997
18233TIP3    H176114   6.551   4.091   4.108  0.5770  0.3845 -0.1656
18233TIP3    H276115   6.494   4.171   4.223  2.4843  1.7886 -0.1533
18234TIP3   OH276116   2.882   0.935  15.675  0.3978  0.1738  0.0585
18234TIP3    H176117   2.931   0.853  15.676  1.9427  0.9871 -2.2256
18234TIP3    H276118   2.822   0.926  15.601  0.1444  0.8997  0.1721
18235TIP3   OH276119   4.248   0.489   2.362  0.4311  0.1667 -0.0132
18235TIP3    H176120   4.241   0.423   2.431  1.5059  0.8025  0.7454
18235TIP3    H276121   4.261   0.571   2.410  1.0518  0.6423 -0.9820
18236TIP3   OH276122   6.274   1.363   2.739 -0.0194  0.0968  0.2611
18236TIP3    H176123   6.285   1.270   2.762  2.4912  0.5340  1.1393
18236TIP3    H276124   6.191   1.387   2.779 -0.8245 -1.8010 -0.1473
18237TIP3   OH276125   6.102   4.759   6.160 -0.1419  0.4216 -0.7423
18237TIP3    H176126   6.089   4.813   6.238  0.2795  0.0377 -0.4007
18237TIP3    H276127   6.074   4.672   6.186  0.2151  0.2425 -0.9431
18238TIP3   OH276128   6.662   2.883  14.844  0.1684  0.3236  0.4788
18238TIP3    H176129   6.576   2.895  14.804  0.2343 -2.1691 -0.5645
18238TIP3    H276130   6.724   2.898  14.772  0.4143 -1.4731  0.2842
18239TIP3   OH276131   3.133   2.975   5.672  0.1505  0.2618 -0.6579
18239TIP3    H176132   3.154   2.908   5.608 -0.4141 -2.5701  1.9009
18239TIP3    H276133   3.213   2.985   5.725 -0.3144  0.2961  0.0588
18240TIP3   OH276134   1.813   6.651   5.447  0.2684  0.1221 -0.1035
18240TIP3    H176135   1.734   6.677   5.495 -0.6783 -2.1221 -0.3060
18240TIP3    H276136   1.860   6.733   5.432 -0.8870  1.2648  1.9986
18241TIP3   OH276137   2.281   0.925   3.901  0.3294 -0.3209 -0.2650
18241TIP3    H176138   2.333   0.977   3.962  2.5795 -1.1143 -1.3700
18241TIP3    H276139   2.262   0.984   3.829 -0.1395 -0.0733  0.0627
18242TIP3   OH276140   6.681   1.404  15.038 -0.4832  0.1524 -0.2909
18242TIP3    H176141   6.688   1.395  14.943  0.1242 -1.0487 -0.1450
18242TIP3    H276142   6.770   1.428  15.066 -0.6530  0.4772 -0.0123
18243TIP3   OH276143   1.088   4.224  11.931  0.1440 -0.8395 -0.0634
18243TIP3    H176144   1.160   4.179  11.973  0.6217 -0.6594 -0.6755
18243TIP3    H276145   1.038   4.155  11.887  0.3245 -0.8868 -0.1943
18244TIP3   OH276146   1.700   4.978  11.340  0.0742  0.0228  0.0869
18244TIP3    H176147   1.665   4.973  11.428 -0.3727  0.0362 -0.0890
18244TIP3    H276148   1.792   4.953  11.349  0.3294  1.1418  0.7296
18245TIP3   OH276149   3.572   1.232   5.071  0.2842 -0.2306  0.5095
18245TIP3    H176150   3.665   1.214   5.072  0.4003  0.0514 -1.5138
18245TIP3    H276151   3.543   1.209   4.983 -1.5064 -0.0601  1.0043
18246TIP3   OH276152   2.874   2.183  12.436 -0.2757  1.0983 -0.3870
18246TIP3    H176153   2.943   2.160  12.373 -0.5850  1.6452 -0.9412
18246TIP3    H276154   2.800   2.210  12.381 -0.5264  1.6560  0.2126
18247TIP3   OH276155   6.409   5.567  15.559 -0.0391  0.1390  0.2935
18247TIP3    H176156   6.442   5.583  15.647 -1.5052 -1.9947  1.3142
18247TIP3    H276157   6.370   5.651  15.532  3.0162  1.7041  0.3877
18248TIP3   OH276158   5.941   3.649  14.599  0.5294  0.1732  0.1488
18248TIP3    H176159   6.024   3.614  14.567  0.8660  0.3925  0.7756
18248TIP3    H276160   5.943   3.635  14.693 -0.4811 -0.5161  0.0846
18249TIP3   OH276161   0.445   0.827  14.099 -0.0110  0.1318  0.4492
18249TIP3    H176162   0.374   0.891  14.102 -1.3283 -1.2753  0.5090
18249TIP3    H276163   0.470   0.816  14.191  0.1491  0.4781  0.4491
18250TIP3   OH276164   1.116   1.393   2.524 -0.0961 -0.0612  0.0576
18250TIP3    H176165   1.024   1.419   2.532  0.3132  1.5708 -0.1608
18250TIP3    H276166   1.113   1.298   2.523 -1.8271 -0.0498 -0.4389
18251TIP3   OH276167   1.542   6.740   4.427  0.2369 -0.4469 -0.2727
18251TIP3    H176168   1.627   6.781   4.412 -0.7419  2.2799  1.1150
18251TIP3    H276169   1.481   6.793   4.377 -1.4039  1.5014  3.3916
18252TIP3   OH276170   6.333   4.588  15.309 -0.1553  0.0481  0.2618
18252TIP3    H176171   6.278   4.510  15.301 -2.0961  1.4332 -0.5226
18252TIP3    H276172   6.374   4.579  15.396 -0.5859 -1.6427  0.3359
18253TIP3   OH276173   2.121   0.280  11.284  0.3318  0.2393  0.1973
18253TIP3    H176174   2.138   0.371  11.309  0.5106  0.1237  0.5069
18253TIP3    H276175   2.053   0.286  11.217 -0.1162  0.5660  0.6683
18254TIP3   OH276176   1.316   2.798  16.778 -0.4618  0.4822  0.2354
18254TIP3    H176177   1.379   2.798  16.705 -1.5252  0.5756 -0.7196
18254TIP3    H276178   1.370   2.792  16.856  0.7360  0.5377 -0.5538
18255TIP3   OH276179   3.165   0.459  13.583  0.3345  0.1780  0.5845
18255TIP3    H176180   3.173   0.382  13.526 -1.2593 -1.2151  2.1147
18255TIP3    H276181   3.190   0.427  13.670  0.0380  1.5076  1.1819
18256TIP3   OH276182   1.110   1.687  11.818  1.2241 -0.4087  0.1834
18256TIP3    H176183   1.186   1.634  11.792  1.1312 -0.3125 -0.2909
18256TIP3    H276184   1.103   1.674  11.912  1.2725 -1.1534  0.0903
18257TIP3   OH276185   3.505   4.808   5.306 -0.2597  0.2000 -0.5363
18257TIP3    H176186   3.414   4.833   5.292 -0.4524 -1.1124 -1.9344
18257TIP3    H276187   3.532   4.769   5.223  1.1484 -0.6537  0.2797
18258TIP3   OH276188   6.015   4.617   4.741 -0.2340  0.0472 -0.0021
18258TIP3    H176189   6.010   4.689   4.678  0.3395  0.0674 -0.0270
18258TIP3    H276190   6.102   4.624   4.779  0.1659 -1.1694 -0.6426
18259TIP3   OH276191   2.352   6.549  15.295 -0.5733  0.2743  0.4176
18259TIP3    H176192   2.289   6.508  15.355  1.2800 -1.2683  1.4095
18259TIP3    H276193   2.343   6.499  15.213 -1.9859  1.3601 -0.1350
18260TIP3   OH276194   6.450   1.454   3.245 -0.4415  1.1604  0.7596
18260TIP3    H176195   6.390   1.402   3.191  1.4080 -1.5938  1.1507
18260TIP3    H276196   6.519   1.482   3.185  2.0667 -2.6054  1.5145
18261TIP3   OH276197   2.063   0.527   3.145 -0.2055 -0.4778 -0.0001
18261TIP3    H176198   2.085   0.526   3.238  1.2212 -1.9764 -0.3043
18261TIP3    H276199   2.114   0.456   3.108 -1.5076 -0.5491 -1.7797
18262TIP3   OH276200   2.543   0.308  13.743 -0.5656 -0.2799  0.2215
18262TIP3    H176201   2.500   0.372  13.686 -0.7649  0.7044  1.4578
18262TIP3    H276202   2.522   0.335  13.832  1.9729 -0.1910  0.8775
18263TIP3   OH276203   0.918   3.112  11.118 -0.2680  0.0302 -0.8425
18263TIP3    H176204   0.962   3.193  11.093  1.7029 -0.6027  0.3406
18263TIP3    H276205   0.920   3.058  11.039 -0.5891  0.6978 -1.3125
18264TIP3   OH276206   2.227   5.671   2.532 -0.2603  0.1422  0.4903
18264TIP3    H176207   2.245   5.697   2.441 -1.3204 -0.3523  0.1309
18264TIP3    H276208   2.314   5.661   2.571  0.2122  1.5666 -0.1129
18265TIP3   OH276209   5.841   4.229  12.640  0.0273 -0.4615 -0.2951
18265TIP3    H176210   5.836   4.217  12.734  1.2079 -2.1124 -0.3923
18265TIP3    H276211   5.901   4.302  12.628 -1.4359  0.8932  0.2151
18266TIP3   OH276212   4.602   2.728  12.711 -0.1313  0.6309  0.6515
18266TIP3    H176213   4.645   2.693  12.633 -0.8821  1.0154  0.0536
18266TIP3    H276214   4.629   2.820  12.714 -1.4716  1.0801 -0.1584
18267TIP3   OH276215   6.436   6.653   1.579 -0.3384 -0.9884  0.1238
18267TIP3    H176216   6.355   6.669   1.531  0.4585 -0.4205 -1.0888
18267TIP3    H276217   6.433   6.560   1.601 -0.2513 -1.5644 -2.0406
18268TIP3   OH276218   3.438   2.322  11.973 -0.1047  0.0398  0.1762
18268TIP3    H176219   3.455   2.390  11.908  1.9926  0.0604  0.6879
18268TIP3    H276220   3.517   2.268  11.973 -1.3124 -1.8512  0.4933
18269TIP3   OH276221   5.121   0.274  11.064 -0.0965 -0.3988  0.2762
18269TIP3    H176222   5.158   0.358  11.034  0.4722 -0.2894  1.2604
18269TIP3    H276223   5.190   0.210  11.045 -0.3078 -0.5562  0.0405
18270TIP3   OH276224   3.184   2.717   3.695 -0.7908  0.1046 -0.1721
18270TIP3    H176225   3.208   2.700   3.786  0.7350  0.8803 -0.3909
18270TIP3    H276226   3.210   2.638   3.648  0.9520  0.7150 -0.3136
18271TIP3   OH276227   5.492   1.047   4.901  0.1949 -0.3300  0.7317
18271TIP3    H176228   5.498   1.118   4.837 -2.9094 -1.4840 -1.0913
18271TIP3    H276229   5.552   0.980   4.869  2.0448  0.8299  1.6470
18272TIP3   OH276230   2.801   3.315   2.225  0.2765 -0.3230  0.3462
18272TIP3    H176231   2.783   3.369   2.303 -0.7599 -0.4785  0.2184
18272TIP3    H276232   2.718   3.273   2.205 -0.8321  3.0738 -3.4705
18273TIP3   OH276233   0.374   1.926   0.764  0.0394  0.1884  0.0335
18273TIP3    H176234   0.342   2.012   0.789  0.7639  0.4879 -0.0419
18273TIP3    H276235   0.446   1.909   0.824 -1.7204 -1.5328  1.8234
18274TIP3   OH276236   3.795   0.705  11.925 -0.0644 -0.0833  0.3190
18274TIP3    H176237   3.826   0.724  11.837  0.9815 -1.3698  0.3927
18274TIP3    H276238   3.700   0.694  11.915 -0.3155  2.0445 -0.2135
18275TIP3   OH276239   1.718   3.759  13.142 -0.5593 -0.6476 -0.0566
18275TIP3    H176240   1.684   3.847  13.128 -0.8671 -0.9165 -1.1088
18275TIP3    H276241   1.720   3.748  13.237  0.3809  0.8391  0.1217
18276TIP3   OH276242   3.902   6.274   5.565 -0.0916  0.0972 -0.0518
18276TIP3    H176243   3.897   6.322   5.648  0.9217  0.4148 -0.1575
18276TIP3    H276244   3.823   6.221   5.562 -0.9167  1.2761  0.3888
18277TIP3   OH276245   2.020   2.853  13.878  0.3320 -0.4790  0.2860
18277TIP3    H176246   2.085   2.837  13.810  0.4930  1.7248 -0.1593
18277TIP3    H276247   1.998   2.946  13.869 -0.8093 -0.4944  2.2436
18278TIP3   OH276248   4.756   4.955  15.471 -0.1574 -0.5717  0.4910
18278TIP3    H176249   4.763   4.884  15.407 -0.5397 -0.9608  0.8680
18278TIP3    H276250   4.822   4.933  15.537 -0.7495 -0.9567  0.9619
18279TIP3   OH276251   3.865   2.421   3.408 -0.1866  0.7381 -0.1894
18279TIP3    H176252   3.798   2.356   3.429 -0.3276  1.3532  1.3505
18279TIP3    H276253   3.917   2.429   3.488  1.5869  0.4713 -1.2599
18280TIP3   OH276254   1.415   3.891   1.846  0.1335  0.3869  0.1348
18280TIP3    H176255   1.444   3.983   1.845 -1.7084  1.0071  0.1666
18280TIP3    H276256   1.382   3.878   1.935 -0.6748  0.0612 -0.2063
18281TIP3   OH276257   1.472   5.106   2.364  0.3476  0.3944  0.3583
18281TIP3    H176258   1.457   5.167   2.292 -0.2820  0.6771  0.7218
18281TIP3    H276259   1.518   5.158   2.430  0.1932  0.3637  0.4911
18282TIP3   OH276260   1.984   0.401   1.969 -0.0293  0.1286  0.0910
18282TIP3    H176261   2.070   0.426   2.004 -0.6402  1.3389  0.7781
18282TIP3    H276262   1.990   0.306   1.959  1.8937  0.3404 -1.3178
18283TIP3   OH276263   1.452   5.658  12.992  0.1736  0.8786 -0.2887
18283TIP3    H176264   1.514   5.636  12.923 -1.4798  0.7833 -1.8195
18283TIP3    H276265   1.407   5.736  12.960 -1.2182  0.3375  0.2513
18284TIP3   OH276266   1.201   6.231   4.311  0.2392  0.5087  0.2775
18284TIP3    H176267   1.277   6.173   4.317 -0.3194 -0.2412  0.2110
18284TIP3    H276268   1.206   6.267   4.222  0.6538  0.6570  0.3580
18285TIP3   OH276269   5.695   2.032  16.807 -0.5074 -0.4101  0.2689
18285TIP3    H176270   5.768   2.009  16.749 -0.5877 -0.1384  0.0557
18285TIP3    H276271   5.720   1.997  16.893  0.1054  0.1257  0.3132
18286TIP3   OH276272   2.691   6.726  12.241 -0.1077 -0.2425 -0.1673
18286TIP3    H176273   2.677   6.730  12.147  0.2314  0.5225 -0.1889
18286TIP3    H276274   2.770   6.778  12.257  1.1677 -2.1925  0.2809
18287TIP3   OH276275   1.145   6.380   4.720  0.2125  0.1327  0.0942
18287TIP3    H176276   1.193   6.391   4.802 -1.1228  1.7848  0.7200
18287TIP3    H276277   1.211   6.356   4.656  1.4064 -0.4140  1.4951
18288TIP3   OH276278   2.641   4.100   4.096 -0.2125 -0.6110 -0.1841
18288TIP3    H176279   2.594   4.027   4.056 -0.4007  0.6149 -2.3265
18288TIP3    H276280   2.684   4.144   4.023  1.0165  0.6430  1.2278
18289TIP3   OH276281   2.449   3.025  14.043  0.1106 -0.0610  0.0342
18289TIP3    H176282   2.375   3.077  14.012 -0.4788 -0.4664  0.7362
18289TIP3    H276283   2.464   3.056  14.133  0.5800 -0.2053  0.0076
18290TIP3   OH276284   4.673   1.620   0.149 -0.5405  0.2040  0.1220
18290TIP3    H176285   4.646   1.666   0.228 -0.5281  2.7430 -1.2508
18290TIP3    H276286   4.595   1.621   0.093  0.7932  3.2877 -1.9558
18291TIP3   OH276287   5.315   5.821   6.000  0.2761 -0.1385 -0.4720
18291TIP3    H176288   5.226   5.822   5.964  1.1673  0.6138 -2.8452
18291TIP3    H276289   5.335   5.913   6.016  1.2819 -0.0779 -1.8619
18292TIP3   OH276290   3.132   1.462   2.103  0.1657  0.4824 -0.8526
18292TIP3    H176291   3.057   1.403   2.093  0.3893  0.4770 -2.9725
18292TIP3    H276292   3.131   1.487   2.195 -0.3989 -2.2344 -0.0224
18293TIP3   OH276293   4.959   4.138  16.703  0.3459 -0.1045  0.0544
18293TIP3    H176294   4.939   4.072  16.636  1.2440 -1.9115  1.4665
18293TIP3    H276295   5.054   4.140  16.707  0.3339  1.3283  0.0321
18294TIP3   OH276296   1.898   5.296   4.918  0.8105 -0.5621 -0.0679
18294TIP3    H176297   1.932   5.367   4.863  2.1109  0.3566  1.8098
18294TIP3    H276298   1.808   5.320   4.936  1.3366  0.8615  0.8297
18295TIP3   OH276299   3.797   4.525   5.482  0.2827 -0.4354  0.6902
18295TIP3    H176300   3.844   4.538   5.400 -1.9067  0.3425 -0.5071
18295TIP3    H276301   3.753   4.608   5.498 -2.1586 -1.6677  0.7462
18296TIP3   OH276302   4.430   4.174   5.852 -0.6062 -0.0280  0.2707
18296TIP3    H176303   4.400   4.262   5.828 -0.5019  0.6570  2.4289
18296TIP3    H276304   4.351   4.131   5.885 -0.4564 -0.3902  0.1523
18297TIP3   OH276305   1.672   5.400   3.130  0.2217  0.1415 -0.7267
18297TIP3    H176306   1.675   5.461   3.204 -1.7708 -0.1715 -0.3250
18297TIP3    H276307   1.581   5.368   3.129  0.7065 -1.3246 -2.1344
18298TIP3   OH276308   6.085   0.266  12.262  0.3890  0.1454 -0.2781
18298TIP3    H176309   6.134   0.224  12.333 -0.5349 -1.7485 -0.6800
18298TIP3    H276310   6.023   0.323  12.307 -1.5756 -2.5218  0.6755
18299TIP3   OH276311   3.849   2.525  14.079 -0.3975 -0.0178  0.0972
18299TIP3    H176312   3.855   2.584  14.154 -1.1224 -0.5509  0.5924
18299TIP3    H276313   3.783   2.461  14.104 -0.7627 -0.1214 -1.0618
18300TIP3   OH276314   1.153   1.396   0.367 -0.4085  0.3301 -0.3448
18300TIP3    H176315   1.192   1.312   0.341 -0.3342 -0.1973  1.3361
18300TIP3    H276316   1.186   1.411   0.456 -1.4569  1.4913 -0.1266
18301TIP3   OH276317   2.839   5.283   0.057 -0.3023  0.1958  0.0807
18301TIP3    H176318   2.761   5.230   0.039 -0.7326  1.3104 -1.7151
18301TIP3    H276319   2.911   5.221   0.062 -1.2435 -0.8332  1.5013
18302TIP3   OH276320   3.332   1.922   1.163 -0.4843 -0.4814 -0.1906
18302TIP3    H176321   3.384   1.851   1.200 -2.0446 -0.4255  2.3210
18302TIP3    H276322   3.270   1.945   1.232 -2.3424  0.9737 -2.2193
18303TIP3   OH276323   2.255   6.164  13.833 -0.1552  0.5819 -0.5815
18303TIP3    H176324   2.199   6.237  13.860 -0.9067 -0.3015  0.3717
18303TIP3    H276325   2.204   6.119  13.765 -0.9982 -0.6171  0.7550
18304TIP3   OH276326   0.644   5.653  14.762 -0.0155 -0.2839 -0.2859
18304TIP3    H176327   0.629   5.742  14.728  1.4044  0.0911 -0.0011
18304TIP3    H276328   0.563   5.631  14.807 -0.7758  0.4602 -1.2229
18305TIP3   OH276329   1.591   3.483  14.968  0.5036 -0.5456  0.4210
18305TIP3    H176330   1.593   3.478  15.063  0.9823 -0.5138  0.4176
18305TIP3    H276331   1.683   3.476  14.942  0.5087  0.6687  0.0269
18306TIP3   OH276332   2.638   6.236   1.742 -0.1321 -0.8069  0.0943
18306TIP3    H176333   2.670   6.190   1.820 -1.8913 -1.5244  0.4179
18306TIP3    H276334   2.656   6.329   1.761  1.2570 -1.1171  0.4573
18307TIP3   OH276335   1.837   3.591  17.020 -0.5936 -0.7582  0.5170
18307TIP3    H176336   1.898   3.561  16.952 -0.4409  0.2118  0.2196
18307TIP3    H276337   1.750   3.575  16.983 -0.6193  2.9784 -1.5017
18308TIP3   OH276338   0.763   5.987  13.924 -0.4657 -0.0051 -0.2062
18308TIP3    H176339   0.801   5.901  13.909  1.9059  0.6641  1.4687
18308TIP3    H276340   0.682   5.986  13.873  0.3169 -2.5904 -1.5930
18309TIP3   OH276341   4.734   0.239   4.171 -0.2206 -0.3402  0.0294
18309TIP3    H176342   4.699   0.326   4.187  1.9464  0.7739 -0.7998
18309TIP3    H276343   4.667   0.195   4.118 -2.5679 -0.2458  2.6677
18310TIP3   OH276344   3.160   5.227   2.838  0.1224 -0.2264 -0.2624
18310TIP3    H176345   3.071   5.256   2.858  0.1519 -0.5507  0.3567
18310TIP3    H276346   3.171   5.247   2.745 -0.3674  0.4106 -0.1897
18311TIP3   OH276347   5.844   3.825  11.436  0.2294 -0.2282  0.1148
18311TIP3    H176348   5.906   3.896  11.420  0.4959 -0.3496  0.5867
18311TIP3    H276349   5.896   3.757  11.478  0.3025 -1.3073 -1.6412
18312TIP3   OH276350   4.230   1.979   5.841 -0.2744  0.2772  0.5704
18312TIP3    H176351   4.198   1.901   5.796 -0.8553  0.8223  0.0258
18312TIP3    H276352   4.257   1.948   5.928  3.2122 -1.3039 -0.8728
18313TIP3   OH276353   2.274   4.636   4.116 -0.1763 -0.0717 -0.4665
18313TIP3    H176354   2.182   4.653   4.139 -0.6750 -0.3852 -2.1199
18313TIP3    H276355   2.297   4.559   4.167 -1.2022 -0.6657 -0.8597
18314TIP3   OH276356   6.407   5.856   0.485  0.2311  0.0947 -0.0289
18314TIP3    H176357   6.406   5.773   0.532 -0.2447 -0.4144 -0.8964
18314TIP3    H276358   6.440   5.920   0.548  2.0432 -1.0155  0.2016
18315TIP3   OH276359   6.195   4.438   0.627  0.0209 -0.2840  0.4265
18315TIP3    H176360   6.264   4.490   0.587 -0.5432  0.4590  0.4004
18315TIP3    H276361   6.127   4.501   0.651 -0.5421 -0.9633  0.6780
18316TIP3   OH276362   2.293   6.588  17.212  0.1866  0.1725  0.3077
18316TIP3    H176363   2.333   6.511  17.171 -1.0083  0.2959 -1.1198
18316TIP3    H276364   2.261   6.555  17.297 -1.5685 -1.2955 -0.8532
18317TIP3   OH276365   5.477   4.660  13.809  0.0701 -0.3514  0.3293
18317TIP3    H176366   5.508   4.734  13.758 -0.5131 -0.4584 -0.1869
18317TIP3    H276367   5.448   4.698  13.892  2.0015 -0.3030  1.0176
18318TIP3   OH276368   5.190   1.159   5.930 -0.3964  0.1903  0.1796
18318TIP3    H176369   5.201   1.251   5.954 -0.5889  0.3427 -0.3000
18318TIP3    H276370   5.100   1.139   5.954  0.0828 -0.3045  1.6599
18319TIP3   OH276371   5.881   5.244   2.049  0.4813 -0.7098  0.7240
18319TIP3    H176372   5.794   5.204   2.057  0.9072 -1.8108  0.0725
18319TIP3    H276373   5.881   5.315   2.114 -1.7006  0.7877 -0.7899
18320TIP3   OH276374   2.819   3.980   2.039  0.8513  0.5324 -0.5631
18320TIP3    H176375   2.807   3.900   1.987 -0.6469  0.6095 -0.3828
18320TIP3    H276376   2.788   3.956   2.126  0.1155  1.3762 -0.5805
18321TIP3   OH276377   5.004   5.646   1.830  0.3564  0.2756  0.0948
18321TIP3    H176378   4.984   5.681   1.743  0.5683 -0.4402 -0.2559
18321TIP3    H276379   5.054   5.715   1.873  0.0826  0.7148 -0.2859
18322TIP3   OH276380   4.340   1.799   0.283  0.3369 -0.3423 -0.8723
18322TIP3    H176381   4.422   1.826   0.326  0.7162 -1.7928 -0.6277
18322TIP3    H276382   4.271   1.835   0.339  0.8191 -0.3448 -0.2625
18323TIP3   OH276383   0.859   5.658   1.426  0.6842 -0.2878 -0.2171
18323TIP3    H176384   0.898   5.706   1.354  0.3295 -1.4731 -1.2430
18323TIP3    H276385   0.932   5.633   1.482  1.2840 -1.3904 -1.4426
18324TIP3   OH276386   0.857   5.724  13.899 -0.2659 -0.3480  0.4359
18324TIP3    H176387   0.807   5.683  13.969 -0.5380  1.8201  1.6050
18324TIP3    H276388   0.831   5.676  13.820 -2.8725 -0.4528  1.2415
18325TIP3   OH276389   2.578   4.995  11.579  0.1340 -0.6445 -0.6339
18325TIP3    H176390   2.555   4.902  11.580 -2.2454 -0.1365 -1.1231
18325TIP3    H276391   2.597   5.014  11.487 -2.8328 -0.0103 -1.2427
18326TIP3   OH276392   3.723   3.605   2.626  0.1686  0.4171 -0.0484
18326TIP3    H176393   3.689   3.570   2.708 -0.1897  0.3585 -0.2195
18326TIP3    H276394   3.689   3.695   2.623  0.6774  0.6162  0.1550
18327TIP3   OH276395   3.418   2.406  16.835 -0.2758 -0.3946 -0.0418
18327TIP3    H176396   3.416   2.411  16.740  1.4454 -1.1060 -0.1554
18327TIP3    H276397   3.507   2.375  16.856 -0.8486 -0.9711  1.7557
18328TIP3   OH276398   4.710   4.622   1.812  0.1963 -0.5414  0.0165
18328TIP3    H176399   4.709   4.630   1.908  0.9003 -0.3197  0.0108
18328TIP3    H276400   4.758   4.540   1.796  1.5013  0.2440 -0.1814
18329TIP3   OH276401   1.338   1.933   0.058 -0.3044 -0.3792  0.0489
18329TIP3    H176402   1.289   1.973  -0.014 -0.9405 -3.8000 -1.6551
18329TIP3    H276403   1.326   1.838   0.045  1.7471 -1.2209  3.1794
18330TIP3   OH276404   6.282   4.055   1.209  0.2067 -0.1037 -0.8487
18330TIP3    H176405   6.325   4.078   1.291  3.5271 -4.3791 -1.0329
18330TIP3    H276406   6.198   4.017   1.235  1.1327 -1.2291  0.6361
18331TIP3   OH276407   4.237   6.261  11.837 -0.0534 -0.4188  0.1500
18331TIP3    H176408   4.236   6.342  11.786 -0.4584 -0.7274 -0.3422
18331TIP3    H276409   4.216   6.289  11.926 -2.7824 -0.2682 -0.4593
18332TIP3   OH276410   0.225   0.476   4.032  0.0404 -0.1544  0.3120
18332TIP3    H176411   0.166   0.457   3.959  0.7174  1.4760 -0.7033
18332TIP3    H276412   0.291   0.407   4.028  0.9711  0.7809 -1.6618
18333TIP3   OH276413   0.498   0.336  14.766  0.8649  0.6353  0.0376
18333TIP3    H176414   0.549   0.261  14.738 -0.5844  0.4316 -2.3151
18333TIP3    H276415   0.512   0.402  14.698  0.3201  1.6499  0.8781
18334TIP3   OH276416   0.154   2.133   2.887 -0.4089  0.3694  0.6436
18334TIP3    H176417   0.232   2.133   2.942 -1.1430 -0.7946  1.7765
18334TIP3    H276418   0.168   2.203   2.824  0.0931  2.4480  2.8959
18335TIP3   OH276419   0.113   4.352  12.716 -0.3214 -0.7911  0.1458
18335TIP3    H176420   0.067   4.268  12.712  0.4809 -1.1994 -2.8327
18335TIP3    H276421   0.178   4.341  12.785 -1.1505 -2.1132  0.7499
18336TIP3   OH276422   0.286   2.862  14.903 -0.7496 -0.1231 -0.0420
18336TIP3    H176423   0.360   2.917  14.878 -0.0226 -0.2191  1.7800
18336TIP3    H276424   0.326   2.783  14.940 -1.7355 -0.0239  1.3102
18337TIP3   OH276425   4.926   1.649  13.133 -0.1506  0.5305  0.6099
18337TIP3    H176426   4.906   1.570  13.184 -1.2557  1.7911  2.2402
18337TIP3    H276427   5.017   1.638  13.106  0.0106 -0.8728  1.6043
18338TIP3   OH276428   4.804   5.628  11.791 -0.2117  0.5625 -0.0553
18338TIP3    H176429   4.845   5.635  11.877  1.2834 -0.3446 -0.6679
18338TIP3    H276430   4.710   5.619  11.810  0.2304 -1.2607  1.5796
18339TIP3   OH276431   2.277   3.223   3.413 -0.4035 -0.7531 -0.0958
18339TIP3    H176432   2.309   3.133   3.416 -1.7630 -1.2334  1.3165
18339TIP3    H276433   2.313   3.265   3.491  1.0359  0.2603 -1.2524
18340TIP3   OH276434   5.503   4.568   2.849 -0.0509 -0.3731 -0.4694
18340TIP3    H176435   5.426   4.623   2.842 -0.9025 -1.6088 -1.1660
18340TIP3    H276436   5.526   4.570   2.942  0.3065  1.5846 -0.5655
18341TIP3   OH276437   5.132   6.027   4.634  0.1526  0.4100 -0.5898
18341TIP3    H176438   5.056   6.084   4.621 -2.0018 -1.8746  1.1319
18341TIP3    H276439   5.108   5.945   4.591  0.7959 -0.9706  1.5574
18342TIP3   OH276440   6.542   1.469   2.300  0.3281 -0.0443 -0.6293
18342TIP3    H176441   6.607   1.493   2.365  0.3893  0.7725 -0.9762
18342TIP3    H276442   6.473   1.425   2.350 -0.0432  1.3556  0.1386
18343TIP3   OH276443   1.691   3.541   0.285  0.4784 -0.4433 -0.1280
18343TIP3    H176444   1.626   3.550   0.354  0.8316 -0.4019  0.2066
18343TIP3    H276445   1.747   3.469   0.315  1.0078 -0.0133 -0.0660
18344TIP3   OH276446   6.157   1.350   1.062  0.2600  0.3611 -0.3484
18344TIP3    H176447   6.107   1.318   0.988 -1.7250 -1.5244  1.6464
18344TIP3    H276448   6.130   1.442   1.072 -1.8570 -0.2206 -0.1797
18345TIP3   OH276449   2.371   3.303  10.812 -0.3787  0.5781 -0.3471
18345TIP3    H176450   2.371   3.395  10.838 -0.0857  0.8675 -1.3353
18345TIP3    H276451   2.463   3.281  10.800 -0.3746 -0.1302  0.7955
18346TIP3   OH276452   3.186   0.013   3.910 -0.1362  0.2314 -0.4216
18346TIP3    H176453   3.206   0.039   3.820 -1.3602 -2.3586 -1.5517
18346TIP3    H276454   3.092  -0.007   3.909  0.3687 -2.7053  0.5910
18347TIP3   OH276455   6.034   3.123   4.553 -0.1970  0.6505  0.5681
18347TIP3    H176456   6.103   3.154   4.613 -0.2923 -2.0437  2.2319
18347TIP3    H276457   5.959   3.107   4.610 -1.5435  1.4540 -0.9071
18348TIP3   OH276458   3.469   2.517   1.050 -0.1256  0.0917  0.4925
18348TIP3    H176459   3.408   2.487   0.983  0.7226 -2.7993  0.8767
18348TIP3    H276460   3.548   2.540   1.003 -0.2688  0.2458  0.3250
18349TIP3   OH276461   5.153   6.765  13.737 -0.2232  0.4125 -0.2162
18349TIP3    H176462   5.123   6.676  13.753 -0.9659  0.6147 -0.4410
18349TIP3    H276463   5.201   6.760  13.654 -0.0630  0.1816 -0.1108
18350TIP3   OH276464   5.007   4.200  15.584  0.2349 -0.8993 -0.7290
18350TIP3    H176465   4.955   4.183  15.663  0.3747  0.2771 -0.3669
18350TIP3    H276466   4.944   4.197  15.513 -0.8649  2.7071 -0.0966
18351TIP3   OH276467   6.777   2.199  15.017 -0.6797  0.0250  0.1204
18351TIP3    H176468   6.695   2.206  15.065 -0.1080  0.1349  1.0937
18351TIP3    H276469   6.833   2.143  15.071 -0.4395 -0.8969 -1.0115
18352TIP3   OH276470   1.006   5.796   2.984  1.0350  0.3941  0.3952
18352TIP3    H176471   1.086   5.748   3.002  1.4502  1.3166  1.1192
18352TIP3    H276472   0.941   5.758   3.043  0.9385 -0.3307 -0.1681
18353TIP3   OH276473   0.910   6.699  11.931  0.1574 -0.0415  0.3692
18353TIP3    H176474   0.887   6.764  11.997  0.4094  0.2562  0.1685
18353TIP3    H276475   0.860   6.725  11.853 -0.8329 -0.9068  0.6927
18354TIP3   OH276476   1.853   2.074   0.306 -0.1280  0.7329  0.6875
18354TIP3    H176477   1.766   2.085   0.267  0.7312 -1.2253 -2.1277
18354TIP3    H276478   1.890   2.162   0.308 -1.9057  1.5277  1.4390
18355TIP3   OH276479   2.447   3.536  14.416 -0.0892  0.6209  0.0571
18355TIP3    H176480   2.439   3.449  14.377 -0.3865  0.3518  0.6908
18355TIP3    H276481   2.422   3.523  14.508  0.7365  1.2042  0.3760
18356TIP3   OH276482   0.994   4.337  16.051 -0.3361 -1.1321  0.4501
18356TIP3    H176483   0.905   4.365  16.032 -0.6179 -1.5099  1.1794
18356TIP3    H276484   1.050   4.402  16.008 -0.9452 -1.6108 -1.1128
18357TIP3   OH276485   4.216   5.997  16.310 -0.0319 -0.0810 -0.4288
18357TIP3    H176486   4.121   5.984  16.310  0.0138 -0.4520  0.0455
18357TIP3    H276487   4.231   6.068  16.247 -0.7847  1.1214  0.6922
18358TIP3   OH276488   4.885   2.293   3.412  0.0069  0.3912  0.0577
18358TIP3    H176489   4.848   2.320   3.328  2.7703  2.0559 -0.7226
18358TIP3    H276490   4.927   2.209   3.394 -0.3721  0.1984  0.0678
18359TIP3   OH276491   2.212   6.320   2.679  0.1423  0.2827 -0.4481
18359TIP3    H176492   2.163   6.352   2.604  2.3168  2.1056 -1.2079
18359TIP3    H276493   2.241   6.232   2.654  0.3466  0.6453 -1.5321
18360TIP3   OH276494   2.102   4.077   3.029  0.0151  0.8555 -0.4059
18360TIP3    H176495   2.161   4.067   2.954  0.5646 -0.1378  0.1404
18360TIP3    H276496   2.016   4.091   2.989  0.0198 -1.2153 -1.2787
18361TIP3   OH276497   2.735   1.709   3.788 -0.4921  0.6651  0.1573
18361TIP3    H176498   2.694   1.725   3.702 -2.7599  1.6490  1.3399
18361TIP3    H276499   2.783   1.790   3.806  0.1219  0.3950 -0.2316
18362TIP3   OH276500   0.738   3.445   1.195  0.3633 -0.0395 -0.0519
18362TIP3    H176501   0.799   3.373   1.210  0.2754  0.0776  0.9558
18362TIP3    H276502   0.793   3.523   1.194  0.3630 -0.0422 -0.3209
18363TIP3   OH276503   6.633   2.637  11.212 -0.1149 -0.1693 -0.3568
18363TIP3    H176504   6.674   2.556  11.182 -0.3415 -0.4135 -0.0178
18363TIP3    H276505   6.604   2.680  11.131  0.3988 -0.2083 -0.5687
18364TIP3   OH276506   5.200   1.460   5.990  0.2191 -0.0470  0.0748
18364TIP3    H176507   5.229   1.456   6.081 -0.3174 -0.3846  0.2362
18364TIP3    H276508   5.260   1.522   5.949  0.2021  0.4427  0.7604
18365TIP3   OH276509   3.954   3.015  16.038  0.2574 -0.2898 -0.2988
18365TIP3    H176510   3.979   3.083  15.976 -2.0565  0.4246 -0.5362
18365TIP3    H276511   3.973   2.933  15.993 -0.8730  0.2169 -1.7667
18366TIP3   OH276512   3.346   6.383   2.219  0.2710 -0.0553 -0.3351
18366TIP3    H176513   3.397   6.337   2.285 -1.2753 -1.5293 -0.1018
18366TIP3    H276514   3.285   6.438   2.269 -0.6643 -0.9092 -0.4964
18367TIP3   OH276515   4.235   1.682  12.234 -0.0026  0.1431  0.5037
18367TIP3    H176516   4.302   1.694  12.301  0.8299 -4.1348  0.7273
18367TIP3    H276517   4.282   1.693  12.151  1.0781 -2.6025  0.6619
18368TIP3   OH276518   6.055   4.607   5.913  0.6156 -0.0974 -0.4655
18368TIP3    H176519   6.041   4.672   5.981  0.0672 -0.0089 -0.6511
18368TIP3    H276520   6.043   4.655   5.831  3.0859  0.2286 -0.7142
18369TIP3   OH276521   0.786   2.909   4.977 -0.0576 -0.0241 -0.0277
18369TIP3    H176522   0.842   2.891   5.052  1.1941  0.6369 -0.7700
18369TIP3    H276523   0.702   2.935   5.015  1.1431  2.3498  1.2442
18370TIP3   OH276524   3.159   3.808  13.487 -0.1277  0.5646 -0.3740
18370TIP3    H176525   3.212   3.777  13.413  1.7284 -0.6545  1.3844
18370TIP3    H276526   3.218   3.862  13.539 -1.0521  0.4760  0.8151
18371TIP3   OH276527   1.108   6.317   4.066 -0.0925 -0.4330  0.2391
18371TIP3    H176528   1.035   6.363   4.025  1.1373  0.0090 -1.5836
18371TIP3    H276529   1.083   6.225   4.066 -1.7517 -0.0495  2.1384
18372TIP3   OH276530   1.972   2.983   6.156 -0.1698 -0.5900  0.2825
18372TIP3    H176531   1.885   3.006   6.122 -0.6483 -1.6646  0.7275
18372TIP3    H276532   1.954   2.925   6.230  0.8053  1.7777  2.5601
18373TIP3   OH276533   0.367   0.196  17.189  0.0893 -0.3615 -0.3414
18373TIP3    H176534   0.369   0.260  17.119 -0.9263  0.7251  0.5798
18373TIP3    H276535   0.320   0.240  17.261 -0.9041 -2.2173  0.2231
18374TIP3   OH276536   0.337   6.056  14.678 -0.2493  0.4182  0.3654
18374TIP3    H176537   0.282   5.979  14.687 -0.9406  0.5354 -2.1300
18374TIP3    H276538   0.424   6.022  14.660 -0.2306  0.2285  0.8109
18375TIP3   OH276539   3.487   4.064  14.164 -0.1318  0.3935 -0.2104
18375TIP3    H176540   3.497   4.039  14.256  0.0815 -0.2479 -0.4011
18375TIP3    H276541   3.396   4.040  14.143 -0.3258  0.9739 -0.0385
18376TIP3   OH276542   2.213   5.649  13.502 -0.3783 -0.9279  1.0795
18376TIP3    H176543   2.245   5.589  13.570 -1.0517 -2.2010  0.3176
18376TIP3    H276544   2.193   5.592  13.428 -2.1124  0.0924  0.7073
18377TIP3   OH276545   2.264   0.320   3.071  0.3818 -0.1675  0.0260
18377TIP3    H176546   2.203   0.247   3.072  0.4131 -0.1938 -0.0250
18377TIP3    H276547   2.294   0.327   2.980  0.3157 -0.0398  0.0133
18378TIP3   OH276548   5.934   6.127  11.816 -0.3693 -0.7499  0.5257
18378TIP3    H176549   5.889   6.062  11.761  0.0352  0.3332 -1.1753
18378TIP3    H276550   5.869   6.194  11.833 -0.7098 -1.4303  2.0641
18379TIP3   OH276551   5.743   0.878  12.636 -0.2135 -0.2217 -0.5700
18379TIP3    H176552   5.724   0.831  12.555  1.1836 -0.7858 -0.5874
18379TIP3    H276553   5.831   0.850  12.660 -0.0464  1.0581  0.3710
18380TIP3   OH276554   5.787   5.176  11.473  0.1577  0.8483 -0.3198
18380TIP3    H176555   5.826   5.263  11.483 -0.7024  1.1572  0.4822
18380TIP3    H276556   5.806   5.152  11.382  2.1545  0.9929 -0.0007
18381TIP3   OH276557   2.593   0.963  10.688 -1.2313 -0.1531 -0.0494
18381TIP3    H176558   2.677   0.925  10.662 -0.3646  1.3026  0.5038
18381TIP3    H276559   2.530   0.922  10.630  0.1340  0.2028 -1.8807
18382TIP3   OH276560   6.760   2.163   5.240 -0.3306 -0.4362  0.1941
18382TIP3    H176561   6.855   2.164   5.236 -0.2423  0.4620  1.6903
18382TIP3    H276562   6.732   2.202   5.157  0.5914 -0.6481 -0.2322
18383TIP3   OH276563   5.418   4.064   4.159 -0.4185  0.3198  0.4427
18383TIP3    H176564   5.383   4.152   4.174  0.8456  0.4936  2.6688
18383TIP3    H276565   5.345   4.005   4.177 -1.0796  0.8595 -0.4003
18384TIP3   OH276566   5.555   5.839  14.173 -0.0148 -0.0805 -0.3206
18384TIP3    H176567   5.540   5.910  14.235 -0.0944 -1.7588  1.6758
18384TIP3    H276568   5.644   5.809  14.191 -0.4604 -1.3696 -0.1546
18385TIP3   OH276569   1.413   1.147   4.494 -0.1791  0.3427 -0.8387
18385TIP3    H176570   1.475   1.082   4.461  0.6671  0.9100 -0.3900
18385TIP3    H276571   1.353   1.162   4.421  2.4379  2.5764 -2.6896
18386TIP3   OH276572   6.634   0.684   5.798  0.3294  0.1887  0.0013
18386TIP3    H176573   6.669   0.596   5.789 -1.7347 -0.5462 -1.6014
18386TIP3    H276574   6.609   0.691   5.890 -0.6104 -1.3810 -0.1053
18387TIP3   OH276575   0.300   2.804   1.929 -0.1318  0.1058 -0.1504
18387TIP3    H176576   0.327   2.811   1.837 -0.8386 -0.6598 -0.4341
18387TIP3    H276577   0.307   2.893   1.963  0.5123  0.3275 -0.8373
18388TIP3   OH276578   1.598   5.089  12.771 -0.2673 -0.0825 -0.4062
18388TIP3    H176579   1.550   5.160  12.814  0.4386  0.2922 -0.2245
18388TIP3    H276580   1.674   5.132  12.732 -0.6013 -0.5022 -1.5629
18389TIP3   OH276581   3.148   5.943   2.524 -0.2121 -0.9940 -0.0644
18389TIP3    H176582   3.063   5.982   2.501  0.4591  1.5140  1.3007
18389TIP3    H276583   3.198   6.016   2.562  1.7336 -2.9002  1.2747
18390TIP3   OH276584   5.464   4.948   0.663 -0.1301 -0.3239 -0.4476
18390TIP3    H176585   5.377   4.913   0.679 -0.1975 -0.0658 -0.2408
18390TIP3    H276586   5.473   5.020   0.725 -0.4805  0.8371 -1.7127
18391TIP3   OH276587   3.700   5.149   0.371 -0.7306 -0.2205  0.3390
18391TIP3    H176588   3.701   5.237   0.409  1.2406 -0.3605  0.6804
18391TIP3    H276589   3.624   5.150   0.312  0.7587  2.6635 -1.7936
18392TIP3   OH276590   2.355   2.175   1.453 -0.2704  0.4874 -0.1429
18392TIP3    H176591   2.347   2.189   1.548 -0.5696  0.7147 -0.1973
18392TIP3    H276592   2.264   2.171   1.422 -0.2090  1.9195 -0.6244
18393TIP3   OH276593   3.521   3.989   2.066 -0.0466 -0.4515 -0.1757
18393TIP3    H176594   3.598   3.953   2.021 -0.2379 -2.0752  0.7077
18393TIP3    H276595   3.447   3.964   2.010 -0.1511 -1.2424  0.2916
18394TIP3   OH276596   5.935   2.317  12.855 -0.1365  0.3507  0.3992
18394TIP3    H176597   5.867   2.305  12.921 -0.6396  0.2618 -0.1263
18394TIP3    H276598   5.889   2.354  12.780  0.2841 -0.2756 -0.1753
18395TIP3   OH276599   4.145   6.108  12.817  0.5729  0.6992 -0.2004
18395TIP3    H176600   4.070   6.049  12.820 -0.1331  1.6121  0.8560
18395TIP3    H276601   4.220   6.053  12.842  0.0725  0.0472 -0.1128
18396TIP3   OH276602   3.383   5.607  13.222  0.4221  0.6649 -0.8417
18396TIP3    H176603   3.323   5.558  13.167 -0.0549  1.9077 -1.4680
18396TIP3    H276604   3.444   5.541  13.256 -1.9942 -0.8564  0.8467
18397TIP3   OH276605   5.532   4.141  15.662  0.4429 -0.0177 -0.7472
18397TIP3    H176606   5.524   4.126  15.757  2.3420 -0.0625 -0.5444
18397TIP3    H276607   5.442   4.152  15.632 -0.3790 -2.0017  0.7210
18398TIP3   OH276608   2.571   4.330   2.908 -0.2267  0.2643  0.5436
18398TIP3    H176609   2.568   4.236   2.892  0.1997  0.3752 -0.2571
18398TIP3    H276610   2.585   4.338   3.002 -1.3471 -0.4506  0.7924
18399TIP3   OH276611   2.087   2.489   0.701  0.3152  0.4064  0.0518
18399TIP3    H176612   2.070   2.420   0.766  0.7016  0.0243 -0.2538
18399TIP3    H276613   2.154   2.544   0.742  1.2275 -0.3504 -0.3857
18400TIP3   OH276614   3.659   5.491   5.834  0.3017 -0.7091  0.0026
18400TIP3    H176615   3.610   5.570   5.856  1.1172 -0.0407 -0.5349
18400TIP3    H276616   3.724   5.483   5.903  0.7567 -0.4396 -0.3919
18401TIP3   OH276617   0.388   4.987   2.629  0.6036 -0.4281 -0.2539
18401TIP3    H176618   0.409   4.894   2.632  0.2780 -0.4756  0.5587
18401TIP3    H276619   0.462   5.026   2.583  0.0258 -1.2829 -2.0074
18402TIP3   OH276620   0.360   0.567  17.197 -0.6394  0.3433  0.4792
18402TIP3    H176621   0.419   0.641  17.183  0.0676 -0.1305  0.8844
18402TIP3    H276622   0.277   0.607  17.225 -0.5575  1.0199 -0.2251
18403TIP3   OH276623   4.542   2.615   3.828  0.6141  0.5071 -0.1899
18403TIP3    H176624   4.519   2.562   3.752 -1.7212 -0.8299  1.3445
18403TIP3    H276625   4.462   2.618   3.881  1.9767  1.8651  1.9426
18404TIP3   OH276626   1.222   2.335   3.597  0.1139 -0.3837  0.2477
18404TIP3    H176627   1.278   2.370   3.527  1.1387  1.0109  1.7018
18404TIP3    H276628   1.219   2.404   3.662 -1.2300 -1.4621  1.3821
18405TIP3   OH276629   3.630   3.051   3.820 -0.3905  0.5285 -0.0106
18405TIP3    H176630   3.626   3.044   3.916 -1.7547  0.6104 -0.0407
18405TIP3    H276631   3.541   3.029   3.791  0.0084  0.5150 -1.2616
18406TIP3   OH276632   6.610   4.990  12.791  0.1373 -0.0934 -0.1646
18406TIP3    H176633   6.695   4.995  12.835 -0.2422  0.0393  0.5768
18406TIP3    H276634   6.628   4.945  12.709  1.1469  1.0551 -0.6076
18407TIP3   OH276635   5.611   1.378   2.185 -0.0856 -0.2062 -0.4857
18407TIP3    H176636   5.702   1.377   2.154  0.5104  1.6958  0.9964
18407TIP3    H276637   5.560   1.408   2.110  0.4818 -1.3718 -1.3600
18408TIP3   OH276638   3.231   5.422  13.942 -0.5616  0.2317  0.0619
18408TIP3    H176639   3.313   5.440  13.987  0.1842  0.0473 -1.1546
18408TIP3    H276640   3.256   5.363  13.870 -1.4543  1.4630 -1.3256
18409TIP3   OH276641   6.345   3.819  14.526 -0.3412 -0.2782 -0.3811
18409TIP3    H176642   6.341   3.792  14.618  1.1525  0.9023  0.0706
18409TIP3    H276643   6.406   3.758  14.485 -0.4637 -0.3711 -0.4255
18410TIP3   OH276644   1.439   1.645  14.188 -0.2121  0.5486 -0.3535
18410TIP3    H176645   1.383   1.718  14.162 -2.1681 -0.6457  0.2338
18410TIP3    H276646   1.512   1.647  14.127  0.2577  3.4422  0.1543
18411TIP3   OH276647   0.805   2.109  16.166  0.9423 -0.4048 -0.1017
18411TIP3    H176648   0.816   2.122  16.072 -0.1398 -0.2903 -0.2347
18411TIP3    H276649   0.715   2.076  16.175  0.1520  1.8014  1.0381
18412TIP3   OH276650   4.373   0.259  17.145  0.0959  0.4430 -0.5284
18412TIP3    H176651   4.308   0.269  17.214 -1.7765  0.2147 -2.1516
18412TIP3    H276652   4.402   0.168  17.151 -0.7130  0.1760 -0.5727
18413TIP3   OH276653   1.332   5.060   2.710 -0.1873 -0.4437 -0.4462
18413TIP3    H176654   1.247   5.102   2.720  0.2506  0.7312 -1.3226
18413TIP3    H276655   1.346   5.013   2.791 -0.8313  0.9268  0.4996
18414TIP3   OH276656   2.930   4.252   4.571  0.1614 -0.0913  0.4814
18414TIP3    H176657   2.875   4.326   4.544 -0.0880 -0.4756 -0.1048
18414TIP3    H276658   3.019   4.280   4.552  0.0478 -0.0393  0.0017
18415TIP3   OH276659   5.902   4.189   0.079  0.0781 -0.1628  0.4240
18415TIP3    H176660   5.972   4.175   0.015  1.1463 -1.2998  1.7554
18415TIP3    H276661   5.821   4.184   0.028  0.9208  2.6158 -1.4131
18416TIP3   OH276662   5.054   5.340  13.538  0.0150  0.5025 -0.2578
18416TIP3    H176663   5.019   5.418  13.495  1.4398  1.6031  0.4559
18416TIP3    H276664   5.113   5.375  13.605  0.6391 -1.2048  0.1383
18417TIP3   OH276665   5.527   3.958  16.371 -0.6050 -0.1525  0.3038
18417TIP3    H176666   5.536   3.938  16.278  1.1439  0.1909  0.3523
18417TIP3    H276667   5.593   4.027  16.386 -0.3542 -0.7132  1.9258
18418TIP3   OH276668   1.313   0.926  12.486  0.0756  0.1557 -0.1349
18418TIP3    H176669   1.272   0.848  12.448 -1.7378  1.3993 -0.8789
18418TIP3    H276670   1.242   0.990  12.493  1.3503  1.5216  1.1216
18419TIP3   OH276671   3.224   6.073  14.450  0.2513 -0.4263  0.0433
18419TIP3    H176672   3.280   6.108  14.519 -1.8435 -0.8225  2.0685
18419TIP3    H276673   3.219   5.979  14.468 -0.9422 -0.4175 -0.1402
18420TIP3   OH276674   2.296   6.360   5.047  0.0015  0.0972 -0.0654
18420TIP3    H176675   2.256   6.334   5.130  0.4724  0.6805  0.3592
18420TIP3    H276676   2.335   6.280   5.012 -2.1306 -0.6528 -0.8538
18421TIP3   OH276677   3.574   5.271  11.912  0.5029  0.0161  0.1908
18421TIP3    H176678   3.485   5.281  11.879  0.1976  0.9545  1.2336
18421TIP3    H276679   3.591   5.352  11.961  2.6459  0.7490 -1.5566
18422TIP3   OH276680   3.848   2.383  10.680  0.0858 -0.0536 -0.1768
18422TIP3    H176681   3.882   2.293  10.683  0.3444  0.0421 -0.1435
18422TIP3    H276682   3.772   2.382  10.737  0.7598  0.0234  0.7401
18423TIP3   OH276683   4.846   6.606  13.892  0.6257  0.0424  0.3056
18423TIP3    H176684   4.768   6.585  13.841  1.5873 -0.7390 -0.8937
18423TIP3    H276685   4.815   6.668  13.958 -0.3388  2.5095 -2.3026
18424TIP3   OH276686   4.456   3.241  16.144 -0.1566  0.1339  0.0352
18424TIP3    H176687   4.547   3.269  16.137 -0.2781  0.6037  0.2709
18424TIP3    H276688   4.459   3.146  16.132  0.5006 -0.0033  1.1196
18425TIP3   OH276689   0.515   5.871  12.704 -0.0237  0.3270  0.0221
18425TIP3    H176690   0.486   5.920  12.781 -2.4899  0.4054 -0.8639
18425TIP3    H276691   0.542   5.939  12.641  2.8709  0.2432  1.0251
18426TIP3   OH276692   6.301   3.457   4.592  0.1141  0.7442  0.7174
18426TIP3    H176693   6.246   3.499   4.525 -0.8898 -0.6668  0.6260
18426TIP3    H276694   6.373   3.519   4.605  0.8424  0.6854 -2.3302
18427TIP3   OH276695   6.667   4.322   5.051  0.5128 -0.4954  0.9305
18427TIP3    H176696   6.716   4.391   5.005  1.3504 -1.9374 -0.4441
18427TIP3    H276697   6.691   4.334   5.143 -0.1169  1.6148  0.8754
18428TIP3   OH276698   1.755   5.881   1.202 -0.3695 -0.2329 -0.8756
18428TIP3    H176699   1.704   5.956   1.171 -0.1598  0.5279  0.5107
18428TIP3    H276700   1.822   5.869   1.136  0.5705  1.8480 -0.3989
18429TIP3   OH276701   2.981   6.425   1.590 -0.7040 -0.4063 -0.3668
18429TIP3    H176702   2.910   6.489   1.577 -1.0866 -0.9139 -0.8250
18429TIP3    H276703   3.056   6.478   1.618 -1.4714  0.0567  0.9130
18430TIP3   OH276704   6.218   3.008   0.769 -0.1343  0.6787  0.9275
18430TIP3    H176705   6.171   3.054   0.838  0.5164  0.4881  1.5065
18430TIP3    H276706   6.279   2.950   0.815  0.7779  1.0256  0.2033
18431TIP3   OH276707   5.957   5.190   2.861 -0.4015 -0.1988 -0.2869
18431TIP3    H176708   6.052   5.191   2.846 -0.5583 -1.9206 -1.6697
18431TIP3    H276709   5.948   5.213   2.953  1.1386  2.9821 -0.7827
18432TIP3   OH276710   0.467   0.013   1.232  0.4643  0.2452  0.0651
18432TIP3    H176711   0.472   0.056   1.147 -0.5988  0.7576  0.2383
18432TIP3    H276712   0.378  -0.022   1.235 -0.2543  2.0026  1.7596
18433TIP3   OH276713   2.093   4.746   2.368  0.2869  0.0029 -0.1343
18433TIP3    H176714   2.101   4.661   2.412  1.6655 -0.9887 -2.1039
18433TIP3    H276715   1.999   4.761   2.361 -0.0368 -1.9985 -0.7578
18434TIP3   OH276716   4.475   0.501   4.882 -0.3339  0.2634 -0.0426
18434TIP3    H176717   4.401   0.521   4.825 -0.6387  2.8589  1.1197
18434TIP3    H276718   4.537   0.455   4.825 -1.7454  0.2971 -1.7077
18435TIP3   OH276719   5.170   4.468   3.206  0.1857 -0.1330  0.3572
18435TIP3    H176720   5.201   4.413   3.134 -0.6595 -0.8409  0.5253
18435TIP3    H276721   5.210   4.553   3.189  0.4217 -0.4297 -0.6572
18436TIP3   OH276722   6.408   3.221   2.828 -0.1665 -0.5652  0.6209
18436TIP3    H176723   6.402   3.252   2.738  1.4016  0.1056  0.7090
18436TIP3    H276724   6.325   3.177   2.845  0.8288 -4.1898 -2.4327
18437TIP3   OH276725   5.534   0.926  16.666 -0.6973 -0.5636 -0.7881
18437TIP3    H176726   5.630   0.927  16.664 -0.6941 -1.1915 -1.0321
18437TIP3    H276727   5.509   0.966  16.583 -0.6443 -1.0199 -1.0244
18438TIP3   OH276728   5.315   3.704  13.925 -0.0712  0.2564 -0.9583
18438TIP3    H176729   5.373   3.776  13.953  1.2737  0.2231 -3.3907
18438TIP3    H276730   5.329   3.635  13.990  0.9078  1.0855 -0.2562
18439TIP3   OH276731   5.318   6.593   5.059  0.9457  0.5009 -0.0396
18439TIP3    H176732   5.393   6.617   5.004  0.7450  0.6037 -0.2712
18439TIP3    H276733   5.241   6.615   5.006  0.7549 -0.2627 -0.0885
18440TIP3   OH276734   4.682   1.781   5.368  0.6556  0.0748 -0.5627
18440TIP3    H176735   4.681   1.812   5.277 -1.2088 -1.0942 -1.0012
18440TIP3    H276736   4.620   1.838   5.413  1.1617  0.2950 -0.1380
18441TIP3   OH276737   0.286   5.570  17.166  0.1302  0.0570 -0.2651
18441TIP3    H176738   0.254   5.552  17.254 -0.6183  1.5467 -0.2111
18441TIP3    H276739   0.379   5.547  17.169  0.2878  0.8008  1.1294
18442TIP3   OH276740   5.572   4.322   2.744 -0.1542  0.1574 -0.0486
18442TIP3    H176741   5.493   4.302   2.694 -1.3099 -0.0125  1.7758
18442TIP3    H276742   5.551   4.401   2.793  0.4490 -0.3880  1.1456
18443TIP3   OH276743   2.833   4.916  16.380  0.0999  0.1619  0.1400
18443TIP3    H176744   2.906   4.955  16.427  0.5624  1.0400 -1.2465
18443TIP3    H276745   2.874   4.852  16.321 -0.2035  0.8629 -0.8489
18444TIP3   OH276746   2.676   4.042   2.856  0.0934 -0.2767 -0.0350
18444TIP3    H176747   2.639   4.001   2.777  1.8059 -1.2770 -0.3577
18444TIP3    H276748   2.649   3.985   2.928 -1.5680  0.6974  0.1827
18445TIP3   OH276749   2.177   3.120   5.992 -0.0766  0.2223  0.5344
18445TIP3    H176750   2.256   3.072   6.017 -0.3410  0.1877  1.3174
18445TIP3    H276751   2.107   3.082   6.045 -0.1718  1.9333  1.7464
18446TIP3   OH276752   6.717   4.133  11.256 -0.3846  0.2472  0.1809
18446TIP3    H176753   6.776   4.059  11.269  0.9354  1.2970  0.3784
18446TIP3    H276754   6.748   4.175  11.175 -0.2631  1.3451  0.7814
18447TIP3   OH276755   5.407   5.941   3.535 -0.3412 -0.3198  0.1140
18447TIP3    H176756   5.469   5.978   3.472  1.4834 -1.1959  1.2901
18447TIP3    H276757   5.458   5.874   3.580 -2.2932 -1.3191  0.9151
18448TIP3   OH276758   2.260   1.745   3.295  0.3410  0.3196 -0.0126
18448TIP3    H176759   2.192   1.678   3.291 -1.0873  1.5787  1.7381
18448TIP3    H276760   2.255   1.790   3.210  0.5206 -0.9828 -0.7365
18449TIP3   OH276761   6.760   5.148  11.276 -0.1235 -0.5152 -0.4002
18449TIP3    H176762   6.789   5.138  11.367  0.7685 -0.9020 -0.7110
18449TIP3    H276763   6.841   5.152  11.225 -0.6101 -0.7166 -1.2192
18450TIP3   OH276764   5.414   6.432  13.467  0.3409 -0.3760  0.1653
18450TIP3    H176765   5.491   6.399  13.420  1.1157 -2.3016  2.5987
18450TIP3    H276766   5.346   6.367  13.449  0.8519 -1.5288  2.1644
18451TIP3   OH276767   4.170   4.428  16.202 -0.0127  0.2477 -0.6348
18451TIP3    H176768   4.226   4.355  16.228  0.2430  0.3250 -0.9623
18451TIP3    H276769   4.129   4.457  16.283  0.8413  0.5536 -0.3026
18452TIP3   OH276770   3.441   0.357  11.960  0.0358  0.1078  0.5099
18452TIP3    H176771   3.468   0.446  11.938  0.0815  0.5263  2.1441
18452TIP3    H276772   3.366   0.340  11.903  0.0708  1.1554  0.1293
18453TIP3   OH276773   5.956   6.643  11.407  0.5497 -0.2511 -0.0656
18453TIP3    H176774   6.031   6.607  11.360 -0.2876 -2.5497  0.2476
18453TIP3    H276775   5.989   6.661  11.495  1.4736  1.6849 -0.7590
18454TIP3   OH276776   5.301   6.651   2.322 -0.5324  0.2501 -0.9899
18454TIP3    H176777   5.299   6.629   2.229  0.1641 -1.2141 -0.6882
18454TIP3    H276778   5.234   6.594   2.361  0.3080 -0.3666 -0.3904
18455TIP3   OH276779   0.139   5.412   4.502 -0.7153 -0.1216 -0.0159
18455TIP3    H176780   0.202   5.406   4.573 -0.1851  1.9460 -0.2635
18455TIP3    H276781   0.084   5.334   4.512 -0.4227 -0.0666  2.4107
18456TIP3   OH276782   6.435   2.242  16.367 -0.3233  0.1842 -0.0833
18456TIP3    H176783   6.391   2.175  16.420  0.4108 -0.0285  0.2805
18456TIP3    H276784   6.367   2.278  16.311 -0.4963 -1.7541 -1.2073
18457TIP3   OH276785   5.111   5.631   4.779  0.3945  0.3909  0.0115
18457TIP3    H176786   5.075   5.715   4.810 -2.9820 -0.2895 -1.6053
18457TIP3    H276787   5.092   5.570   4.850  2.9136  0.8540  1.2178
18458TIP3   OH276788   2.217   4.912   4.249  0.2050 -0.1645  0.0287
18458TIP3    H176789   2.128   4.886   4.275  1.0090 -2.4451  0.7386
18458TIP3    H276790   2.222   4.887   4.156  0.2577 -0.4400  0.1070
18459TIP3   OH276791   6.103   5.182  12.882  0.4193 -0.1639  0.1693
18459TIP3    H176792   6.128   5.092  12.903  0.4326  0.0180  0.9699
18459TIP3    H276793   6.007   5.179  12.878  0.2843  0.1466  2.0770
18460TIP3   OH276794   0.789   3.732  11.827 -0.2908 -0.3206 -0.3240
18460TIP3    H176795   0.871   3.691  11.802 -0.3136  0.2731 -1.4438
18460TIP3    H276796   0.746   3.752  11.744 -0.1321  2.2529  0.1277
18461TIP3   OH276797   3.943   3.424   2.554  0.4520  0.3486  0.1457
18461TIP3    H176798   3.869   3.483   2.540  0.9654  1.4413  1.7559
18461TIP3    H276799   4.020   3.473   2.526  0.6906 -0.3957 -0.5486
18462TIP3   OH276800   2.110   3.401  10.517 -0.4625  0.3288 -0.3427
18462TIP3    H176801   2.086   3.392  10.610  0.1437 -0.9181 -0.2934
18462TIP3    H276802   2.144   3.490  10.510  1.0122 -0.0800  0.9989
18463TIP3   OH276803   1.954   5.491  17.148 -0.5686  0.2188 -0.3111
18463TIP3    H176804   1.913   5.548  17.083  0.0905 -1.7291 -2.5701
18463TIP3    H276805   2.046   5.519  17.149 -0.7752  0.8943  0.5527
18464TIP3   OH276806   0.115   6.473   6.128 -0.4480  0.3620 -0.2638
18464TIP3    H176807   0.060   6.394   6.127 -0.9045  0.6372 -2.7921
18464TIP3    H276808   0.198   6.444   6.090 -0.0251  0.7201  0.3867
18465TIP3   OH276809   4.844   2.516  10.488  0.5431 -0.0220  0.2540
18465TIP3    H176810   4.845   2.454  10.415 -0.8024 -0.3733  0.5137
18465TIP3    H276811   4.935   2.545  10.496  0.7213  0.0751 -1.6026
18466TIP3   OH276812   1.174   0.321  12.842  0.1919 -0.3611 -0.0499
18466TIP3    H176813   1.167   0.247  12.780  0.2344  0.2603 -0.8133
18466TIP3    H276814   1.239   0.291  12.906  0.4410 -0.8787 -0.5229
18467TIP3   OH276815   0.978   6.773   0.007 -0.3452  0.6542 -0.3145
18467TIP3    H176816   1.060   6.723   0.004  0.4839  1.8844  0.6804
18467TIP3    H276817   0.992   6.846  -0.053 -1.3149  0.0362 -1.3062
18468TIP3   OH276818   5.969   6.096  11.116 -0.4831  0.2113  0.4040
18468TIP3    H176819   5.938   6.035  11.184  0.7193 -0.1046  0.6899
18468TIP3    H276820   5.921   6.177  11.133  0.2813  0.3517  2.0617
18469TIP3   OH276821   5.926   5.395  16.553  0.5740  0.6319 -0.0065
18469TIP3    H176822   5.869   5.370  16.626  2.8603 -0.7392  1.4080
18469TIP3    H276823   5.896   5.483  16.529 -2.3637 -0.1647  0.3647
18470TIP3   OH276824   5.720   6.091  12.681 -1.0786  0.2006 -0.4293
18470TIP3    H176825   5.803   6.102  12.728 -1.3650  1.4896 -0.1841
18470TIP3    H276826   5.700   6.178  12.648 -2.0795 -0.2090 -0.9268
18471TIP3   OH276827   5.091   3.406   4.325 -0.3474 -0.5109 -0.2383
18471TIP3    H176828   5.029   3.424   4.396 -0.1196  0.9448 -0.3967
18471TIP3    H276829   5.122   3.317   4.344 -1.7891 -0.9153  0.3508
18472TIP3   OH276830   5.473   5.231  11.971  0.3578  0.0650  0.0000
18472TIP3    H176831   5.555   5.234  11.923  0.8980 -1.2244  0.7811
18472TIP3    H276832   5.420   5.166  11.924 -0.1436  0.7317 -0.3745
18473TIP3   OH276833   1.601   1.832   2.524 -0.6352 -0.1616  0.0076
18473TIP3    H176834   1.545   1.791   2.458 -2.2298  0.1698  1.0891
18473TIP3    H276835   1.573   1.794   2.607 -1.9666  2.7184  1.0419
18474TIP3   OH276836   1.989   4.382   2.810  0.6039  0.3504 -0.2554
18474TIP3    H176837   1.956   4.425   2.889  0.9747  0.5321 -0.1972
18474TIP3    H276838   1.937   4.303   2.803  1.8389 -0.6638  1.2526
18475TIP3   OH276839   4.455   6.500  14.962  0.3045  0.1056  0.5385
18475TIP3    H176840   4.537   6.550  14.954  0.1592  0.6840  2.2266
18475TIP3    H276841   4.391   6.552  14.914  1.1635 -1.0747 -2.0411
18476TIP3   OH276842   6.147   5.414  10.530  0.5959  0.1696  0.1412
18476TIP3    H176843   6.119   5.330  10.493  0.5164 -0.4953  1.6238
18476TIP3    H276844   6.107   5.416  10.617  0.6319  1.7438  0.1528
18477TIP3   OH276845   2.475   0.733  13.853 -0.0739 -0.1056  0.1418
18477TIP3    H176846   2.454   0.668  13.786 -0.3338  1.1583 -1.0472
18477TIP3    H276847   2.512   0.806  13.805  1.3144  0.1858  1.5751
18478TIP3   OH276848   1.601   3.521   5.439 -0.4824  0.0520  0.8440
18478TIP3    H176849   1.594   3.507   5.344 -0.0934  0.5254  0.7393
18478TIP3    H276850   1.593   3.616   5.449  0.5187  0.1086  1.1796
18479TIP3   OH276851   5.803   4.081  13.442 -0.1790  0.2902 -0.6005
18479TIP3    H176852   5.708   4.095  13.438 -0.7601  0.7219  5.4354
18479TIP3    H276853   5.813   3.987  13.457  0.8276 -0.3449 -4.3140
18480TIP3   OH276854   2.799   4.958   0.805 -0.3092 -0.6267 -0.1688
18480TIP3    H176855   2.787   4.976   0.712 -0.1317 -2.1829 -0.5208
18480TIP3    H276856   2.765   5.036   0.849  1.0309  0.8096 -1.5524
18481TIP3   OH276857   1.459   1.929   6.112  0.0679  0.3244 -0.5480
18481TIP3    H176858   1.437   1.943   6.204  0.9906 -0.6595 -0.1617
18481TIP3    H276859   1.411   1.850   6.087  0.2022  0.3128 -0.7753
18482TIP3   OH276860   5.505   1.310   3.153 -0.4425 -0.5645  0.0922
18482TIP3    H176861   5.456   1.354   3.222  1.1942 -0.4251  1.1949
18482TIP3    H276862   5.437   1.280   3.091 -1.8197  0.5047  1.0387
18483TIP3   OH276863   5.952   2.602  12.371 -0.0293 -0.1457  0.0348
18483TIP3    H176864   5.995   2.641  12.295  1.2980 -0.6608  0.4816
18483TIP3    H276865   5.862   2.632  12.367 -0.2055 -0.8476 -2.2054
18484TIP3   OH276866   1.836   4.907  14.145  0.0827 -0.7044  0.9428
18484TIP3    H176867   1.852   4.918  14.051 -1.0098  0.1430  0.8297
18484TIP3    H276868   1.900   4.965  14.187  0.2489 -0.7071  0.6980
18485TIP3   OH276869   0.805   2.504  13.422 -0.4132  0.0122 -0.2289
18485TIP3    H176870   0.887   2.514  13.374 -0.7931 -0.5965 -1.0252
18485TIP3    H276871   0.790   2.590  13.461  1.7549 -0.4387  1.8518
18486TIP3   OH276872   5.549   2.969   4.737  0.0298 -0.1399 -1.0253
18486TIP3    H176873   5.528   2.959   4.644 -2.0411  1.7639 -0.8630
18486TIP3    H276874   5.513   3.055   4.761 -0.2946 -0.9255  1.7319
18487TIP3   OH276875   1.881   1.795   4.288  0.8128  0.0851 -0.0009
18487TIP3    H176876   1.906   1.854   4.359 -0.2734  0.6126 -0.0340
18487TIP3    H276877   1.955   1.798   4.227  1.1776  0.6648  0.4645
18488TIP3   OH276878   1.786   5.741  14.548 -0.6615 -0.0893  0.1310
18488TIP3    H176879   1.879   5.730  14.568 -0.2864  1.1080 -0.8753
18488TIP3    H276880   1.778   5.711  14.457 -1.4127 -0.8682  0.4396
18489TIP3   OH276881   4.406   5.834  17.032  0.2978 -0.3000 -0.6064
18489TIP3    H176882   4.493   5.864  17.057  0.6041 -0.5061 -1.3779
18489TIP3    H276883   4.359   5.915  17.008 -0.5574  0.1118  2.1135
18490TIP3   OH276884   0.255   2.737   2.197  0.3242 -0.2425 -0.2582
18490TIP3    H176885   0.163   2.722   2.215  0.3737 -1.8129 -1.1577
18490TIP3    H276886   0.259   2.753   2.102  0.9395  0.1279 -0.1804
18491TIP3   OH276887   0.481   4.810  13.488  0.8475  0.4907 -0.6352
18491TIP3    H176888   0.428   4.870  13.541 -0.1765 -0.5845 -0.4050
18491TIP3    H276889   0.572   4.831  13.512  0.4494  0.6739  0.8511
18492TIP3   OH276890   0.790   2.576   5.423 -0.1962  0.2986 -0.2280
18492TIP3    H176891   0.850   2.616   5.360 -0.2329 -0.2584 -0.6321
18492TIP3    H276892   0.704   2.578   5.380  0.0388 -1.4830 -0.8990
18493TIP3   OH276893   5.747   2.453  16.399 -0.0095 -0.2425 -0.2364
18493TIP3    H176894   5.660   2.476  16.432 -0.4381 -0.3276 -1.2722
18493TIP3    H276895   5.732   2.426  16.308  0.8554 -1.9837  0.0996
18494TIP3   OH276896   5.163   4.589   0.592 -0.3730  0.3439 -0.0166
18494TIP3    H176897   5.250   4.554   0.572 -0.7073  0.3520 -1.6176
18494TIP3    H276898   5.163   4.599   0.687  0.7089 -1.4049  0.2276
18495TIP3   OH276899   2.593   3.230  12.927  0.1177 -0.2035  0.0214
18495TIP3    H176900   2.622   3.321  12.930 -1.1539  0.2006  0.6458
18495TIP3    H276901   2.552   3.214  13.012 -2.1094 -0.4944 -1.0412
18496TIP3   OH276902   3.887   2.766  13.865 -0.5212  0.0796 -0.2044
18496TIP3    H176903   3.868   2.688  13.918  1.1835  0.4375  1.0016
18496TIP3    H276904   3.940   2.733  13.793 -0.8265 -0.0461 -0.3745
18497TIP3   OH276905   5.862   6.425  16.278 -0.0125  0.3228  0.1986
18497TIP3    H176906   5.851   6.482  16.354  0.0913 -0.3327  0.7156
18497TIP3    H276907   5.888   6.340  16.315 -4.3462 -1.4055 -0.1057
18498TIP3   OH276908   4.321   0.334  10.876 -0.3196 -0.3161  0.3239
18498TIP3    H176909   4.387   0.403  10.884 -0.1978 -0.4262  0.2948
18498TIP3    H276910   4.339   0.294  10.791 -0.9620  0.1958 -0.0564
18499TIP3   OH276911   1.750   1.493   2.701  0.3895 -0.5002  0.2727
18499TIP3    H176912   1.803   1.573   2.702 -0.1414 -0.1446  1.7442
18499TIP3    H276913   1.790   1.440   2.632  1.8434  0.2962  0.4475
18500TIP3   OH276914   3.398   2.506   4.175 -0.7261  0.2805  0.1620
18500TIP3    H176915   3.338   2.500   4.249 -0.4684 -0.4412  0.3150
18500TIP3    H276916   3.485   2.491   4.212 -0.4713  1.0293 -0.1071
18501TIP3   OH276917   6.035   0.875  16.355  0.6510  0.2062 -0.6720
18501TIP3    H176918   6.075   0.858  16.440 -0.2503 -0.9579 -0.4410
18501TIP3    H276919   6.053   0.967  16.337 -0.9642  1.1327  1.8190
18502TIP3   OH276920   1.393   4.370   0.855 -0.2703  0.3265  0.0097
18502TIP3    H176921   1.316   4.315   0.843 -0.8371  1.2922 -1.0485
18502TIP3    H276922   1.390   4.431   0.781  1.6014  0.2797 -0.1594
18503TIP3   OH276923   0.610   5.162   2.830  0.3290 -0.3783 -0.1038
18503TIP3    H176924   0.610   5.232   2.765 -0.3245  1.7770  2.0556
18503TIP3    H276925   0.701   5.131   2.833  0.7420  0.7321 -0.7541
18504TIP3   OH276926   2.622   0.104   5.887  0.1502 -0.3516  0.2152
18504TIP3    H176927   2.695   0.165   5.882  0.3479 -0.5801  0.2474
18504TIP3    H276928   2.633   0.060   5.972 -0.7175  0.4614  0.7654
18505TIP3   OH276929   4.587   2.141   4.779  0.2569 -0.6871  0.5447
18505TIP3    H176930   4.589   2.145   4.684  1.3272 -1.1292  0.5366
18505TIP3    H276931   4.531   2.066   4.799  0.2399 -0.7506  0.2619
18506TIP3   OH276932   0.074   3.978   5.953  0.1025 -0.0881 -0.2496
18506TIP3    H176933   0.020   4.029   5.892  2.2611  2.1416 -0.4456
18506TIP3    H276934   0.032   3.991   6.038  0.4031  1.8259 -0.3482
18507TIP3   OH276935   3.139   0.734  16.043 -0.2796 -0.5830 -0.4501
18507TIP3    H176936   3.149   0.766  16.133 -0.3822  0.4212 -0.7906
18507TIP3    H276937   3.182   0.648  16.044  0.2955 -0.3002  0.3921
18508TIP3   OH276938   3.806   0.500   0.949 -0.4656 -0.2325  0.0126
18508TIP3    H176939   3.817   0.492   0.855 -1.4982 -2.6250  0.0277
18508TIP3    H276940   3.721   0.544   0.960 -0.4694 -0.1956 -0.1689
18509TIP3   OH276941   6.348   0.333  11.220  0.7943  0.1496  0.5056
18509TIP3    H176942   6.419   0.312  11.281  1.1103  0.8081  0.3734
18509TIP3    H276943   6.273   0.284  11.253  1.0093  0.3486  1.3227
18510TIP3   OH276944   5.869   1.674  17.183 -0.2045  0.2733  0.0361
18510TIP3    H176945   5.830   1.702  17.266  0.9508  3.8151 -0.4609
18510TIP3    H276946   5.811   1.605  17.151 -1.4459 -0.2511  3.0817
18511TIP3   OH276947   4.624   2.745  11.075 -0.1398  0.9638 -0.1416
18511TIP3    H176948   4.570   2.779  11.004 -0.5275 -2.5259 -1.7337
18511TIP3    H276949   4.694   2.696  11.031  0.1986 -0.4920  1.8524
18512TIP3   OH276950   1.751   4.855   2.867  0.3390  0.7755  0.1649
18512TIP3    H176951   1.715   4.941   2.843 -1.4247 -0.4542 -1.9694
18512TIP3    H276952   1.678   4.795   2.858  2.2931 -1.5123 -1.9161
18513TIP3   OH276953   4.776   3.362  16.964 -0.1949  0.1607  0.2062
18513TIP3    H176954   4.823   3.344  17.046  0.0501  0.7744  0.2042
18513TIP3    H276955   4.818   3.305  16.900 -0.4795 -0.4277  0.5324
18514TIP3   OH276956   1.993   3.677  12.941  0.4574 -0.2651  0.2234
18514TIP3    H176957   1.995   3.767  12.973 -0.5942 -0.0773 -0.2092
18514TIP3    H276958   2.085   3.648  12.944  0.8416  0.9030  0.0999
18515TIP3   OH276959   0.467   3.687  11.589 -0.9486 -0.4852 -0.1556
18515TIP3    H176960   0.424   3.656  11.510 -1.5751 -0.1196  0.0328
18515TIP3    H276961   0.415   3.652  11.661 -1.2076  0.3334  0.0724
18516TIP3   OH276962   1.803   3.901  14.007 -0.2482 -0.0056  0.2811
18516TIP3    H176963   1.743   3.867  13.941  0.5007  0.0903 -0.4635
18516TIP3    H276964   1.754   3.897  14.089 -1.6673  1.0898 -0.4702
18517TIP3   OH276965   4.170   3.397   2.146 -0.4242  0.4515 -0.1214
18517TIP3    H176966   4.175   3.348   2.063 -0.8757  0.4283 -0.1358
18517TIP3    H276967   4.082   3.433   2.147 -0.2017  0.9922  0.0505
18518TIP3   OH276968   6.007   5.641   1.445  0.1441  0.3036 -0.2809
18518TIP3    H176969   5.925   5.689   1.449  0.0492  0.1050  0.4905
18518TIP3    H276970   6.001   5.579   1.518  0.4035 -0.6404 -1.0460
18519TIP3   OH276971   1.687   1.240   6.108  0.8430  0.0890 -0.1700
18519TIP3    H176972   1.703   1.150   6.079  1.6763  0.2217 -0.1494
18519TIP3    H276973   1.601   1.262   6.071  0.2319 -1.0039  0.5451
18520TIP3   OH276974   2.747   4.107  13.452 -0.1335 -0.9990  0.6234
18520TIP3    H176975   2.786   4.057  13.523  2.6816 -0.0433 -0.1244
18520TIP3    H276976   2.770   4.198  13.470  1.0467 -0.7643 -1.6823
18521TIP3   OH276977   3.886   4.688   5.942  0.0796  0.1090 -0.5359
18521TIP3    H176978   3.968   4.716   5.982  0.6658 -2.6761  0.3779
18521TIP3    H276979   3.911   4.659   5.854 -0.2068  0.6423 -0.8010
18522TIP3   OH276980   3.917   5.842   1.037  0.4210  0.1754  0.3261
18522TIP3    H176981   3.959   5.835   1.123 -0.4500  2.7333  1.0611
18522TIP3    H276982   3.883   5.754   1.020 -1.5335  0.0747  3.7947
18523TIP3   OH276983   5.902   1.918  16.679  0.0639 -0.1616  0.1202
18523TIP3    H176984   5.996   1.921  16.697  0.4526 -0.7840 -1.6477
18523TIP3    H276985   5.892   1.843  16.621 -1.8114 -1.2637  1.7620
18524TIP3   OH276986   6.469   6.754  10.801 -0.3070  0.0475  0.1836
18524TIP3    H176987   6.379   6.753  10.770 -0.5886  0.6751  0.9722
18524TIP3    H276988   6.520   6.781  10.724 -0.8380  0.1787 -0.1285
18525TIP3   OH276989   6.609   5.108  17.191  0.4786 -0.0581  0.1559
18525TIP3    H176990   6.522   5.071  17.177  1.6528 -2.5587 -1.1009
18525TIP3    H276991   6.622   5.102  17.285 -0.2240 -0.8499  0.2208
18526TIP3   OH276992   3.588   5.375   2.056  0.4600 -0.4531 -0.8140
18526TIP3    H176993   3.606   5.444   2.120  0.1815 -0.4718 -0.7103
18526TIP3    H276994   3.530   5.416   1.993  1.7781 -0.0495 -1.7910
18527TIP3   OH276995   1.421   3.825  15.419  0.2345 -0.2100 -0.3521
18527TIP3    H176996   1.481   3.750  15.414 -0.7827 -1.0664 -0.1076
18527TIP3    H276997   1.413   3.855  15.328  2.0453  0.7762 -0.2388
18528TIP3   OH276998   6.582   4.744   1.721 -0.0019 -0.3318 -0.0529
18528TIP3    H176999   6.568   4.729   1.815  0.0478  0.5959  0.1178
18528TIP3    H277000   6.677   4.756   1.713 -0.2177  2.1360  0.2233
18529TIP3   OH277001   5.191   1.064   0.295 -0.2192  0.3735 -0.8587
18529TIP3    H177002   5.183   1.158   0.278 -2.0092  0.2895 -0.5936
18529TIP3    H277003   5.224   1.027   0.213  1.6641  1.3536 -0.6039
18530TIP3   OH277004   3.280   6.594  12.091  0.1788  0.3320 -0.5549
18530TIP3    H177005   3.245   6.676  12.055 -0.5894  0.2339 -0.0704
18530TIP3    H277006   3.374   6.608  12.098 -0.1129  1.8232  1.1035
18531TIP3   OH277007   1.097   3.555   1.699 -0.2584  0.2399 -0.2065
18531TIP3    H177008   1.145   3.573   1.780  0.6765 -0.0610 -0.6785
18531TIP3    H277009   1.010   3.591   1.715  0.0307  0.5561  0.7780
18532TIP3   OH277010   5.924   3.743  16.423  0.1412  0.6043  0.4322
18532TIP3    H177011   5.945   3.741  16.329 -1.4248 -0.7220  0.0562
18532TIP3    H277012   5.905   3.652  16.445 -0.6505  1.0585  1.7702
18533TIP3   OH277013   3.838   3.032  12.687 -0.6240  0.3351 -0.0639
18533TIP3    H177014   3.933   3.025  12.681 -0.6769 -1.3664  0.4225
18533TIP3    H277015   3.816   3.114  12.643  0.9857  0.2723 -1.0310
18534TIP3   OH277016   4.719   0.790   0.447  0.2270  0.3457  0.3802
18534TIP3    H177017   4.667   0.869   0.430  1.0387  0.8347  0.1278
18534TIP3    H277018   4.765   0.774   0.365 -0.5671 -0.8901  0.1462
18535TIP3   OH277019   0.726   6.590  16.445 -0.7960  0.3397 -0.4357
18535TIP3    H177020   0.768   6.631  16.369  0.3385  0.3524  0.1691
18535TIP3    H277021   0.795   6.534  16.482 -1.6776 -0.5210 -0.0567
18536TIP3   OH277022   3.029   1.527   1.458  0.8123 -0.3812  0.2775
18536TIP3    H177023   2.949   1.571   1.430 -0.9166 -2.0303  2.2240
18536TIP3    H277024   3.049   1.567   1.543  1.3495 -0.8133  0.3564
18537TIP3   OH277025   1.900   1.238  13.736  0.0827 -0.4856 -0.1625
18537TIP3    H177026   1.944   1.300  13.677  1.5896 -1.7332 -0.4413
18537TIP3    H277027   1.839   1.191  13.680  0.6352 -0.8340 -0.4866
18538TIP3   OH277028   4.521   5.030  12.959 -0.3894  0.3685 -0.9854
18538TIP3    H177029   4.504   5.031  12.865  2.5758 -1.2544 -1.6574
18538TIP3    H277030   4.516   4.938  12.984  1.9496  0.3451 -0.2969
18539TIP3   OH277031   5.643   3.680   2.964 -0.3872 -0.2770 -0.5339
18539TIP3    H177032   5.643   3.590   2.997 -2.1981  0.7160  2.5608
18539TIP3    H277033   5.550   3.703   2.955  0.0052  1.5528 -0.3790
18540TIP3   OH277034   2.740   0.841   0.297 -0.2436 -0.2379 -0.1490
18540TIP3    H177035   2.706   0.859   0.210 -1.0627 -0.1175  0.1937
18540TIP3    H277036   2.818   0.787   0.281  0.5847  1.1445 -1.0287
18541TIP3   OH277037   6.703   3.363   0.662  0.4718 -0.1230  0.1000
18541TIP3    H177038   6.776   3.355   0.724  2.4654  0.8072 -1.9590
18541TIP3    H277039   6.678   3.455   0.665 -0.5823 -0.4197  0.7247
18542TIP3   OH277040   1.403   6.208  13.745 -0.8007 -0.1438  0.1574
18542TIP3    H177041   1.390   6.133  13.803 -2.2436 -1.1748 -1.4175
18542TIP3    H277042   1.425   6.170  13.660  1.0547  1.3168 -0.0985
18543TIP3   OH277043   3.373   3.321  14.861  0.2411  0.1872 -0.6979
18543TIP3    H177044   3.287   3.320  14.819  0.5908 -2.0229 -1.5552
18543TIP3    H277045   3.434   3.306  14.789  1.0528 -1.4167  0.2665
18544TIP3   OH277046   6.635   4.651  15.716  0.3430 -0.4187 -0.7038
18544TIP3    H177047   6.613   4.572  15.766 -0.0312  0.3136  0.3098
18544TIP3    H277048   6.659   4.618  15.629 -1.7268 -1.5098 -0.9246
18545TIP3   OH277049   3.006   5.503   3.647 -0.5477  0.0577 -0.8853
18545TIP3    H177050   2.979   5.499   3.555  0.2449 -1.4619 -1.0886
18545TIP3    H277051   2.989   5.415   3.680 -3.7163  1.3230  1.3261
18546TIP3   OH277052   0.076   5.395   2.675  0.1565  0.1280 -0.2612
18546TIP3    H177053   0.050   5.404   2.767  0.8467 -1.3525  0.1078
18546TIP3    H277054   0.166   5.361   2.679  0.1746 -0.0084 -1.4885
18547TIP3   OH277055   0.463   1.238   3.117  0.6954  0.3135  0.1000
18547TIP3    H177056   0.510   1.248   3.034  0.2258 -1.5708 -0.4523
18547TIP3    H277057   0.479   1.319   3.164  1.0058  1.4280 -1.8203
18548TIP3   OH277058   4.861   1.614   1.894  0.7334 -0.1684 -0.2267
18548TIP3    H177059   4.784   1.601   1.949  0.0595 -3.7448 -1.7276
18548TIP3    H277060   4.894   1.701   1.918 -2.2865  0.4567  2.2340
18549TIP3   OH277061   1.164   3.851  12.085 -0.0520 -0.0226 -0.5814
18549TIP3    H177062   1.239   3.910  12.090 -0.5760  0.6173 -0.1743
18549TIP3    H277063   1.094   3.895  12.134 -0.1625 -1.4171  0.5959
18550TIP3   OH277064   0.557   2.318   1.470  0.5321  0.5129 -0.0424
18550TIP3    H177065   0.524   2.359   1.550  0.6522  1.1342 -0.3052
18550TIP3    H277066   0.641   2.278   1.497 -0.2008 -0.7073  0.5236
18551TIP3   OH277067   0.407   5.662   1.279  0.0852 -0.8267  0.4382
18551TIP3    H177068   0.314   5.656   1.300 -0.6600  0.9723 -1.9487
18551TIP3    H277069   0.414   5.733   1.216  3.3836  0.3997  1.9143
18552TIP3   OH277070   3.073   2.945  16.098  0.3770 -0.1214  0.5314
18552TIP3    H177071   3.047   2.956  16.006 -1.6549 -0.6185  0.9834
18552TIP3    H277072   3.038   3.023  16.142  2.5786  0.8271  0.6992
18553TIP3   OH277073   2.123   6.589  16.351  0.3342  0.3374 -0.2884
18553TIP3    H177074   2.098   6.515  16.294  0.4566  0.7979 -0.9531
18553TIP3    H277075   2.103   6.667  16.299 -1.2449  0.8387  0.9836
18554TIP3   OH277076   2.325   0.733   1.628 -0.1871 -0.5144  0.6768
18554TIP3    H177077   2.303   0.640   1.618  1.9850 -1.0392  0.1877
18554TIP3    H277078   2.292   0.774   1.548 -0.3380 -1.0582  0.4534
18555TIP3   OH277079   0.477   1.499   2.493  0.3467  0.0942 -0.2755
18555TIP3    H177080   0.469   1.520   2.586  1.3661  1.0290 -0.3777
18555TIP3    H277081   0.434   1.414   2.484 -0.7284  0.4769  0.8448
18556TIP3   OH277082   6.068   1.762   0.341 -0.0505 -0.1215 -0.0228
18556TIP3    H177083   6.065   1.691   0.277  1.2394 -0.0464 -0.1957
18556TIP3    H277084   6.037   1.839   0.292 -1.9110 -0.6176  0.2977
18557TIP3   OH277085   5.560   1.793  11.744  0.0235  0.0696 -0.5713
18557TIP3    H177086   5.471   1.781  11.712  0.1095  0.7720 -1.0810
18557TIP3    H277087   5.581   1.710  11.788 -1.5217  0.5267  1.1448
18558TIP3   OH277088   4.630   3.579   1.505  0.1664  0.0121 -0.4855
18558TIP3    H177089   4.547   3.577   1.457 -0.1141  1.5288 -0.1211
18558TIP3    H277090   4.692   3.619   1.443 -0.3767  2.6958  0.6006
18559TIP3   OH277091   4.778   6.711  14.997  0.3311 -0.4259  0.6606
18559TIP3    H177092   4.769   6.615  14.994  2.3648 -0.7846  3.0139
18559TIP3    H277093   4.692   6.741  15.027 -1.0167 -1.2173 -1.9893
18560TIP3   OH277094   5.479   0.338   5.972 -0.7321  0.6443  0.0064
18560TIP3    H177095   5.502   0.295   6.055  0.6922 -1.7052 -1.4764
18560TIP3    H277096   5.405   0.287   5.939  0.2705 -0.0568 -1.2597
18561TIP3   OH277097   1.321   5.728   4.133 -0.0225 -0.2402 -0.4838
18561TIP3    H177098   1.250   5.787   4.106 -0.2874  0.3684  1.4381
18561TIP3    H277099   1.285   5.677   4.205  1.6724  0.5822  1.0309
18562TIP3   OH277100   3.118   3.447  15.690  0.0330 -0.6530  0.2468
18562TIP3    H177101   3.136   3.433  15.783 -1.8869 -2.9151  0.3733
18562TIP3    H277102   3.033   3.406  15.676 -0.3345  0.7786 -2.2732
18563TIP3   OH277103   0.321   2.220   5.444 -0.1142  0.1488  1.1304
18563TIP3    H177104   0.373   2.217   5.525  2.2175 -0.9416 -0.3250
18563TIP3    H277105   0.243   2.270   5.469  0.9853  0.7551  3.7825
18564TIP3   OH277106   3.022   4.176  12.671 -0.0376 -0.0246  0.5159
18564TIP3    H177107   2.989   4.202  12.757  0.0115  1.0414  0.2285
18564TIP3    H277108   2.992   4.086  12.660  1.5293 -0.8509  2.4345
18565TIP3   OH277109   6.327   2.456   1.411 -0.1830  0.0462  0.4972
18565TIP3    H177110   6.318   2.485   1.320 -1.2211  1.4975  1.0336
18565TIP3    H277111   6.404   2.398   1.410 -1.0270 -1.1361 -1.5568
18566TIP3   OH277112   2.157   6.588   1.379  0.1616  0.3155  0.1952
18566TIP3    H177113   2.108   6.659   1.337  0.8761  0.4090 -0.5000
18566TIP3    H277114   2.153   6.516   1.316  0.5963  0.1950  0.3025
18567TIP3   OH277115   1.328   4.426   1.547 -0.4755  0.4059 -0.2569
18567TIP3    H177116   1.277   4.382   1.479 -0.0016 -1.2787  0.4391
18567TIP3    H277117   1.316   4.372   1.625  0.9468  0.9531  0.3662
18568TIP3   OH277118   0.281   2.295   5.153 -0.3937 -0.1283 -0.0930
18568TIP3    H177119   0.252   2.364   5.093  0.2448  0.0288 -0.2292
18568TIP3    H277120   0.278   2.337   5.240 -2.3966 -0.7004  0.1377
18569TIP3   OH277121   3.290   0.799  16.488  0.1637  0.5691 -0.3861
18569TIP3    H177122   3.328   0.711  16.487  1.5189  1.0865  0.8268
18569TIP3    H277123   3.267   0.814  16.580  0.5888  1.7238 -0.4504
18570TIP3   OH277124   1.676   2.784  10.724  0.4065  0.0578  0.3162
18570TIP3    H177125   1.620   2.736  10.785  1.3140 -1.1179  0.2547
18570TIP3    H277126   1.662   2.876  10.745 -1.8789 -0.1616  0.0202
18571TIP3   OH277127   4.453   3.389  11.122 -0.0482 -0.0714  0.0799
18571TIP3    H177128   4.370   3.380  11.169 -0.6069 -2.3166 -1.2002
18571TIP3    H277129   4.438   3.460  11.060 -0.2062  1.0853  1.4049
18572TIP3   OH277130   2.476   1.061   5.573  0.0535 -0.0879 -0.6407
18572TIP3    H177131   2.555   1.108   5.599 -0.5799 -0.1884  1.6739
18572TIP3    H277132   2.406   1.100   5.626 -2.2735  2.4494 -4.9795
18573TIP3   OH277133   3.499   4.737  10.730 -0.3029 -0.1176  0.2895
18573TIP3    H177134   3.457   4.789  10.662 -0.1087 -0.8876 -0.4412
18573TIP3    H277135   3.436   4.736  10.802 -0.1233  1.4621  0.4900
18574TIP3   OH277136   2.959   5.538  12.952  0.1624 -0.3236 -0.9294
18574TIP3    H177137   2.896   5.576  13.013  2.5532  0.6025  1.1529
18574TIP3    H277138   2.948   5.587  12.871 -1.4505  0.0864 -0.4941
18575TIP3   OH277139   0.618   1.373  15.399  0.1911 -0.1402 -0.0735
18575TIP3    H177140   0.606   1.294  15.452  1.4823 -1.1866 -1.2478
18575TIP3    H277141   0.695   1.415  15.437  0.7179 -0.5399 -0.6744
18576TIP3   OH277142   6.160   5.267  12.068 -0.2184 -0.1478  0.5092
18576TIP3    H177143   6.110   5.328  12.122 -0.1576 -0.4039  0.8623
18576TIP3    H277144   6.228   5.321  12.027 -1.9366  0.6252 -1.5703
18577TIP3   OH277145   2.860   1.946   3.791 -0.6589  0.0101  0.1255
18577TIP3    H177146   2.942   1.972   3.834 -1.1630  0.6998  0.6878
18577TIP3    H277147   2.862   1.990   3.706 -0.2860 -0.2644 -0.0112
18578TIP3   OH277148   6.664   1.944   0.011  0.2261  0.0745  0.5940
18578TIP3    H177149   6.689   1.853  -0.000  0.8602  0.2405  0.5982
18578TIP3    H277150   6.731   1.980   0.070 -0.3469  0.3960  1.0648
18579TIP3   OH277151   0.783   6.155   1.583  0.0280  0.3646 -0.1151
18579TIP3    H177152   0.778   6.149   1.678 -1.9107  0.4151 -0.1677
18579TIP3    H277153   0.836   6.079   1.557 -0.9345 -0.7091  0.9167
18580TIP3   OH277154   0.577   5.252   0.399 -0.1814  0.8936  0.1751
18580TIP3    H177155   0.544   5.162   0.399  0.4706  0.6530  0.8055
18580TIP3    H277156   0.619   5.262   0.313 -0.6882  0.7677 -0.0947
18581TIP3   OH277157   0.404   3.881   0.938 -0.3320 -0.5135  0.0310
18581TIP3    H177158   0.318   3.866   0.976 -0.2104  0.6156  0.8242
18581TIP3    H277159   0.392   3.869   0.844 -1.0273 -1.7287  0.2521
18582TIP3   OH277160   1.073   5.579  12.230 -0.2568 -0.5413 -0.6046
18582TIP3    H177161   1.077   5.659  12.179 -1.4291  0.8760  1.3567
18582TIP3    H277162   1.164   5.550  12.237  0.1653  0.4875 -1.5296
18583TIP3   OH277163   6.500   5.654  17.182 -0.5008  0.7402  0.3005
18583TIP3    H177164   6.545   5.579  17.143 -0.5082  0.9891 -0.1863
18583TIP3    H277165   6.463   5.701  17.108 -1.0828  0.8511  0.6560
18584TIP3   OH277166   6.411   2.121  15.213 -0.2534 -0.5291 -0.1598
18584TIP3    H177167   6.345   2.186  15.237  0.2535 -0.9152  2.5925
18584TIP3    H277168   6.479   2.173  15.169 -0.6903  0.5009  0.3307
18585TIP3   OH277169   4.890   1.948  12.678 -0.1030 -0.2778  0.1849
18585TIP3    H177170   4.925   1.860  12.670  0.5538 -0.0836  0.7486
18585TIP3    H277171   4.795   1.937  12.680 -0.0428 -0.9218 -0.2272
18586TIP3   OH277172   4.892   0.996  15.882 -0.1084  0.1871 -0.3300
18586TIP3    H177173   4.817   0.950  15.920  0.6133 -0.4993  0.2936
18586TIP3    H277174   4.853   1.057  15.819 -1.1396 -0.7307 -0.6107
18587TIP3   OH277175   3.373   4.665   1.535 -0.3115  0.2692 -0.1081
18587TIP3    H177176   3.323   4.739   1.503 -1.2076 -0.7584 -1.2016
18587TIP3    H277177   3.358   4.596   1.469 -1.8647 -1.8258  2.2705
18588TIP3   OH277178   5.776   5.128   1.684 -0.1472  0.3092 -0.1851
18588TIP3    H177179   5.853   5.119   1.739 -0.1066  2.0878  0.0933
18588TIP3    H277180   5.714   5.064   1.719  0.9311 -0.6479  0.0287
18589TIP3   OH277181   6.042   6.685   5.370  0.2170  0.2878 -0.1450
18589TIP3    H177182   6.129   6.655   5.345 -0.2072 -0.8598 -0.3160
18589TIP3    H277183   6.007   6.724   5.290  1.1730  2.2652  0.3646
18590TIP3   OH277184   2.533   4.173  13.104 -0.1912 -0.5726 -0.1965
18590TIP3    H177185   2.513   4.132  13.188 -0.9261 -0.3290 -0.2445
18590TIP3    H277186   2.618   4.215  13.118  0.5217 -1.9814 -0.1185
18591TIP3   OH277187   0.440   2.611  15.908  0.4131 -0.8357 -0.2875
18591TIP3    H177188   0.533   2.589  15.916  0.6586 -0.8984 -2.5373
18591TIP3    H277189   0.410   2.557  15.835 -1.4322 -0.8792  0.4643
18592TIP3   OH277190   6.376   3.330  16.260 -0.2534 -0.3720 -0.1338
18592TIP3    H177191   6.396   3.259  16.322  0.2813 -0.5304 -0.4786
18592TIP3    H277192   6.284   3.316  16.236  0.1102 -1.5498 -0.9510
18593TIP3   OH277193   2.066   5.018   3.386  0.4638 -0.0472  0.0919
18593TIP3    H177194   2.045   5.074   3.311  0.6285  0.3241  0.3198
18593TIP3    H277195   2.065   4.929   3.350  0.9100  0.1555 -0.4328
18594TIP3   OH277196   3.452   6.016   6.550 -0.4148 -0.4048 -1.0702
18594TIP3    H177197   3.358   6.024   6.565 -0.0346  1.5183  0.8610
18594TIP3    H277198   3.470   6.076   6.477 -0.3934  1.3633  0.3085
18595TIP3   OH277199   3.932   6.553  15.395  0.1232  0.4791  0.2945
18595TIP3    H177200   3.886   6.602  15.327 -0.4069 -1.1901 -0.5941
18595TIP3    H277201   3.979   6.484  15.348  1.8260  0.8163  1.3966
18596TIP3   OH277202   5.423   0.700  12.193  0.2232  0.0826  0.6277
18596TIP3    H177203   5.449   0.613  12.162  0.2237  0.5392 -0.7092
18596TIP3    H277204   5.417   0.690  12.289 -1.4783 -1.8369  0.3976
18597TIP3   OH277205   1.091   3.536   1.112  0.2704  0.0733 -0.3430
18597TIP3    H177206   1.127   3.537   1.200  0.1101  0.9623 -0.2722
18597TIP3    H277207   1.152   3.589   1.061  0.8025 -1.1118 -0.9572
18598TIP3   OH277208   1.284   5.313   6.574  0.3866  0.1579 -0.0839
18598TIP3    H177209   1.312   5.404   6.571  1.4042 -0.1549 -0.5267
18598TIP3    H277210   1.219   5.305   6.505  0.7742  0.3993 -0.4814
18599TIP3   OH277211   1.888   5.495  12.745 -0.3034  0.2474  0.0345
18599TIP3    H177212   1.874   5.527  12.656  1.6304 -0.9537 -0.7698
18599TIP3    H277213   1.972   5.532  12.771 -0.0277 -0.8038  0.6816
18600TIP3   OH277214   6.228   2.619  16.380 -0.3640 -0.2854 -0.1010
18600TIP3    H177215   6.281   2.541  16.396  0.3256  0.2564  0.3660
18600TIP3    H277216   6.153   2.588  16.329 -0.0522 -1.2271 -0.0074
18601TIP3   OH277217   1.392   6.745   2.017  0.1624  0.1905 -0.5102
18601TIP3    H177218   1.345   6.761   2.098  1.3304  0.8616  0.0528
18601TIP3    H277219   1.332   6.773   1.948 -0.8982 -0.5324  0.0958
18602TIP3   OH277220   0.720   0.039   4.605  0.2803  0.1466 -0.1540
18602TIP3    H177221   0.677   0.116   4.642 -0.9626 -0.1885 -0.8463
18602TIP3    H277222   0.769   0.072   4.531 -0.2407  0.2806 -0.4421
18603TIP3   OH277223   4.365   5.788   2.534 -0.1915  0.3479  0.2074
18603TIP3    H177224   4.297   5.771   2.598  0.1239  0.8282  0.6797
18603TIP3    H277225   4.406   5.870   2.563  0.1272  0.4360 -0.4588
18604TIP3   OH277226   5.873   5.466   2.252  0.5512 -0.4350  0.1493
18604TIP3    H177227   5.922   5.524   2.309  0.3790 -0.5408  0.4067
18604TIP3    H277228   5.783   5.498   2.257  0.8420  0.8648 -1.6807
18605TIP3   OH277229   5.330   2.643   1.048 -0.4934 -0.2025 -0.2295
18605TIP3    H177230   5.343   2.636   0.953  0.5177 -0.0289 -0.1122
18605TIP3    H277231   5.351   2.556   1.082  2.0958  0.4941  0.1340
18606TIP3   OH277232   1.231   0.685   2.119  0.6064 -0.2691 -0.3808
18606TIP3    H177233   1.257   0.669   2.210 -1.1997  1.2428  0.4643
18606TIP3    H277234   1.308   0.724   2.079  0.8503  0.7740  1.0346
18607TIP3   OH277235   5.656   6.591   4.483 -0.8197  0.2346 -0.2889
18607TIP3    H177236   5.636   6.596   4.389  0.9227  0.1738 -0.6915
18607TIP3    H277237   5.684   6.501   4.497  0.0505  0.5393  0.0325
18608TIP3   OH277238   0.257   5.417   3.011 -0.1840  0.0041  0.0934
18608TIP3    H177239   0.321   5.488   3.019  0.3763 -0.6375  1.7892
18608TIP3    H277240   0.283   5.370   2.931 -0.2389  1.3530 -0.7491
18609TIP3   OH277241   0.543   4.880   5.034 -0.0820 -0.4512  0.1578
18609TIP3    H177242   0.553   4.832   5.117 -0.2894 -0.3350  0.2521
18609TIP3    H277243   0.548   4.812   4.967 -1.8024 -0.8221  0.3494
18610TIP3   OH277244   0.859   5.200   1.837 -0.1444 -0.4424  0.3832
18610TIP3    H177245   0.893   5.287   1.859  1.9225 -0.9216 -0.6393
18610TIP3    H277246   0.772   5.217   1.800  0.5655  1.2945 -0.6122
18611TIP3   OH277247   2.558   3.802   0.098  0.3587  0.0440 -0.2520
18611TIP3    H177248   2.556   3.829   0.006  0.9230  2.3122  0.3567
18611TIP3    H277249   2.650   3.809   0.123  0.4138 -1.7509  0.1969
18612TIP3   OH277250   5.293   5.885  14.427 -0.5196  0.0299 -0.0144
18612TIP3    H177251   5.385   5.859  14.436 -0.6289 -0.0774  0.8336
18612TIP3    H277252   5.244   5.804  14.439 -0.8554  0.5445  2.4814
18613TIP3   OH277253   5.302   6.620   3.316  0.8023 -0.4201  0.6207
18613TIP3    H177254   5.279   6.710   3.339  0.3112 -0.6990  1.2689
18613TIP3    H277255   5.218   6.574   3.313  1.0295 -0.8151  0.1017
18614TIP3   OH277256   5.563   1.174   0.346 -0.3857 -0.0556  0.0933
18614TIP3    H177257   5.571   1.097   0.402 -2.6382  1.0425  2.1027
18614TIP3    H277258   5.614   1.242   0.391  0.6113 -0.0190 -1.0400
18615TIP3   OH277259   6.700   2.984   1.967 -0.6253  0.0443 -0.8309
18615TIP3    H177260   6.743   2.898   1.971  0.3866  0.5688 -0.2382
18615TIP3    H277261   6.770   3.047   1.985 -1.4380  0.9762 -0.8821
18616TIP3   OH277262   2.965   2.463  11.355  0.1036  0.7093 -0.0042
18616TIP3    H177263   2.979   2.416  11.273  1.1066  1.7362 -0.4548
18616TIP3    H277264   2.905   2.408  11.405  0.5332 -0.5860 -0.8713
18617TIP3   OH277265   1.990   6.629  12.027  0.0687 -0.2627  0.1646
18617TIP3    H177266   2.016   6.622  12.119  0.2228  0.2795  0.1689
18617TIP3    H277267   1.972   6.539  12.000  0.4736 -0.4808  0.5954
18618TIP3   OH277268   4.667   4.774  14.225 -0.8805 -0.3580 -0.2368
18618TIP3    H177269   4.752   4.781  14.182 -1.2087 -0.5440 -0.9453
18618TIP3    H277270   4.677   4.822  14.307  0.8467 -2.9319  1.2174
18619TIP3   OH277271   2.365   6.760  16.376  0.0263  0.5376 -0.2677
18619TIP3    H177272   2.368   6.851  16.348 -0.2921  0.7134  0.2631
18619TIP3    H277273   2.272   6.737  16.374  0.1818 -0.0579 -1.2849
18620TIP3   OH277274   1.880   1.356   2.913  0.4926 -0.3660  0.1232
18620TIP3    H177275   1.820   1.319   2.977  2.0065 -0.4186  1.5723
18620TIP3    H277276   1.841   1.440   2.889  0.5407  0.2983  2.1674
18621TIP3   OH277277   4.890   3.503   5.131 -0.1550  0.2268 -0.0677
18621TIP3    H177278   4.929   3.508   5.219  2.0584  0.9570 -1.0055
18621TIP3    H277279   4.910   3.414   5.101 -0.1594  0.2497 -0.1387
18622TIP3   OH277280   6.728   1.186   0.855  0.2881  0.4461 -0.3684
18622TIP3    H177281   6.637   1.193   0.882  0.9024  1.6963  1.6033
18622TIP3    H277282   6.747   1.269   0.810  0.6811  0.5914  0.0531
18623TIP3   OH277283   1.696   4.829  12.035 -0.3452  0.0241  0.0820
18623TIP3    H177284   1.766   4.886  12.004 -1.0681  1.7802  1.4553
18623TIP3    H277285   1.666   4.782  11.957  1.6963 -0.0810 -0.6920
18624TIP3   OH277286   4.455   4.863   3.843  0.1382 -0.4945  0.1400
18624TIP3    H177287   4.382   4.819   3.800  1.1398 -0.8352 -1.2798
18624TIP3    H277288   4.452   4.832   3.934 -1.4416 -0.5145  0.1152
18625TIP3   OH277289   3.647   4.697   4.174 -0.0574 -0.2786  0.1302
18625TIP3    H177290   3.737   4.729   4.176 -0.1685  0.0465 -0.0009
18625TIP3    H277291   3.600   4.755   4.234 -0.2063 -0.3732  0.1044
18626TIP3   OH277292   3.658   1.562  13.037 -0.6033  0.4009 -0.0252
18626TIP3    H177293   3.626   1.652  13.038 -0.2963  0.5060  0.6527
18626TIP3    H277294   3.656   1.535  13.128  1.2980  0.4404  0.0712
18627TIP3   OH277295   3.830   1.958   0.523 -0.7539 -0.3554  0.8506
18627TIP3    H177296   3.775   1.989   0.595  0.8094  0.5176  1.7284
18627TIP3    H277297   3.863   2.038   0.483 -0.5769 -0.8595 -0.0348
18628TIP3   OH277298   0.308   0.624  14.890 -0.3162  0.1123  0.3793
18628TIP3    H177299   0.334   0.619  14.982  0.4412  1.6200  0.2709
18628TIP3    H277300   0.345   0.706  14.858  1.1957 -1.3195 -1.8459
18629TIP3   OH277301   2.799   3.313   4.302 -0.0577  0.2309  0.0464
18629TIP3    H177302   2.880   3.301   4.352  1.8047  0.5779 -2.6963
18629TIP3    H277303   2.766   3.399   4.329 -0.1515 -0.3446  1.9353
18630TIP3   OH277304   1.989   4.696  17.017  0.1990  0.0673  0.0901
18630TIP3    H177305   2.051   4.723  17.085 -0.5388  2.8554 -0.2493
18630TIP3    H277306   2.044   4.677  16.941  0.8170 -0.3922  0.6299
18631TIP3   OH277307   5.214   1.667  15.571 -0.3087 -0.4903 -0.6290
18631TIP3    H177308   5.226   1.762  15.571  0.7744 -0.6027  0.6231
18631TIP3    H277309   5.245   1.639  15.484  0.0501  0.2172 -0.7379
18632TIP3   OH277310   0.880   6.560   1.156  0.2548  0.0119 -0.3823
18632TIP3    H177311   0.903   6.515   1.237 -0.5970  0.8785  0.3788
18632TIP3    H277312   0.786   6.542   1.144 -0.2335  1.8901  0.2085
18633TIP3   OH277313   5.093   1.246  17.107 -0.1029 -0.2321 -0.3562
18633TIP3    H177314   5.027   1.207  17.164  1.2847 -1.5461  0.4509
18633TIP3    H277315   5.055   1.241  17.019 -1.4938  0.0499  0.2096
18634TIP3   OH277316   0.990   5.305  13.446  0.2366 -0.8546 -0.1702
18634TIP3    H177317   0.923   5.321  13.512  1.7376  1.6389  0.8801
18634TIP3    H277318   0.980   5.377  13.384  1.2225 -1.0570 -0.5805
18635TIP3   OH277319   2.871   1.032  16.865  0.1213 -0.6952 -0.9908
18635TIP3    H177320   2.945   1.062  16.812  0.7448 -1.8036 -0.7895
18635TIP3    H277321   2.912   0.983  16.937 -0.1681  4.7570  3.6430
18636TIP3   OH277322   1.089   1.230   6.313  0.1059 -0.3819  0.0576
18636TIP3    H177323   1.038   1.301   6.274  1.2598 -0.9141 -2.6007
18636TIP3    H277324   1.137   1.272   6.385 -2.0502  0.6483  0.9800
18637TIP3   OH277325   6.763   5.106   2.748 -0.3534 -0.1428 -0.7660
18637TIP3    H177326   6.812   5.107   2.830  0.5711 -0.4578 -1.3078
18637TIP3    H277327   6.828   5.084   2.681 -1.2607 -0.7055 -1.4805
18638TIP3   OH277328   4.835   2.825  16.117  0.3701  0.3503 -0.5124
18638TIP3    H177329   4.801   2.792  16.034  1.2784 -1.8592 -0.0784
18638TIP3    H277330   4.846   2.747  16.172 -0.2924  1.7426  1.7488
18639TIP3   OH277331   3.112   5.983  15.804 -0.1384  0.1560 -0.0054
18639TIP3    H177332   3.183   6.016  15.859 -1.1740  3.4625 -0.4093
18639TIP3    H277333   3.053   5.939  15.865  1.0075 -0.4012  0.7333
18640TIP3   OH277334   4.909   5.470   3.146 -0.2675  0.1255 -0.1245
18640TIP3    H177335   5.002   5.494   3.138 -0.5327  1.6773  0.9457
18640TIP3    H277336   4.866   5.551   3.174 -1.6586 -1.0434  1.2735
18641TIP3   OH277337   0.740   4.843   1.690 -0.4301  0.2457 -0.4319
18641TIP3    H177338   0.832   4.866   1.676  0.0846 -1.7524 -0.5202
18641TIP3    H277339   0.729   4.759   1.647 -2.0390 -0.0715  0.5235
18642TIP3   OH277340   4.640   2.482   2.981 -0.3703 -0.3918  0.6809
18642TIP3    H177341   4.563   2.426   2.979 -1.0865  0.4957 -2.0872
18642TIP3    H277342   4.605   2.571   2.970  0.9764  0.1466  0.5023
18643TIP3   OH277343   0.403   3.055  14.345  0.3411 -0.6955 -0.5558
18643TIP3    H177344   0.452   3.005  14.410 -0.3029 -0.5690  0.0397
18643TIP3    H277345   0.405   3.145  14.377  3.3982  0.1824 -2.7508
18644TIP3   OH277346   1.294   4.142  17.118 -0.2110 -0.0597 -0.5242
18644TIP3    H177347   1.267   4.078  17.183 -2.5682 -0.3565 -1.6979
18644TIP3    H277348   1.368   4.187  17.158  0.7072 -2.5964  0.8708
18645TIP3   OH277349   1.783   5.581   0.492 -0.2499 -0.1363 -0.0032
18645TIP3    H177350   1.758   5.498   0.533  0.9382  0.6508  2.5052
18645TIP3    H277351   1.746   5.576   0.403 -0.5848 -3.1345  0.1989
18646TIP3   OH277352   4.582   3.759   0.506 -0.7719 -0.5493  0.2754
18646TIP3    H177353   4.599   3.668   0.532 -0.9794 -0.5855  0.2897
18646TIP3    H277354   4.513   3.751   0.439 -2.4082 -0.2502  1.8658
18647TIP3   OH277355   2.915   5.218   5.968 -0.1496 -0.2421  0.1518
18647TIP3    H177356   2.893   5.161   5.894 -0.4791 -0.4393  0.4009
18647TIP3    H277357   3.011   5.216   5.971 -0.1532 -0.7825  0.1511
18648TIP3   OH277358   3.353   6.300   3.355 -0.8917 -0.4295 -0.0966
18648TIP3    H177359   3.411   6.277   3.428 -1.6528 -0.8265  0.4050
18648TIP3    H277360   3.267   6.268   3.382 -0.8150 -2.6572 -2.1146
18649TIP3   OH277361   5.810   6.529   6.779 -0.2342  0.1327 -0.9572
18649TIP3    H177362   5.843   6.556   6.693  0.4233 -1.2641 -1.1751
18649TIP3    H277363   5.882   6.480   6.818  0.0674  2.0484  1.0912
18650TIP3   OH277364   1.149   5.177   1.852  0.4505  0.1149 -0.5429
18650TIP3    H177365   1.188   5.253   1.808  0.0587 -0.0425 -1.1677
18650TIP3    H277366   1.061   5.171   1.816  0.9078 -1.4070 -1.4727
18651TIP3   OH277367   0.369   5.274  15.654 -0.8266 -0.4583 -0.0278
18651TIP3    H177368   0.408   5.267  15.741  0.1455 -0.4823 -0.4598
18651TIP3    H277369   0.302   5.206  15.653 -0.6448 -0.6539  0.5954
18652TIP3   OH277370   0.840   4.958  13.240 -0.0127 -0.6126 -0.0816
18652TIP3    H177371   0.904   4.958  13.169  2.8525  1.8274  2.2574
18652TIP3    H277372   0.808   5.048  13.244 -3.0928 -1.5719 -0.5970
18653TIP3   OH277373   5.839   2.348   4.060  0.5078 -0.7576  0.3358
18653TIP3    H177374   5.769   2.313   4.116 -0.4977  1.8674  0.8569
18653TIP3    H277375   5.883   2.270   4.026 -2.5266 -2.5808  0.1589
18654TIP3   OH277376   2.959   1.103   1.113 -0.3228  0.2750  0.0917
18654TIP3    H177377   2.942   1.041   1.042 -1.0202  0.6302 -0.0551
18654TIP3    H277378   3.054   1.100   1.125 -0.1903  0.2613 -0.8971
18655TIP3   OH277379   4.682   1.387   3.231 -0.2248 -0.0444  0.4402
18655TIP3    H177380   4.713   1.352   3.314 -2.7785 -0.6213  1.2479
18655TIP3    H277381   4.650   1.474   3.252 -1.6877 -0.5198  0.2993
18656TIP3   OH277382   2.801   4.077  15.739  0.0789 -0.6536  0.1987
18656TIP3    H177383   2.876   4.120  15.780 -1.6130  1.0889  1.6791
18656TIP3    H277384   2.839   4.003  15.691  2.9477  1.2956 -0.8200
18657TIP3   OH277385   4.212   0.855  17.209  0.4617 -0.2122  0.8657
18657TIP3    H177386   4.181   0.934  17.164  0.2166 -0.4554  0.5999
18657TIP3    H277387   4.299   0.840  17.174  1.0973  0.7377  1.9512
18658TIP3   OH277388   0.000   0.131   0.815  0.4505 -0.5103  0.2993
18658TIP3    H177389  -0.081   0.171   0.845  0.8076 -1.6133  3.0790
18658TIP3    H277390  -0.018   0.037   0.815  0.3546 -0.6644 -3.7578
18659TIP3   OH277391   3.263   5.222  13.296 -0.1763  0.2543  0.0572
18659TIP3    H177392   3.238   5.297  13.243 -2.2729 -0.9223 -0.7477
18659TIP3    H277393   3.326   5.174  13.242  1.2581  1.4370  0.6223
18660TIP3   OH277394   0.567   0.039   3.368 -0.2754 -0.0680  0.4721
18660TIP3    H177395   0.644  -0.017   3.375 -1.2002 -1.6159 -1.0639
18660TIP3    H277396   0.527   0.015   3.285 -1.1623  2.3461  0.1119
18661TIP3   OH277397   4.432   5.523  14.359  0.5577 -0.7341  0.4391
18661TIP3    H177398   4.369   5.451  14.365 -0.4260  0.0191 -0.5118
18661TIP3    H277399   4.502   5.488  14.305  0.6169 -1.3369  0.8922
18662TIP3   OH277400   3.524   3.174  11.942 -0.0905 -0.2926  0.3223
18662TIP3    H177401   3.526   3.265  11.913  0.6913  0.0805  1.4745
18662TIP3    H277402   3.432   3.149  11.937 -0.5532  1.0652  1.4454
18663TIP3   OH277403   1.400   6.523   5.641  0.2416 -0.2384 -0.3420
18663TIP3    H177404   1.313   6.487   5.628  0.4134  0.0193 -2.4962
18663TIP3    H277405   1.416   6.577   5.564  0.2866  3.9932  2.3123
18664TIP3   OH277406   0.113   5.955  13.958  0.9248  0.0900 -0.0009
18664TIP3    H177407   0.182   5.912  14.008 -2.0379 -2.1491  2.5407
18664TIP3    H277408   0.091   6.033  14.009  0.2222 -0.3409  0.3770
18665TIP3   OH277409   1.886   2.417  16.418  0.8163  0.1471  0.4553
18665TIP3    H177410   1.819   2.446  16.479  0.4773  0.7911 -0.2076
18665TIP3    H277411   1.960   2.394  16.473  0.3535  0.2496  1.1391
18666TIP3   OH277412   6.148   1.751  12.660  0.2167 -0.2455  0.1715
18666TIP3    H177413   6.063   1.761  12.703  0.6877 -0.7158  1.2463
18666TIP3    H277414   6.212   1.773  12.728  0.9504  1.2326 -0.9440
18667TIP3   OH277415   0.287   1.899  14.814  0.2632 -0.6452 -0.4151
18667TIP3    H177416   0.247   1.857  14.891 -0.6987  0.1756 -0.4577
18667TIP3    H277417   0.224   1.966  14.787  1.5140  0.4613 -0.6850
18668TIP3   OH277418   6.733   1.980  11.725  0.6831  0.1959  0.4253
18668TIP3    H177419   6.755   1.890  11.752  0.9075 -0.2852 -1.2473
18668TIP3    H277420   6.750   2.033  11.803  0.0549 -1.2760  1.6121
18669TIP3   OH277421   0.424   4.007   2.075  0.3420 -0.1626 -0.2112
18669TIP3    H177422   0.406   3.913   2.081  0.0598 -0.2146 -1.5533
18669TIP3    H277423   0.364   4.047   2.139 -1.7044 -0.6796 -1.7186
18670TIP3   OH277424   2.888   4.876  17.151 -0.4825  0.4367 -0.1575
18670TIP3    H177425   2.909   4.785  17.169  0.3542  0.6059 -0.2204
18670TIP3    H277426   2.893   4.919  17.237  1.8533  0.9251 -0.4725
18671TIP3   OH277427   5.600   3.427   1.080 -0.1401 -0.7057  0.2201
18671TIP3    H177428   5.522   3.375   1.101 -0.2918 -1.1021 -1.1710
18671TIP3    H277429   5.637   3.384   1.003  0.1828  0.7757 -0.4964
18672TIP3   OH277430   0.861   3.223  15.138  0.0221  0.4501 -0.0385
18672TIP3    H177431   0.808   3.249  15.213  0.2674  2.1320 -0.4123
18672TIP3    H277432   0.943   3.270  15.149  0.3001  0.2354 -1.0489
18673TIP3   OH277433   5.141   5.966   5.418 -0.3293  0.3231 -0.0006
18673TIP3    H177434   5.236   5.969   5.430 -0.3934  0.7153  0.4361
18673TIP3    H277435   5.106   5.953   5.506 -0.7774  2.3619  0.1771
18674TIP3   OH277436   3.861   1.981   3.150  0.5940  0.0441 -0.5455
18674TIP3    H177437   3.795   2.050   3.144  0.9082  0.3721 -0.2595
18674TIP3    H277438   3.815   1.908   3.190 -0.2456 -0.5660 -2.5046
18675TIP3   OH277439   4.269   6.783   5.033  0.1021  0.2772 -0.7552
18675TIP3    H177440   4.287   6.693   5.005  0.3558  0.7799 -2.2990
18675TIP3    H277441   4.177   6.797   5.009 -0.3232  0.0646  0.6086
18676TIP3   OH277442   2.198   6.439  15.476 -0.4949  0.2146 -0.4884
18676TIP3    H177443   2.131   6.484  15.425 -0.8759 -1.4241 -1.5318
18676TIP3    H277444   2.150   6.396  15.547 -0.2136  0.9264  0.1512
18677TIP3   OH277445   2.823   0.817   6.627  0.1740  0.5253 -0.4447
18677TIP3    H177446   2.793   0.857   6.708  0.3103 -0.8644  0.3225
18677TIP3    H277447   2.832   0.890   6.566 -0.6142  1.5042  0.5730
18678TIP3   OH277448   2.530   2.184  15.339 -0.0163  0.4324  0.2509
18678TIP3    H177449   2.553   2.092  15.330 -1.9888 -0.0765  0.0066
18678TIP3    H277450   2.462   2.185  15.407 -0.8212  1.5528 -0.5386
18679TIP3   OH277451   6.498   1.588  14.236  0.2836  0.0027 -0.0515
18679TIP3    H177452   6.491   1.534  14.157  1.0486  0.2336 -0.2925
18679TIP3    H277453   6.547   1.665  14.208 -3.2232  2.3266 -0.4684
18680TIP3   OH277454   6.022   0.266   3.481 -0.1099 -0.3636 -0.2136
18680TIP3    H177455   6.107   0.267   3.524 -0.0017  1.0187 -0.4103
18680TIP3    H277456   5.999   0.359   3.471 -0.9085 -0.6808 -1.5841
18681TIP3   OH277457   5.050   0.071  14.207 -0.8300 -0.2078 -0.2347
18681TIP3    H177458   5.082  -0.005  14.255 -1.5472  0.0175  0.6298
18681TIP3    H277459   5.116   0.139  14.223  0.3586 -0.9051 -1.8647
18682TIP3   OH277460   6.294   1.169   4.837  0.3925  0.5603  0.2417
18682TIP3    H177461   6.326   1.242   4.889 -1.1002  2.1587 -0.9839
18682TIP3    H277462   6.246   1.114   4.900  1.4079  0.6720  1.1448
18683TIP3   OH277463   4.408   4.166   0.952 -0.3497 -0.2856 -0.5109
18683TIP3    H177464   4.368   4.244   0.990  0.9793 -0.2718  0.9245
18683TIP3    H277465   4.334   4.106   0.940 -1.3392  1.0325 -1.3299
18684TIP3   OH277466   2.920   3.819  16.183 -0.0859  0.3704  0.3101
18684TIP3    H177467   2.987   3.847  16.120 -0.5086 -0.2921 -0.4595
18684TIP3    H277468   2.892   3.733  16.151 -2.3729  1.2376 -0.2923
18685TIP3   OH277469   2.577   3.791   5.899  0.5848 -0.3597 -0.0620
18685TIP3    H177470   2.517   3.852   5.857  1.5836  1.8845  1.5789
18685TIP3    H277471   2.544   3.783   5.989  0.0347 -2.9200 -0.4258
18686TIP3   OH277472   4.966   2.420   3.070 -0.0603 -0.0890 -0.4107
18686TIP3    H177473   5.000   2.489   3.128 -1.4874 -0.2019  0.6253
18686TIP3    H277474   4.963   2.460   2.984  1.8389  0.1880 -0.4002
18687TIP3   OH277475   1.988   6.130   1.780 -0.6833 -0.2048  0.4535
18687TIP3    H177476   1.978   6.035   1.772 -0.8348 -0.0606 -2.2479
18687TIP3    H277477   1.899   6.163   1.786 -0.6608 -0.2046  0.7784
18688TIP3   OH277478   4.251   4.540   1.950 -0.0620 -0.3270 -0.3217
18688TIP3    H177479   4.221   4.602   2.017 -0.9050 -1.3352  0.2609
18688TIP3    H277480   4.341   4.519   1.975  0.5134  1.2275 -0.9683
18689TIP3   OH277481   5.004   1.743   0.377  0.0239  0.3013 -0.5197
18689TIP3    H177482   4.985   1.782   0.292  0.1714  0.2420 -0.5809
18689TIP3    H277483   5.096   1.716   0.371  0.2311  0.8846 -0.1164
18690TIP3   OH277484   3.322   4.970  17.112  0.4038 -0.5068 -0.0729
18690TIP3    H177485   3.393   5.029  17.138 -0.8800  1.2363 -0.2797
18690TIP3    H277486   3.318   4.905  17.182  1.4964 -0.0089  0.4889
18691TIP3   OH277487   2.694   0.055   3.495 -0.3476 -0.6915 -0.1986
18691TIP3    H177488   2.645   0.137   3.502 -0.7605 -0.8452 -1.2364
18691TIP3    H277489   2.786   0.082   3.496 -0.4487 -0.3387  0.8907
18692TIP3   OH277490   0.944   4.728  13.491  0.5847 -0.0794  0.0590
18692TIP3    H177491   0.992   4.677  13.557  2.3036 -0.5723 -1.4683
18692TIP3    H277492   0.909   4.662  13.431  0.4804  0.4213 -0.4343
18693TIP3   OH277493   3.410   4.674   4.583 -0.5866  0.7190  0.6212
18693TIP3    H177494   3.437   4.599   4.530  1.7725  1.6152  0.4295
18693TIP3    H277495   3.318   4.657   4.604 -0.8673 -0.9093 -1.5998
18694TIP3   OH277496   1.687   2.886  17.122 -0.5656  0.5457  0.1642
18694TIP3    H177497   1.655   2.965  17.164 -0.8972 -0.3094  1.6062
18694TIP3    H277498   1.609   2.831  17.110 -0.4697  0.7135 -1.5389
18695TIP3   OH277499   4.723   2.276   4.271  0.2885 -0.1503 -0.0750
18695TIP3    H177500   4.698   2.218   4.342  0.4820 -0.9481 -0.6445
18695TIP3    H277501   4.707   2.226   4.191  0.0148  0.7507 -0.6036
18696TIP3   OH277502   1.645   2.637   6.320  0.4430 -0.4274 -0.3126
18696TIP3    H177503   1.660   2.564   6.381 -0.1263 -0.7938 -0.6078
18696TIP3    H277504   1.557   2.669   6.341  0.8427  0.4388  0.0837
18697TIP3   OH277505   4.575   4.564  14.108  0.1698  0.6804  0.2397
18697TIP3    H177506   4.580   4.638  14.169 -0.1936  0.7651  0.1679
18697TIP3    H277507   4.666   4.537  14.096  0.4903  2.2230 -1.0741
18698TIP3   OH277508   2.947   4.571   5.950  0.4164 -0.0248 -0.1092
18698TIP3    H177509   2.917   4.593   5.862 -2.0946 -0.3083  0.5743
18698TIP3    H277510   2.933   4.477   5.957  0.5397  0.0048  0.5983
18699TIP3   OH277511   5.680   6.429  16.085  0.3429  0.6210 -0.3432
18699TIP3    H177512   5.597   6.413  16.129 -0.0046  3.2653  0.0845
18699TIP3    H277513   5.746   6.404  16.150 -0.1535  1.6899  0.6050
18700TIP3   OH277514   4.306   3.876   2.856 -0.1025  0.4376 -0.5027
18700TIP3    H177515   4.259   3.850   2.936  2.3793  3.4004  2.1955
18700TIP3    H277516   4.393   3.836   2.866 -0.0216  0.1555 -2.1894
18701TIP3   OH277517   0.020   5.408   0.373 -0.0979 -0.2364  0.1847
18701TIP3    H177518   0.020   5.433   0.466 -0.4622 -2.0899  0.7071
18701TIP3    H277519  -0.072   5.390   0.353  0.2003 -1.5388 -0.0529
18702TIP3   OH277520   6.527   3.574  11.188  0.0421  0.4541 -0.6166
18702TIP3    H177521   6.582   3.622  11.126 -1.0993  0.5004 -1.6121
18702TIP3    H277522   6.441   3.572  11.148 -0.1525 -1.6917 -0.2266
18703TIP3   OH277523   3.772   5.998   6.845 -0.4211 -0.5573 -0.1756
18703TIP3    H177524   3.866   6.002   6.864 -1.1666  0.9229  4.5008
18703TIP3    H277525   3.758   6.070   6.783  1.4336 -0.2066 -0.2563
18704TIP3   OH277526   2.721   2.354  11.271  0.7169 -0.2048 -0.2533
18704TIP3    H177527   2.698   2.263  11.289  1.0886 -0.4139 -0.7656
18704TIP3    H277528   2.639   2.396  11.248  0.5826 -0.4853 -0.2898
18705TIP3   OH277529   5.942   2.670  12.961 -0.1559  0.1485  0.6360
18705TIP3    H177530   6.037   2.671  12.962 -0.0844  0.5889 -1.5151
18705TIP3    H277531   5.917   2.755  12.925 -1.3555 -0.1424  0.7110
18706TIP3   OH277532   2.375   1.553   2.986  1.4067  0.7066  0.1753
18706TIP3    H177533   2.412   1.538   3.073  1.4263 -1.6885 -0.1768
18706TIP3    H277534   2.350   1.645   2.986  1.9292  0.9090  2.5103
18707TIP3   OH277535   4.492   6.029   3.744  0.0225  0.1136  0.1675
18707TIP3    H177536   4.424   6.011   3.809  1.4636  0.2172  1.7639
18707TIP3    H277537   4.488   6.124   3.730  0.7106  0.3356  1.3182
18708TIP3   OH277538   1.752   1.539   4.677  0.0884 -0.3452 -0.0199
18708TIP3    H177539   1.738   1.633   4.666 -1.5820 -0.5645 -0.0058
18708TIP3    H277540   1.691   1.513   4.746  1.1924 -1.2847  0.6367
18709TIP3   OH277541   4.030   0.460  16.522 -0.7933 -0.2832 -0.5445
18709TIP3    H177542   4.109   0.437  16.569  0.5074  1.9004 -1.5225
18709TIP3    H277543   4.030   0.403  16.445 -1.2105 -1.5761  0.3818
18710TIP3   OH277544   6.135   3.950  12.509  0.0686 -0.6366 -0.9535
18710TIP3    H177545   6.081   3.958  12.431  0.1774 -0.4412 -1.0102
18710TIP3    H277546   6.152   4.040  12.537 -0.5165 -0.7143 -0.3194
18711TIP3   OH277547   6.160   6.171   2.684  1.1976  0.0648  0.0580
18711TIP3    H177548   6.158   6.083   2.721  1.3572  0.0090 -0.0621
18711TIP3    H277549   6.244   6.176   2.639  0.6375 -0.1903 -1.0565
18712TIP3   OH277550   3.298   5.740  15.661 -0.0058  0.1608 -0.2783
18712TIP3    H177551   3.374   5.743  15.602 -0.7606  0.1374 -1.2826
18712TIP3    H277552   3.223   5.735  15.602 -0.7830  0.0332  0.7050
18713TIP3   OH277553   0.027   6.090   0.505  1.0123  0.2524  0.9967
18713TIP3    H177554   0.035   6.137   0.423  1.6048  0.9992  1.4684
18713TIP3    H277555   0.102   6.031   0.506 -0.8982 -2.4225 -0.6185
18714TIP3   OH277556   0.143   0.773  12.106 -0.0191 -0.1649 -0.2169
18714TIP3    H177557   0.231   0.787  12.140 -0.3144  1.5440 -0.0677
18714TIP3    H277558   0.086   0.779  12.183 -0.2244 -2.0766 -0.1839
18715TIP3   OH277559   4.004   3.722  15.200 -0.2355 -0.0531  0.2939
18715TIP3    H177560   4.024   3.632  15.177  0.8917 -0.1736  1.6015
18715TIP3    H277561   4.003   3.769  15.117  1.3055 -0.8872 -0.2319
18716TIP3   OH277562   0.602   0.174  14.514  0.0240  0.2755  0.7688
18716TIP3    H177563   0.657   0.146  14.587  0.3739  0.1468  0.4589
18716TIP3    H277564   0.619   0.267  14.505  1.0321  0.0272 -0.0284
18717TIP3   OH277565   2.911   4.684   4.165 -0.3971 -0.1382  0.2801
18717TIP3    H177566   2.819   4.707   4.177 -0.9111 -1.0259 -1.6006
18717TIP3    H277567   2.909   4.603   4.114  1.4378 -0.0867  0.0593
18718TIP3   OH277568   0.784   2.314   1.666 -0.7374 -0.2024  0.3048
18718TIP3    H177569   0.798   2.386   1.727 -1.6456 -1.4636  2.1118
18718TIP3    H277570   0.836   2.242   1.702 -0.8806 -0.8398 -0.7200
18719TIP3   OH277571   1.339   6.448   1.322 -0.0452  0.3168 -0.2946
18719TIP3    H177572   1.299   6.530   1.292 -0.4869  0.1976 -0.0392
18719TIP3    H277573   1.399   6.423   1.251 -0.6465  0.3430 -0.8204
18720TIP3   OH277574   5.219   0.251  14.358  0.2149 -0.0100 -0.5704
18720TIP3    H177575   5.241   0.243  14.451  0.7201 -0.2194 -0.7031
18720TIP3    H277576   5.174   0.335  14.351  0.2621  0.0522 -0.1540
18721TIP3   OH277577   6.064   1.611   1.360 -0.0619  0.2961 -0.0909
18721TIP3    H177578   6.138   1.575   1.409  0.2376  0.4236 -0.4455
18721TIP3    H277579   6.061   1.703   1.385  0.5987  0.5570 -0.9159
18722TIP3   OH277580   1.079   0.240  16.643 -0.2162 -0.0394  0.1674
18722TIP3    H177581   1.082   0.294  16.564  0.4832  0.9327  0.8448
18722TIP3    H277582   1.054   0.153  16.611  1.2153  0.0295 -1.2910
18723TIP3   OH277583   6.777   3.646   0.626  0.1934 -0.2847  0.2346
18723TIP3    H177584   6.688   3.673   0.647  0.1758  0.8227 -1.0867
18723TIP3    H277585   6.825   3.655   0.708 -0.3101  1.8637  0.3528
18724TIP3   OH277586   2.903   1.595  11.458 -0.6341  0.0597 -0.3596
18724TIP3    H177587   2.819   1.625  11.491 -0.3827  0.4309 -0.0376
18724TIP3    H277588   2.955   1.675  11.450  0.3984 -0.3648  1.4944
18725TIP3   OH277589   4.849   0.736   4.888 -0.1033  0.5061 -0.0358
18725TIP3    H177590   4.880   0.825   4.905 -1.2676  1.2805 -1.7362
18725TIP3    H277591   4.754   0.740   4.899 -0.0667 -0.8505  1.0650
18726TIP3   OH277592   0.469   4.975   4.646  0.2330  0.0534  0.2995
18726TIP3    H177593   0.481   5.052   4.702 -1.4047  0.6506 -0.1172
18726TIP3    H277594   0.554   4.930   4.649  0.4915  0.5620  2.4841
18727TIP3   OH277595   4.874   4.895   4.559 -0.2091 -0.2390  0.2394
18727TIP3    H177596   4.923   4.971   4.592 -0.9591  0.2113  0.3513
18727TIP3    H277597   4.907   4.821   4.610 -0.7108  0.3061  1.3996
18728TIP3   OH277598   1.125   2.556   3.326  0.0338 -0.0917  0.0810
18728TIP3    H177599   1.213   2.586   3.346 -0.1756 -0.4594  1.7161
18728TIP3    H277600   1.076   2.636   3.307  0.1920  0.3470  1.4173
18729TIP3   OH277601   1.633   2.466  16.990 -0.5034  0.4839 -0.0034
18729TIP3    H177602   1.682   2.462  17.072 -2.0438  1.8636  1.0506
18729TIP3    H277603   1.700   2.478  16.923  0.7612 -0.1840  1.0833
18730TIP3   OH277604   6.300   4.308  15.317 -0.1130 -0.1304  0.2471
18730TIP3    H177605   6.393   4.327  15.332 -0.1316  1.3588 -1.2978
18730TIP3    H277606   6.297   4.269  15.230 -1.1934  2.5181 -0.9908
18731TIP3   OH277607   1.867   2.015   2.642  0.2113 -0.3159 -0.2578
18731TIP3    H177608   1.814   2.069   2.699 -1.1499 -2.3041  0.4768
18731TIP3    H277609   1.864   2.059   2.557 -0.7758  0.7629  0.3134
18732TIP3   OH277610   4.118   5.158   0.159 -0.1646  0.3758  0.0659
18732TIP3    H177611   4.047   5.127   0.216  2.5280 -2.7081  2.0775
18732TIP3    H277612   4.138   5.083   0.103  1.6812  1.0392 -0.2303
18733TIP3   OH277613   2.114   0.085  11.654  0.1758  0.0175 -0.0295
18733TIP3    H177614   2.022   0.064  11.640 -1.0348  3.2169  1.9138
18733TIP3    H277615   2.147   0.015  11.710 -1.7182 -0.0922  1.0314
18734TIP3   OH277616   2.840   3.068   1.157 -0.1822  0.0171 -0.5670
18734TIP3    H177617   2.780   3.037   1.088 -2.4391  1.2692  0.6978
18734TIP3    H277618   2.804   3.031   1.238  0.9694  0.5617  0.2121
18735TIP3   OH277619   3.359   3.883   1.836  0.0730 -0.1208 -0.0885
18735TIP3    H177620   3.337   3.790   1.838  1.4581 -0.4914  2.1311
18735TIP3    H277621   3.423   3.892   1.766 -0.3812 -0.7378 -0.5914
18736TIP3   OH277622   2.344   0.265   4.260  0.3290  0.5558 -0.2690
18736TIP3    H177623   2.354   0.333   4.193  3.2753 -0.8740 -1.4724
18736TIP3    H277624   2.413   0.283   4.323 -1.1457  0.6863  1.3806
18737TIP3   OH277625   0.993   0.254   3.472  0.3799 -0.1568 -0.1506
18737TIP3    H177626   0.970   0.339   3.508  1.1965 -0.7883  2.0737
18737TIP3    H277627   0.931   0.193   3.512  0.8944 -0.8254 -0.3475
18738TIP3   OH277628   0.270   0.729  12.405  0.9422  0.1091  0.1767
18738TIP3    H177629   0.271   0.818  12.439 -1.1847  0.1285  0.2803
18738TIP3    H277630   0.292   0.674  12.480  2.5952  0.5081  0.0367
18739TIP3   OH277631   5.206   5.374   5.430  0.0292  0.0447 -0.5419
18739TIP3    H177632   5.261   5.309   5.387  0.9144 -0.0786  0.7172
18739TIP3    H277633   5.198   5.343   5.520 -1.2917  0.5883 -0.4505
18740TIP3   OH277634   4.238   5.670  12.456 -0.3657  0.1370  0.5855
18740TIP3    H177635   4.255   5.623  12.538  1.4020  0.2353  0.3040
18740TIP3    H277636   4.143   5.665  12.445 -0.7115  0.4337  2.8403
18741TIP3   OH277637   5.101   1.601  13.794  0.1362  0.3321 -0.1896
18741TIP3    H177638   5.091   1.525  13.737 -2.1570  0.4948 -0.1121
18741TIP3    H277639   5.161   1.659  13.747 -0.4699 -0.2232 -1.7011
18742TIP3   OH277640   2.048   5.600   0.388 -0.4631  0.1158 -0.1994
18742TIP3    H177641   2.018   5.551   0.312 -0.9866 -0.7936  0.5720
18742TIP3    H277642   1.986   5.578   0.457 -0.0369  0.9773  0.4859
18743TIP3   OH277643   2.341   2.887  14.864  0.2052 -0.3817  0.1341
18743TIP3    H177644   2.257   2.926  14.885 -0.7924 -1.3520 -1.7868
18743TIP3    H277645   2.405   2.956  14.880 -1.2249  1.2207 -0.7720
18744TIP3   OH277646   1.833   6.417   0.770 -0.5321 -0.0873 -0.1038
18744TIP3    H177647   1.867   6.328   0.759  1.4079  0.4489  1.1211
18744TIP3    H277648   1.899   6.462   0.822 -1.9044  1.8356  0.0864
18745TIP3   OH277649   5.717   2.372  14.560 -0.3320  0.2217  0.2945
18745TIP3    H177650   5.731   2.358  14.654 -0.2691 -0.0224  0.2488
18745TIP3    H277651   5.802   2.401  14.527  0.0324 -1.0439  0.0576
18746TIP3   OH277652   1.023   1.152   2.182  0.0622 -0.4976  0.3802
18746TIP3    H177653   0.934   1.163   2.148  0.1231  1.5083  0.7237
18746TIP3    H277654   1.015   1.087   2.252 -1.1039 -0.4355  0.3155
18747TIP3   OH277655   4.071   2.743  13.312  0.4206  0.5195  0.4715
18747TIP3    H177656   4.144   2.762  13.253  0.2488  1.7132  0.6081
18747TIP3    H277657   4.033   2.662  13.279  1.3768  0.2633 -0.0271
18748TIP3   OH277658   4.183   6.173  10.129  0.3946  0.5116 -0.3464
18748TIP3    H177659   4.268   6.181  10.173 -0.1510 -0.7726  1.0053
18748TIP3    H277660   4.135   6.109  10.180 -1.1153  0.6055 -1.5684
18749TIP3   OH277661   5.097   5.932   0.269 -0.2149  0.2190  0.0374
18749TIP3    H177662   5.108   6.026   0.253 -0.2088  0.5824  1.9439
18749TIP3    H277663   5.186   5.898   0.273 -0.1903  0.3077  0.2557
18750TIP3   OH277664   2.694   3.151  14.199  0.0068 -0.4653  0.6405
18750TIP3    H177665   2.689   3.115  14.287  0.8095 -1.0357  0.4571
18750TIP3    H277666   2.654   3.238  14.207  0.0202 -0.5311  1.5457
18751TIP3   OH277667   5.908   2.979   3.315  0.0565  0.3437  0.0955
18751TIP3    H177668   5.826   2.995   3.267 -0.2274  2.2359  1.0723
18751TIP3    H277669   5.880   2.971   3.406  0.6444 -2.6193  0.1096
18752TIP3   OH277670   4.034   1.778  14.389  0.4554 -0.2103 -0.0488
18752TIP3    H177671   4.041   1.785  14.294 -1.3746  0.0101 -0.2155
18752TIP3    H277672   4.073   1.693  14.410  0.4774 -0.4654 -1.0617
18753TIP3   OH277673   0.901   4.414  13.847  0.4328  0.8564  0.9941
18753TIP3    H177674   0.852   4.479  13.898 -0.3860  1.1267 -0.0927
18753TIP3    H277675   0.917   4.342  13.908 -0.0936  1.3711  1.7568
18754TIP3   OH277676   6.066   6.418   5.152 -0.3051 -0.2854 -0.0520
18754TIP3    H177677   6.104   6.502   5.176 -1.0104  0.3964 -1.2028
18754TIP3    H277678   6.142   6.361   5.135  0.1758  0.1149  0.7234
18755TIP3   OH277679   1.495   1.397   5.090  0.5110  0.1297 -0.2561
18755TIP3    H177680   1.476   1.433   5.176  0.6727 -1.3698  0.4350
18755TIP3    H277681   1.588   1.372   5.095  0.4127 -0.3424 -0.7104
18756TIP3   OH277682   5.507   5.365   5.640  0.4743  0.4202 -0.1784
18756TIP3    H177683   5.443   5.426   5.603 -0.2491 -0.6893 -0.7823
18756TIP3    H277684   5.496   5.373   5.734  0.5383  1.3737 -0.2401
18757TIP3   OH277685   0.106   4.446  14.094 -0.2280  0.2004 -0.0132
18757TIP3    H177686   0.201   4.456  14.094 -0.2297  0.2747 -0.9902
18757TIP3    H277687   0.089   4.382  14.164  0.4235  1.1024  0.9949
18758TIP3   OH277688   5.442   2.052  15.631  0.0754  0.0553  0.8065
18758TIP3    H177689   5.519   2.110  15.631  0.2592 -0.1064  3.0616
18758TIP3    H277690   5.474   1.971  15.670 -0.8668 -0.5761  0.2804
18759TIP3   OH277691   4.443   0.946  13.083  0.5103  0.2239  0.0103
18759TIP3    H177692   4.514   0.979  13.139 -0.4464  2.2505  0.1219
18759TIP3    H277693   4.462   0.983  12.996 -0.2791  0.6163 -0.0038
18760TIP3   OH277694   1.867   6.491  17.050  0.5796 -0.0957 -0.3068
18760TIP3    H177695   1.897   6.558  17.112  0.2129  0.0578 -0.2915
18760TIP3    H277696   1.838   6.419  17.106 -0.1042  0.1924 -0.2847
18761TIP3   OH277697   6.382   3.504  12.102  0.3076  0.4696  0.1350
18761TIP3    H177698   6.360   3.583  12.052 -0.1537  0.0959 -0.2672
18761TIP3    H277699   6.365   3.527  12.193  1.9382  1.4256  0.2278
18762TIP3   OH277700   3.664   0.303   5.392  0.1653 -0.2028 -0.7494
18762TIP3    H177701   3.668   0.378   5.332 -2.0989  0.5294 -0.0718
18762TIP3    H277702   3.590   0.251   5.360  0.1327 -0.8083  0.2832
18763TIP3   OH277703   4.871   2.099   1.720  0.2649  0.9221 -0.3037
18763TIP3    H177704   4.813   2.043   1.669  1.3742 -0.5414 -0.0242
18763TIP3    H277705   4.812   2.148   1.777 -0.7274 -0.6010  0.0571
18764TIP3   OH277706   1.183   4.531  10.875 -0.0227 -0.2840 -0.0215
18764TIP3    H177707   1.139   4.479  10.943 -1.5314  1.9525  0.8082
18764TIP3    H277708   1.113   4.582  10.835  1.2725  0.4285 -1.4516
18765TIP3   OH277709   5.229   3.382   0.406 -0.2585 -0.1681  0.3117
18765TIP3    H177710   5.289   3.417   0.341 -0.4113  0.9614  0.7595
18765TIP3    H277711   5.214   3.291   0.378 -0.7534  0.4337 -1.5383
18766TIP3   OH277712   0.065   1.021   1.439 -0.4956 -0.2066  0.1185
18766TIP3    H177713  -0.004   0.958   1.419  1.2328 -1.8911 -0.8667
18766TIP3    H277714   0.126   1.016   1.365 -1.4932  4.5968 -1.3898
18767TIP3   OH277715   6.591   4.464  15.921 -0.0825  0.1663 -0.0621
18767TIP3    H177716   6.676   4.436  15.957  0.7356  1.1264 -1.1571
18767TIP3    H277717   6.550   4.513  15.991  1.1611  1.3743 -0.1334
18768TIP3   OH277718   0.359   5.919  15.290  0.0223 -0.1794  0.1166
18768TIP3    H177719   0.295   5.912  15.360 -1.9149 -1.6002 -1.6573
18768TIP3    H277720   0.409   5.837  15.293 -1.1784 -1.0034 -1.0926
18769TIP3   OH277721   1.112   0.719  12.621  0.4010 -0.3189 -0.3576
18769TIP3    H177722   1.089   0.655  12.688  0.9923 -1.7880 -1.4764
18769TIP3    H277723   1.126   0.801  12.668  3.9557 -1.9462  1.8442
18770TIP3   OH277724   3.814   4.027  14.480  0.1061 -0.3598 -0.1241
18770TIP3    H177725   3.816   4.023  14.384  0.2942  1.9199 -0.2638
18770TIP3    H277726   3.825   3.936  14.508 -1.9155 -1.3514 -2.2525
18771TIP3   OH277727   6.552   3.413  16.666  0.5298  0.1719 -0.0890
18771TIP3    H177728   6.574   3.322  16.685  0.7095  0.3518  0.5980
18771TIP3    H277729   6.458   3.411  16.646  0.0900  0.0757  1.7598
18772TIP3   OH277730   0.983   4.748   4.676  0.0073 -0.0148 -0.0336
18772TIP3    H177731   1.041   4.721   4.605 -0.1157 -0.5406  0.0634
18772TIP3    H277732   1.038   4.800   4.734 -0.1599  1.4324 -1.1072
18773TIP3   OH277733   0.488   3.745  14.104 -0.0302  0.4406 -0.0928
18773TIP3    H177734   0.441   3.749  14.021 -0.2585 -0.5967 -0.0239
18773TIP3    H277735   0.483   3.834  14.139 -2.1886  0.3137  0.0453
18774TIP3   OH277736   4.689   2.427   0.294 -0.4028 -0.0308 -0.1472
18774TIP3    H177737   4.774   2.385   0.304 -0.1420  0.2612 -1.0489
18774TIP3    H277738   4.709   2.511   0.252 -1.3636 -1.0653 -2.8747
18775TIP3   OH277739   4.260   4.720  13.065  0.0263 -0.5908  0.3350
18775TIP3    H177740   4.352   4.737  13.043  0.0829 -1.4695 -0.1169
18775TIP3    H277741   4.248   4.765  13.149  0.5513  0.4811 -0.1472
18776TIP3   OH277742   0.551   1.658  11.460 -0.1739 -0.3577 -0.5654
18776TIP3    H177743   0.609   1.728  11.432 -0.9276  0.8500  0.7416
18776TIP3    H277744   0.481   1.656  11.394 -0.1633  0.1464 -0.5943
18777TIP3   OH277745   3.080   5.150   5.118 -0.0171 -0.0752  0.0792
18777TIP3    H177746   3.154   5.201   5.086 -0.6234  2.1105  1.9025
18777TIP3    H277747   3.074   5.076   5.057  2.0622  1.0181 -1.6047
18778TIP3   OH277748   2.626   6.467  16.579 -0.0453  0.2357  0.2995
18778TIP3    H177749   2.610   6.373  16.576 -1.4035  0.4724 -0.9737
18778TIP3    H277750   2.647   6.485  16.671  0.4803 -1.3349  0.5073
18779TIP3   OH277751   4.419   2.631  13.525  0.1009 -0.3889 -0.0418
18779TIP3    H177752   4.383   2.585  13.600 -0.7668 -1.4001 -1.0409
18779TIP3    H277753   4.387   2.582  13.449  2.1155 -0.2554 -1.0470
18780TIP3   OH277754   6.139   2.524   1.854  0.1543 -0.1839 -0.0469
18780TIP3    H177755   6.080   2.529   1.779  0.3273 -0.6603 -0.2218
18780TIP3    H277756   6.205   2.459   1.828 -0.9816 -1.9663  1.3210
18781TIP3   OH277757   3.464   5.085   5.204 -0.3799 -0.5178  0.2458
18781TIP3    H177758   3.555   5.096   5.230 -0.1254 -0.3743 -0.6991
18781TIP3    H277759   3.444   5.164   5.153 -0.1908 -1.8074 -1.9382
18782TIP3   OH277760   5.769   3.074   1.150 -0.1091 -0.0130 -1.0442
18782TIP3    H177761   5.733   3.051   1.064 -0.8465  0.9184 -1.0003
18782TIP3    H277762   5.840   3.135   1.131 -1.5674  1.8068 -0.9421
18783TIP3   OH277763   4.710   1.066  15.667  0.2244  0.3329  0.2452
18783TIP3    H177764   4.690   1.097  15.579  1.4739  1.2654  0.2575
18783TIP3    H277765   4.714   0.971  15.659  0.9964  0.4373 -0.8735
18784TIP3   OH277766   2.761   2.690   2.904  0.4501  0.2514 -0.2348
18784TIP3    H177767   2.706   2.699   2.826 -1.4013 -2.9730  0.4994
18784TIP3    H277768   2.720   2.748   2.969 -0.5780 -0.2192 -0.4483
18785TIP3   OH277769   6.375   2.199  14.911  0.2791 -0.0207 -0.1221
18785TIP3    H177770   6.319   2.202  14.833 -0.7965  0.5503  0.6436
18785TIP3    H277771   6.348   2.275  14.963  1.2060 -0.2072  0.6623
18786TIP3   OH277772   0.573   1.522   4.874 -0.1539 -0.3664 -0.2118
18786TIP3    H177773   0.575   1.426   4.871  1.9259 -0.3873  0.3293
18786TIP3    H277774   0.630   1.549   4.802  0.0807  0.4368  0.2711
18787TIP3   OH277775   6.423   1.645   5.958  0.0089 -0.1423  0.2640
18787TIP3    H177776   6.514   1.642   5.988  0.3070  2.4077 -0.1696
18787TIP3    H277777   6.371   1.655   6.038  0.2051 -0.2533  0.4054
18788TIP3   OH277778   3.061   1.547   4.120 -0.3494 -0.1403 -0.5329
18788TIP3    H177779   3.117   1.473   4.094  0.7926 -0.0743  1.4992
18788TIP3    H277780   3.002   1.510   4.186 -0.5567  0.4920 -0.3568
18789TIP3   OH277781   1.882   4.445   1.386  0.2143  0.1096 -0.6107
18789TIP3    H177782   1.936   4.503   1.440  0.6426  1.2250 -2.1714
18789TIP3    H277783   1.866   4.494   1.306 -2.9026 -0.2997 -0.3597
18790TIP3   OH277784   3.860   5.322   6.243  0.0385 -0.1939 -0.1005
18790TIP3    H177785   3.814   5.240   6.260  2.2328 -2.0012 -2.1368
18790TIP3    H277786   3.938   5.317   6.297  0.8970 -0.1634 -1.3089
18791TIP3   OH277787   6.613   1.985   6.273  0.3238 -0.2580 -0.1827
18791TIP3    H177788   6.696   1.938   6.283  0.5795 -0.4795 -2.7808
18791TIP3    H277789   6.638   2.072   6.242 -0.3112  0.7533  1.9432
18792TIP3   OH277790   1.480   6.098  12.681 -0.3383  0.0674  0.0632
18792TIP3    H177791   1.559   6.111  12.628 -1.3309  3.7015 -0.8040
18792TIP3    H277792   1.408   6.103  12.618 -1.3811 -1.5061  1.0588
18793TIP3   OH277793   5.713   6.554  15.344  0.4969 -0.2029 -0.0962
18793TIP3    H177794   5.727   6.474  15.293 -0.5916 -1.4547  1.4683
18793TIP3    H277795   5.767   6.543  15.422  2.0284  1.6277 -0.8090
18794TIP3   OH277796   0.871   6.025  11.466 -0.2667  0.0231  0.3066
18794TIP3    H177797   0.814   5.983  11.530 -0.3836  2.2219  1.7799
18794TIP3    H277798   0.950   5.971  11.465 -0.6318 -0.5768  1.6347
18795TIP3   OH277799   5.120   2.727  14.193 -0.1122  0.6502 -0.5381
18795TIP3    H177800   5.071   2.727  14.276  0.4618  0.8676 -0.1952
18795TIP3    H277801   5.191   2.664  14.207 -1.7296 -1.6105 -1.9233
18796TIP3   OH277802   1.170   3.594  15.638 -0.1421  0.0159  0.2197
18796TIP3    H177803   1.208   3.652  15.705 -0.1802 -0.4275  0.6316
18796TIP3    H277804   1.086   3.567  15.675  0.2107 -0.9033  0.3748
18797TIP3   OH277805   0.735   5.269  12.627 -0.2762 -0.4152  0.1465
18797TIP3    H177806   0.686   5.267  12.545 -0.7763 -1.4397  0.4617
18797TIP3    H277807   0.819   5.309  12.604 -1.2257  1.3907 -0.4010
18798TIP3   OH277808   2.819   6.004   3.116 -0.2463  0.2740 -0.4404
18798TIP3    H177809   2.744   5.946   3.126 -0.4145  0.5302 -0.1951
18798TIP3    H277810   2.817   6.030   3.024  0.3867 -0.8500 -0.7944
18799TIP3   OH277811   6.610   3.420  11.954  0.0171  0.2217  0.4385
18799TIP3    H177812   6.623   3.326  11.967 -0.2553  0.1213 -0.0063
18799TIP3    H277813   6.542   3.444  12.017 -1.4414 -0.2999 -0.8848
18800TIP3   OH277814   2.922   2.306  12.723 -0.0728  0.9748 -0.3786
18800TIP3    H177815   2.912   2.310  12.628  1.1130  0.7659 -0.5359
18800TIP3    H277816   2.956   2.393  12.747 -0.4422  1.0523 -0.1371
18801TIP3   OH277817   6.639   4.460   2.087  0.2601 -0.2157 -0.1900
18801TIP3    H177818   6.731   4.464   2.061 -0.1619 -1.3398 -2.0171
18801TIP3    H277819   6.594   4.426   2.010 -1.5158 -0.9609  1.1199
18802TIP3   OH277820   5.887   3.616  14.869 -0.0589  0.2922  0.5282
18802TIP3    H177821   5.801   3.588  14.839  0.0594 -0.3614  0.7621
18802TIP3    H277822   5.902   3.564  14.948  1.1146 -0.6063 -0.2513
18803TIP3   OH277823   5.611   5.517   2.196 -0.4707  0.2195 -0.6908
18803TIP3    H177824   5.586   5.607   2.220  0.4663  0.4113 -0.3718
18803TIP3    H277825   5.593   5.511   2.103  0.0679  0.9602 -0.8486
18804TIP3   OH277826   5.254   4.910  16.236 -0.5452 -0.0651  0.0147
18804TIP3    H177827   5.193   4.917  16.162 -0.4905 -0.5233 -0.0780
18804TIP3    H277828   5.337   4.942  16.202 -1.1138  2.2886  0.6430
18805TIP3   OH277829   4.568   4.766   4.881 -0.0957 -0.3418  0.7027
18805TIP3    H177830   4.631   4.789   4.814  0.9338  0.0327  1.7606
18805TIP3    H277831   4.526   4.686   4.848 -0.6555  0.6236 -1.0213
18806TIP3   OH277832   4.805   1.662   0.515  0.3593 -0.7637  0.2115
18806TIP3    H177833   4.839   1.604   0.583  1.2210 -1.0074 -0.4075
18806TIP3    H277834   4.883   1.693   0.469 -0.2126 -0.7369 -0.7706
18807TIP3   OH277835   2.266   4.134   1.996 -0.0717 -0.1705 -0.3867
18807TIP3    H177836   2.272   4.040   1.980  0.9968 -0.3483  0.9363
18807TIP3    H277837   2.179   4.145   2.034 -0.4005 -0.5406 -1.0097
18808TIP3   OH277838   2.391   6.394  13.232 -0.1405 -0.8245 -0.3100
18808TIP3    H177839   2.448   6.461  13.196 -1.0023 -1.9121 -4.0858
18808TIP3    H277840   2.308   6.438  13.247 -0.5901 -0.8552 -2.4141
18809TIP3   OH277841   6.526   2.677   1.835 -0.1561 -0.5206 -0.7079
18809TIP3    H177842   6.620   2.660   1.821  0.4028  1.6217  0.0315
18809TIP3    H277843   6.483   2.631   1.763  1.7408  1.2622 -3.1761
18810TIP3   OH277844   0.914   6.127  11.828 -0.2564  0.1223  0.2686
18810TIP3    H177845   0.847   6.098  11.890 -0.8958  0.0315 -0.4441
18810TIP3    H277846   0.888   6.216  11.805  0.3082  0.3660  0.5742
18811TIP3   OH277847   0.488   0.810   1.106  0.2931 -0.0456 -0.4061
18811TIP3    H177848   0.505   0.903   1.121  1.4453 -0.0619 -1.4497
18811TIP3    H277849   0.511   0.796   1.014  0.7023 -1.4740 -0.1138
18812TIP3   OH277850   3.789   0.994   5.727  0.8819 -0.2998  0.5061
18812TIP3    H177851   3.846   1.070   5.735 -1.2331  1.5359 -0.8611
18812TIP3    H277852   3.800   0.965   5.637 -2.5022  2.0758 -0.8659
18813TIP3   OH277853   4.188   5.031  15.143 -0.4876  0.3352 -0.2832
18813TIP3    H177854   4.179   4.936  15.147 -0.8565  0.2891 -1.6229
18813TIP3    H277855   4.280   5.047  15.162 -0.3757 -0.3000 -0.2509
18814TIP3   OH277856   1.508   2.612  10.919 -0.5721  0.3465  0.0621
18814TIP3    H177857   1.421   2.598  10.882 -0.6515  1.9961 -0.4900
18814TIP3    H277858   1.491   2.653  11.004 -0.3733  1.7680 -0.5446
18815TIP3   OH277859   4.035   0.248   2.027 -0.1091  0.2356  0.4940
18815TIP3    H177860   3.964   0.199   1.984 -1.9901  2.2379  1.1677
18815TIP3    H277861   4.108   0.241   1.965 -0.6946 -2.2003 -0.0702
18816TIP3   OH277862   5.572   2.295   5.150 -0.2594  0.5960  0.2714
18816TIP3    H177863   5.551   2.387   5.132  0.2311  0.5891 -0.3341
18816TIP3    H277864   5.520   2.246   5.087  0.3276  0.5052 -0.1381
18817TIP3   OH277865   6.216   6.075   3.080 -0.6463 -0.3280  0.0376
18817TIP3    H177866   6.172   6.052   3.161  0.3077 -2.8453 -0.0547
18817TIP3    H277867   6.156   6.134   3.035 -2.7599 -1.6031  1.0352
18818TIP3   OH277868   3.586   4.399   0.511  0.1986  0.1852 -0.2410
18818TIP3    H177869   3.646   4.471   0.492 -0.6425  0.9223 -0.1562
18818TIP3    H277870   3.622   4.360   0.591 -0.0465  1.3381  0.4638
18819TIP3   OH277871   3.038   2.395  14.869 -0.3306 -0.1659  0.3094
18819TIP3    H177872   3.025   2.303  14.843  1.1454 -0.0471 -1.0037
18819TIP3    H277873   3.104   2.392  14.938  0.0016 -0.0811 -0.0000
18820TIP3   OH277874   1.147   1.671   5.873 -0.0815  0.3929  0.5970
18820TIP3    H177875   1.119   1.587   5.834 -0.7593  0.6223  0.5768
18820TIP3    H277876   1.240   1.678   5.850  0.2446 -0.8154  1.4280
18821TIP3   OH277877   2.295   3.549  13.431 -0.5558  0.0156  0.1480
18821TIP3    H177878   2.366   3.485  13.428 -0.3605  0.2572 -0.8611
18821TIP3    H277879   2.226   3.506  13.481 -0.5471 -1.1215 -0.7654
18822TIP3   OH277880   4.647   3.065  12.706 -0.2812  0.1265  0.5709
18822TIP3    H177881   4.596   3.068  12.625 -0.5248  1.1863  0.7477
18822TIP3    H277882   4.583   3.086  12.775 -0.0867 -0.8134  1.0439
18823TIP3   OH277883   2.264   2.179   3.080  0.5060 -0.1296  0.0028
18823TIP3    H177884   2.278   2.270   3.107  0.0124 -0.1450  0.3155
18823TIP3    H277885   2.252   2.184   2.985  1.1594  0.0470 -0.0788
18824TIP3   OH277886   6.066   3.700  11.558  0.6169 -0.1480  0.0435
18824TIP3    H177887   6.129   3.770  11.537  0.9359 -0.2751  0.5624
18824TIP3    H277888   6.104   3.621  11.518  1.1376 -0.3570  0.9392
18825TIP3   OH277889   3.295   0.401  15.372 -0.3723 -0.2118 -0.3099
18825TIP3    H177890   3.322   0.391  15.463 -0.5575 -1.0251 -0.3397
18825TIP3    H277891   3.200   0.398  15.374 -0.3579 -1.4379 -0.6508
18826TIP3   OH277892   3.778   1.547  11.846  0.3784 -0.6057 -0.2802
18826TIP3    H177893   3.723   1.496  11.906 -0.4050  0.1859 -0.3123
18826TIP3    H277894   3.840   1.592  11.903  0.2917 -0.6440 -0.1541
18827TIP3   OH277895   5.239   6.659  14.550  0.0892  0.2395 -0.1019
18827TIP3    H177896   5.303   6.722  14.583  0.9135 -0.4068 -0.4179
18827TIP3    H277897   5.265   6.644  14.459 -0.3534 -0.2357 -0.1552
18828TIP3   OH277898   3.825   3.295   3.985  0.1570  0.0957  0.5500
18828TIP3    H177899   3.749   3.348   3.962  0.2697 -0.6156 -1.6941
18828TIP3    H277900   3.885   3.304   3.911  1.1184 -1.4056  1.0880
18829TIP3   OH277901   3.106   0.798  13.238  0.7829 -0.6164 -0.7106
18829TIP3    H177902   3.025   0.750  13.258  0.1004  0.8094  0.0599
18829TIP3    H277903   3.102   0.813  13.144  0.2908 -0.8148 -0.7255
18830TIP3   OH277904   6.137   4.100   4.338  0.4257 -0.0965 -0.2860
18830TIP3    H177905   6.151   4.067   4.427  1.5905 -0.3672 -0.5472
18830TIP3    H277906   6.079   4.175   4.349 -0.4297 -0.8626  0.5671
18831TIP3   OH277907   5.202   2.962   4.704  0.0033  0.2641 -0.3960
18831TIP3    H177908   5.186   2.956   4.610  2.4270  0.3091 -0.8741
18831TIP3    H277909   5.297   2.952   4.713  0.0725  2.1135  1.8872
18832TIP3   OH277910   2.854   3.007   2.801 -0.5282  0.4154  0.0660
18832TIP3    H177911   2.788   3.047   2.858 -1.4830  1.6026 -1.7646
18832TIP3    H277912   2.918   3.077   2.787 -0.7561  0.4177 -0.9800
18833TIP3   OH277913   5.977   4.304  15.137  0.0322 -0.0998 -0.1667
18833TIP3    H177914   6.004   4.288  15.047  0.1506 -0.3669 -0.0870
18833TIP3    H277915   5.929   4.225  15.162  1.9691 -1.0477  0.7434
18834TIP3   OH277916   2.613   5.789   6.213  0.1469  0.3312  0.6124
18834TIP3    H177917   2.541   5.822   6.267 -0.3666  0.9962 -0.4535
18834TIP3    H277918   2.591   5.697   6.200 -1.3929  0.8675 -1.0024
18835TIP3   OH277919   6.291   2.925  11.635  0.2756 -0.3563  0.3354
18835TIP3    H177920   6.198   2.918  11.657 -0.1367  1.0924 -0.8154
18835TIP3    H277921   6.303   2.863  11.563  0.9577 -2.8548  2.4446
18836TIP3   OH277922   5.820   3.523  11.520 -0.1153  0.4803  0.5497
18836TIP3    H177923   5.850   3.551  11.606  1.2900 -0.5024  0.4126
18836TIP3    H277924   5.898   3.484  11.479 -0.7067  1.0794 -1.2295
18837TIP3   OH277925   5.676   6.697   3.952  0.4064  0.6320  0.0135
18837TIP3    H177926   5.662   6.603   3.960 -1.2601  0.2151 -4.4723
18837TIP3    H277927   5.591   6.736   3.972  1.0722  1.2464  1.8010
18838TIP3   OH277928   4.001   1.594  12.304  0.1756  0.2293 -0.1432
18838TIP3    H177929   4.091   1.607  12.275  0.2530 -0.3390 -0.1729
18838TIP3    H277930   4.001   1.618  12.396  0.6637 -0.9753  0.1973
18839TIP3   OH277931   2.786   4.456   4.477 -0.3904  0.3375 -0.6433
18839TIP3    H177932   2.774   4.548   4.454  1.8130  1.0352  0.6911
18839TIP3    H277933   2.758   4.451   4.568 -0.0259 -0.1860 -0.5574
18840TIP3   OH277934   0.266   4.348  12.497  0.0090 -0.3991  0.1910
18840TIP3    H177935   0.188   4.344  12.553 -0.1709 -1.2578 -0.1073
18840TIP3    H277936   0.301   4.259  12.498  0.6671 -0.1521 -0.1367
18841TIP3   OH277937   4.685   4.207   3.940 -0.0235  0.1465 -0.4252
18841TIP3    H177938   4.739   4.255   3.877 -0.6525 -0.1423 -1.2044
18841TIP3    H277939   4.647   4.274   3.996  3.5615  0.2680  2.2528
18842TIP3   OH277940   6.472   4.400   1.859  0.0026  0.7230  0.4650
18842TIP3    H177941   6.501   4.415   1.770 -1.0390 -1.7674 -0.4044
18842TIP3    H277942   6.377   4.396   1.854 -0.0404 -0.4255  1.4637
18843TIP3   OH277943   5.534   0.398   2.014 -0.1627 -0.3902  0.2578
18843TIP3    H177944   5.526   0.308   1.984  0.6272 -0.5823  0.6050
18843TIP3    H277945   5.583   0.443   1.944 -0.2451 -0.3154  0.2480
18844TIP3   OH277946   0.866   4.068  16.637 -0.4970 -0.2356  0.3840
18844TIP3    H177947   0.924   4.006  16.683 -1.1382 -0.2043  1.2583
18844TIP3    H277948   0.844   4.024  16.555 -4.4162 -3.2601  2.6922
18845TIP3   OH277949   3.570   1.981  12.097  0.3813 -0.0445  0.0268
18845TIP3    H177950   3.621   1.973  12.016 -1.6868 -1.1031 -1.2758
18845TIP3    H277951   3.632   1.963  12.167  1.9769 -0.3771 -1.4119
18846TIP3   OH277952   5.920   5.270  14.186  0.1763  0.0267  0.4279
18846TIP3    H177953   5.928   5.327  14.110 -0.6864  0.8025  0.9062
18846TIP3    H277954   5.953   5.323  14.259  0.8740 -0.6614  0.6275
18847TIP3   OH277955   3.724   3.364  14.294  0.5594  0.7069 -1.0090
18847TIP3    H177956   3.651   3.419  14.324  1.1841  0.3567  1.3745
18847TIP3    H277957   3.799   3.424  14.290  0.9956  0.3089  0.5201
18848TIP3   OH277958   4.097   2.778   4.244 -0.1028  0.3740  0.1489
18848TIP3    H177959   4.107   2.696   4.293 -1.4357 -0.4131 -0.8288
18848TIP3    H277960   4.012   2.770   4.202 -0.1609  2.1908 -0.1461
18849TIP3   OH277961   4.486   5.045   3.410 -0.7611 -0.3579  0.2856
18849TIP3    H177962   4.535   5.012   3.485  0.9170  0.0434 -0.5937
18849TIP3    H277963   4.428   4.973   3.386 -1.0128 -0.6518  1.6732
18850TIP3   OH277964   5.442   4.315   1.933 -0.7204  0.7385  0.5393
18850TIP3    H177965   5.430   4.243   1.995  0.5484  2.3629  2.8370
18850TIP3    H277966   5.537   4.323   1.923 -0.8167  2.3145  0.6435
18851TIP3   OH277967   5.495   6.605   5.541  0.2273  0.1270  0.5114
18851TIP3    H177968   5.567   6.604   5.604 -0.0541  1.7151  0.9021
18851TIP3    H277969   5.473   6.513   5.528  2.8861 -0.4636 -0.3078
18852TIP3   OH277970   2.837   4.114   0.588 -0.7663 -0.3264  0.0213
18852TIP3    H177971   2.889   4.069   0.653  1.9546  1.5945 -0.6261
18852TIP3    H277972   2.747   4.107   0.619  0.0093 -2.5258  2.0253
18853TIP3   OH277973   6.068   5.742  11.362  0.6494 -0.0093  0.2373
18853TIP3    H177974   6.117   5.704  11.435 -1.2475 -0.4200  1.3702
18853TIP3    H277975   6.025   5.668  11.320  0.2661  0.4244 -0.1504
18854TIP3   OH277976   2.114   0.954  16.789  0.1811  0.0453 -0.8453
18854TIP3    H177977   2.164   1.035  16.801  1.9923 -1.1778  0.3620
18854TIP3    H277978   2.099   0.949  16.695  1.4247  0.9942 -1.1203
18855TIP3   OH277979   0.584   2.857  16.790 -0.1736 -0.1003 -0.3399
18855TIP3    H177980   0.503   2.818  16.756 -0.2139 -1.2499  0.9947
18855TIP3    H277981   0.571   2.861  16.884  1.5110 -0.7508 -0.0609
18856TIP3   OH277982   4.333   5.382   2.664  0.1578 -0.2127 -0.5725
18856TIP3    H177983   4.241   5.394   2.638  0.7175  2.3570 -1.6797
18856TIP3    H277984   4.346   5.446   2.734  0.6212 -2.0094  1.0521
18857TIP3   OH277985   0.171   3.677  15.030 -0.6120 -0.3385 -0.0123
18857TIP3    H177986   0.108   3.726  15.082  0.4748  0.7377  0.3608
18857TIP3    H277987   0.246   3.736  15.022  0.0839 -1.3079 -1.0085
18858TIP3   OH277988   1.521   6.267  17.208 -0.1727  0.6988  0.0400
18858TIP3    H177989   1.514   6.203  17.137 -2.6246  1.5062 -0.5533
18858TIP3    H277990   1.481   6.225  17.283 -2.5682  1.7141 -0.5707
18859TIP3   OH277991   2.611   4.319   1.798  0.1442  0.1044 -0.2108
18859TIP3    H177992   2.566   4.235   1.787 -0.0704 -0.1022  1.8143
18859TIP3    H277993   2.684   4.316   1.737 -1.1412 -0.5852 -1.7975
18860TIP3   OH277994   6.520   0.574  15.175 -0.6811  0.8936  0.1027
18860TIP3    H177995   6.611   0.576  15.206 -0.1551  1.1785 -1.3585
18860TIP3    H277996   6.528   0.581  15.079 -2.2203  0.2074 -0.0940
18861TIP3   OH277997   2.554   4.687   5.846 -0.5140  0.3707  0.5814
18861TIP3    H177998   2.598   4.686   5.931 -0.6086  0.7425  0.6334
18861TIP3    H277999   2.577   4.771   5.808 -0.4550  0.1953  0.2277
18862TIP3   OH278000   5.951   5.181   0.997 -0.0595 -0.5015  0.4763
18862TIP3    H178001   6.033   5.224   0.975 -0.3390  0.0131  0.4029
18862TIP3    H278002   5.954   5.168   1.091 -0.2325  0.2494  0.5880
18863TIP3   OH278003   6.468   5.610  15.819 -0.0257  0.2975  0.0788
18863TIP3    H178004   6.542   5.602  15.880  0.2896 -1.1743 -0.4325
18863TIP3    H278005   6.410   5.674  15.859  0.0915 -0.7297  2.0108
18864TIP3   OH278006   0.032   3.357  13.080 -0.6353 -0.3736  0.0677
18864TIP3    H178007  -0.054   3.348  13.039 -0.1625 -0.1908 -1.0058
18864TIP3    H278008   0.041   3.450  13.096 -0.9375 -0.4744  0.8913
18865TIP3   OH278009   0.296   3.006  11.725 -0.2439  0.1873  0.0093
18865TIP3    H178010   0.353   3.026  11.800 -1.5368  2.3049  0.5367
18865TIP3    H278011   0.295   3.088  11.674 -0.7859 -0.6510 -1.3731
18866TIP3   OH278012   5.922   0.167  17.164 -0.2487  0.2229 -0.0009
18866TIP3    H178013   5.874   0.249  17.174  0.4739  0.8430 -1.2918
18866TIP3    H278014   6.012   0.195  17.145  0.3091 -0.8912  0.8830
18867TIP3   OH278015   5.169   6.064   0.767 -0.2355 -0.2509  0.0101
18867TIP3    H178016   5.139   6.109   0.688  0.4329  1.4008  0.6297
18867TIP3    H278017   5.202   5.980   0.736  0.4475  0.5392 -1.5657
18868TIP3   OH278018   6.203   4.436   1.893  0.3650 -0.1810  0.5372
18868TIP3    H178019   6.117   4.479   1.889  1.0622  1.3848  1.4096
18868TIP3    H278020   6.187   4.354   1.940 -1.0204 -0.9906 -1.2251
18869TIP3   OH278021   2.124   0.173  15.394 -0.2508 -0.2748  0.4429
18869TIP3    H178022   2.202   0.143  15.347 -0.9294 -0.7084 -0.4419
18869TIP3    H278023   2.068   0.095  15.400 -0.8235  0.1421  0.6477
18870TIP3   OH278024   6.528   5.334   3.266  0.0602 -0.3716  0.2472
18870TIP3    H178025   6.468   5.376   3.205  1.5923  0.5213 -0.7231
18870TIP3    H278026   6.512   5.377   3.350 -0.0857  0.4295 -0.1885
18871TIP3   OH278027   3.767   1.241   0.765 -0.2426  0.5152 -0.3208
18871TIP3    H178028   3.729   1.154   0.751  0.5896  0.0968 -0.0249
18871TIP3    H278029   3.694   1.293   0.799 -0.2408 -0.6733  1.7051
18872TIP3   OH278030   2.121   5.885  17.000 -0.2316  0.2007  0.3538
18872TIP3    H178031   2.107   5.880  16.905 -0.2445 -1.1474  0.4087
18872TIP3    H278032   2.077   5.966  17.026 -1.5140 -0.1559 -0.5789
18873TIP3   OH278033   1.803   6.430  10.940 -0.4578  0.4868 -0.3520
18873TIP3    H178034   1.826   6.373  11.014 -1.4541 -1.0527 -1.1891
18873TIP3    H278035   1.716   6.402  10.913 -0.1905  1.1224 -2.0150
18874TIP3   OH278036   3.643   4.537  14.999 -0.1082 -0.3548  0.5689
18874TIP3    H178037   3.565   4.593  14.998 -1.2407 -1.8137 -2.1950
18874TIP3    H278038   3.707   4.584  14.945 -0.1177 -0.5506  0.3917
18875TIP3   OH278039   3.105   6.106   4.354 -0.2540 -0.3594  0.0581
18875TIP3    H178040   3.192   6.076   4.326 -0.1329 -0.7083  0.7678
18875TIP3    H278041   3.101   6.083   4.447 -0.0693  2.0540  0.7221
18876TIP3   OH278042   4.483   2.673  15.309 -0.2126 -0.2042  0.5989
18876TIP3    H178043   4.560   2.616  15.312  0.8029  0.9571 -1.2145
18876TIP3    H278044   4.459   2.675  15.216 -0.4443  1.9643  0.6572
18877TIP3   OH278045   1.968   5.180   4.362 -0.0126  0.3420 -0.3179
18877TIP3    H178046   1.927   5.237   4.297 -1.5800 -0.2444  0.1134
18877TIP3    H278047   1.974   5.235   4.441  0.4126  0.5538 -0.4954
18878TIP3   OH278048   0.606   2.872   0.433  0.4516  0.4198  0.1054
18878TIP3    H178049   0.643   2.859   0.520  2.0436 -0.0457 -0.5896
18878TIP3    H278050   0.657   2.813   0.377 -1.4261 -0.2835 -0.9275
18879TIP3   OH278051   0.546   3.592  16.020  0.1549  0.2777  0.2414
18879TIP3    H178052   0.469   3.565  15.970  1.7676  0.5044 -2.5821
18879TIP3    H278053   0.536   3.548  16.105 -3.9360  1.8127  0.7427
18880TIP3   OH278054   0.419   3.126   1.270 -0.3657 -0.3048  0.2315
18880TIP3    H178055   0.364   3.183   1.324  2.0101  0.1533  2.3635
18880TIP3    H278056   0.472   3.186   1.218  0.0178 -0.6462  0.2215
18881TIP3   OH278057   0.588   1.684   4.433  0.2922 -0.2765 -0.3137
18881TIP3    H178058   0.578   1.755   4.370  1.1686 -0.4865 -0.6974
18881TIP3    H278059   0.531   1.614   4.399  0.1819 -0.1153 -0.4621
18882TIP3   OH278060   5.870   5.001   0.630  0.2942 -0.2924  0.2090
18882TIP3    H178061   5.849   5.043   0.713 -0.9263  0.1225 -0.2859
18882TIP3    H278062   5.871   5.072   0.566  1.8048 -0.5131 -0.0708
18883TIP3   OH278063   2.592   4.630   1.308 -0.5121  0.1162  0.4235
18883TIP3    H178064   2.549   4.568   1.250  2.1158  0.0773 -1.6772
18883TIP3    H278065   2.584   4.591   1.395 -1.9381 -1.3648 -0.3264
18884TIP3   OH278066   1.891   3.520   5.296  0.1476 -0.2225 -0.2329
18884TIP3    H178067   1.877   3.472   5.215 -0.1650 -0.3395 -0.1109
18884TIP3    H278068   1.808   3.513   5.343  0.9026 -1.7878  0.9613
18885TIP3   OH278069   3.363   1.952  13.292  0.0055  0.0467  0.2189
18885TIP3    H178070   3.334   2.028  13.240  1.0430  1.5378  1.7209
18885TIP3    H278071   3.283   1.901  13.305 -0.8181  1.1002 -0.4613
18886TIP3   OH278072   6.459   2.202  16.048  0.6864  0.0124  0.4618
18886TIP3    H178073   6.396   2.213  16.119 -0.2071  0.4366 -0.3845
18886TIP3    H278074   6.479   2.291  16.019 -1.5718 -0.1912 -2.0546
18887TIP3   OH278075   6.502   4.989  11.507 -0.2917  0.2537  0.3782
18887TIP3    H178076   6.511   4.993  11.412 -0.7509 -1.3187  0.2486
18887TIP3    H278077   6.435   4.923  11.522  2.6266 -2.6207  1.8900
18888TIP3   OH278078   5.364   3.593  13.078  0.4146  0.2615 -0.0188
18888TIP3    H178079   5.453   3.579  13.044  0.0368  0.1688 -1.0141
18888TIP3    H278080   5.321   3.646  13.011 -0.5331 -0.3754  0.0633
18889TIP3   OH278081   4.705   5.532   0.864 -0.0755 -0.1254 -0.4003
18889TIP3    H178082   4.735   5.569   0.947  0.5799 -1.3541 -0.0739
18889TIP3    H278083   4.610   5.539   0.867 -0.0051  0.7725  0.0003
18890TIP3   OH278084   3.138   0.987   0.778 -0.2807 -0.1503 -0.5919
18890TIP3    H178085   3.085   1.061   0.807 -0.8289 -1.2809  1.5565
18890TIP3    H278086   3.122   0.919   0.844  2.5953 -1.1035 -0.7366
18891TIP3   OH278087   1.207   5.648  14.690  0.3172  0.1753  0.1705
18891TIP3    H178088   1.240   5.573  14.739 -1.1039  0.2692  1.3408
18891TIP3    H278089   1.227   5.724  14.745  0.4979  0.5010 -0.3409
18892TIP3   OH278090   5.142   1.001  16.024 -0.5157  0.5284  0.9762
18892TIP3    H178091   5.064   0.978  15.973 -0.1957 -0.8413  1.0654
18892TIP3    H278092   5.184   1.071  15.974 -2.9966  3.0088  2.0964
18893TIP3   OH278093   3.367   1.670   2.122  0.4251 -0.0253  0.1984
18893TIP3    H178094   3.450   1.663   2.074  0.0268  1.0056 -0.6684
18893TIP3    H278095   3.325   1.585   2.110  0.9607 -0.2546 -0.0868
18894TIP3   OH278096   4.178   6.009   0.128 -0.3486  0.2054 -0.2566
18894TIP3    H178097   4.090   6.023   0.161 -0.8888 -0.2963 -1.4370
18894TIP3    H278098   4.169   5.940   0.062  0.9420  0.0661 -0.3226
18895TIP3   OH278099   3.941   4.326  12.229 -0.3671 -0.1830 -0.0850
18895TIP3    H178100   4.018   4.362  12.185 -0.7101 -0.3768 -0.8544
18895TIP3    H278101   3.924   4.387  12.301  0.5992 -0.2241  0.1894
18896TIP3   OH278102   4.913   1.151  11.943 -0.0302  0.2328  0.6542
18896TIP3    H178103   4.883   1.107  12.023 -0.7500 -0.1011  0.2100
18896TIP3    H278104   5.003   1.176  11.962 -0.6298  1.4670  2.1107
18897TIP3   OH278105   4.025   4.655   0.061 -0.0918  0.5233  0.2166
18897TIP3    H178106   4.032   4.564   0.030  0.4972  0.9491 -0.9717
18897TIP3    H278107   4.115   4.686   0.067 -0.2874  1.9904 -2.5253
18898TIP3   OH278108   2.463   1.472   1.446  0.6164 -0.1501 -0.2670
18898TIP3    H178109   2.478   1.435   1.359  0.9077 -0.0412 -0.2641
18898TIP3    H278110   2.457   1.566   1.432 -0.1168 -0.1893 -0.2717
18899TIP3   OH278111   6.225   5.104   6.318 -0.8320  0.1366 -0.4905
18899TIP3    H178112   6.258   5.123   6.231  0.4450 -1.7890 -0.4719
18899TIP3    H278113   6.196   5.189   6.352  0.9486  1.3275 -1.8223
18900TIP3   OH278114   3.466   3.137  14.251  0.2430  0.2578 -0.1363
18900TIP3    H178115   3.557   3.161  14.264 -0.6131  2.7151  2.5149
18900TIP3    H278116   3.440   3.097  14.334 -0.5633 -2.5903 -1.6564
18901TIP3   OH278117   0.191   2.236  15.757 -0.1195  0.0565  0.1628
18901TIP3    H178118   0.108   2.216  15.800 -1.6562  0.6276 -2.3254
18901TIP3    H278119   0.251   2.169  15.787 -2.3682 -2.3469 -0.3661
18902TIP3   OH278120   6.706   3.153  16.504  0.0343  0.0201  0.1676
18902TIP3    H178121   6.785   3.106  16.478  1.2866  1.2759  1.4796
18902TIP3    H278122   6.697   3.223  16.439  1.5673  1.4558  1.3838
18903TIP3   OH278123   0.109   4.405   4.765  0.0650  0.2410  0.3238
18903TIP3    H178124   0.121   4.500   4.771 -0.3768  0.4986 -1.8972
18903TIP3    H278125   0.190   4.368   4.799  1.9134  1.5749 -2.3186
18904TIP3   OH278126   0.929   5.543   3.037  0.5719 -0.3532 -0.1032
18904TIP3    H178127   0.872   5.544   2.960 -2.0283 -2.2570  1.6349
18904TIP3    H278128   1.007   5.494   3.008 -1.2463 -2.9121 -1.0600
18905TIP3   OH278129   1.082   5.180  11.599  0.2118  0.1862 -0.0665
18905TIP3    H178130   1.078   5.236  11.522  1.2512  0.4686  0.0687
18905TIP3    H278131   1.133   5.104  11.570  0.2804  0.1146  0.2386
18906TIP3   OH278132   0.918   3.361   0.440  0.0022 -0.0190  0.2998
18906TIP3    H178133   0.839   3.347   0.492  1.0096  0.3703  2.0009
18906TIP3    H278134   0.942   3.452   0.455  1.4101 -0.4377  0.7720
18907TIP3   OH278135   3.851   4.684  11.274  0.2653 -0.0448  0.1446
18907TIP3    H178136   3.819   4.768  11.240 -0.6118  0.4892  2.1290
18907TIP3    H278137   3.873   4.702  11.365  1.5190 -1.6445  0.2101
18908TIP3   OH278138   2.377   4.718   1.967  0.1205 -1.0856  0.1550
18908TIP3    H178139   2.452   4.705   1.909 -0.0164  1.1798 -0.6214
18908TIP3    H278140   2.315   4.768   1.916 -1.2493 -1.4981  1.3463
18909TIP3   OH278141   4.258   2.560   3.335  0.0674 -0.3058  0.3268
18909TIP3    H178142   4.181   2.575   3.280  2.0269  0.2270 -2.4483
18909TIP3    H278143   4.229   2.587   3.423 -2.5329  1.0038 -0.8006
18910TIP3   OH278144   1.605   2.005  13.713 -0.5139 -0.1072 -0.0714
18910TIP3    H178145   1.618   1.935  13.777 -0.9228  0.2885  0.4531
18910TIP3    H278146   1.514   2.033  13.726 -1.1899 -1.1820 -2.0070
18911TIP3   OH278147   5.813   5.981  10.306  0.0177 -0.3194 -0.2269
18911TIP3    H178148   5.720   5.983  10.328  0.0111  0.4026 -0.2834
18911TIP3    H278149   5.822   5.909  10.244 -0.7254  0.3385 -1.1376
18912TIP3   OH278150   4.859   0.485  16.999 -0.6514 -0.5649 -0.4310
18912TIP3    H178151   4.842   0.401  16.955 -1.1469 -0.2639 -0.8208
18912TIP3    H278152   4.907   0.537  16.935 -0.1817 -0.6109 -0.1206
18913TIP3   OH278153   4.758   1.675   4.428 -0.3635  0.2085  0.0441
18913TIP3    H178154   4.675   1.717   4.403  0.4626  2.4808  0.8387
18913TIP3    H278155   4.816   1.691   4.354 -0.1064  0.2299  0.2493
18914TIP3   OH278156   0.505   6.507  15.624 -0.4943  0.0590 -0.2890
18914TIP3    H178157   0.482   6.473  15.538 -2.5059 -0.5607  0.4146
18914TIP3    H278158   0.573   6.572  15.608 -0.1645 -0.7144 -2.2242
18915TIP3   OH278159   5.316   2.694   4.769  0.2970 -0.3763  0.2723
18915TIP3    H178160   5.260   2.621   4.797  1.3222 -1.2452  0.1028
18915TIP3    H278161   5.295   2.706   4.676 -0.7995  0.4140  0.5994
18916TIP3   OH278162   5.076   6.248   3.891  0.0413 -0.0345  0.0654
18916TIP3    H178163   5.019   6.254   3.815  0.8026 -0.3233 -0.5519
18916TIP3    H278164   5.053   6.164   3.932 -2.9266  1.7096  2.3319
18917TIP3   OH278165   5.724   5.933  16.218 -0.0562  0.3215 -0.5497
18917TIP3    H178166   5.816   5.962  16.220  0.2918 -0.7637  0.3127
18917TIP3    H278167   5.673   6.013  16.229  0.8409  0.7478  0.8147
18918TIP3   OH278168   2.852   2.390   3.226  0.3400  0.2096 -0.4071
18918TIP3    H178169   2.838   2.363   3.136 -1.4412 -0.8219  0.1229
18918TIP3    H278170   2.769   2.431   3.252  1.2887  1.7432  0.3669
18919TIP3   OH278171   2.979   1.564   0.924 -0.1147  0.1070 -0.5516
18919TIP3    H178172   3.015   1.496   0.981  1.8118 -0.4636 -2.3610
18919TIP3    H278173   3.054   1.620   0.902 -1.0272  0.9306 -1.6935
18920TIP3   OH278174   5.793   3.433  14.439  0.5585  0.2998  0.5995
18920TIP3    H178175   5.702   3.453  14.416  0.9244 -0.8747 -2.3931
18920TIP3    H278176   5.829   3.516  14.470 -1.3525  0.9267  1.2474
18921TIP3   OH278177   5.473   1.854   2.882 -0.4157  0.3690 -0.3149
18921TIP3    H178178   5.508   1.829   2.797 -1.0055 -0.8394 -0.2245
18921TIP3    H278179   5.547   1.894   2.928 -0.0287  0.7948 -1.2874
18922TIP3   OH278180   0.089   0.098  12.543  0.5642 -0.2519  0.2492
18922TIP3    H178181   0.123   0.102  12.454 -3.5531 -0.9640 -1.5825
18922TIP3    H278182   0.083   0.190  12.570  2.4289 -0.0571  0.1165
18923TIP3   OH278183   5.469   4.284   4.898  0.0281  0.4727 -0.1194
18923TIP3    H178184   5.556   4.247   4.882  0.1028 -0.2747  1.7560
18923TIP3    H278185   5.414   4.248   4.828  0.6585 -1.2062  0.2088
18924TIP3   OH278186   4.616   4.551   3.766 -0.1096  0.5653  0.0049
18924TIP3    H178187   4.543   4.527   3.823 -0.9583  2.3019 -0.2726
18924TIP3    H278188   4.575   4.603   3.697  1.3775  1.5111 -0.1964
18925TIP3   OH278189   0.933   2.886   6.243 -0.0352 -0.7209  0.5783
18925TIP3    H178190   0.857   2.840   6.280 -0.6896  0.8288  1.2199
18925TIP3    H278191   0.898   2.967   6.208  0.7857 -1.4839 -2.3343
18926TIP3   OH278192   3.421   0.864   5.599 -0.0385  0.2238  0.3504
18926TIP3    H178193   3.328   0.882   5.590 -0.2685 -0.8621  0.3985
18926TIP3    H278194   3.432   0.841   5.692 -0.0377 -1.2210  0.0204
18927TIP3   OH278195   4.529   2.731   2.661  0.0895 -0.1838  0.3532
18927TIP3    H178196   4.552   2.696   2.575  4.3851  1.0372  0.7861
18927TIP3    H278197   4.441   2.767   2.649  0.4868 -0.1114 -3.5245
18928TIP3   OH278198   3.076   1.802  15.570  0.0242  0.1034  0.3124
18928TIP3    H178199   3.089   1.889  15.531 -0.3508 -0.4173 -1.0556
18928TIP3    H278200   3.161   1.759  15.563  0.1323  0.2483  0.7113
18929TIP3   OH278201   0.249   2.165   0.810  0.2986 -0.1003 -0.1433
18929TIP3    H178202   0.317   2.200   0.752  0.7351 -0.4795  0.1321
18929TIP3    H278203   0.264   2.209   0.894 -2.6442  3.3944 -1.1572
18930TIP3   OH278204   2.478   3.536   0.220  0.2670  0.5716  0.4221
18930TIP3    H178205   2.407   3.503   0.164 -0.3873  0.4231  1.3175
18930TIP3    H278206   2.512   3.612   0.172  1.4268 -0.9942 -1.3895
18931TIP3   OH278207   2.530   2.864  15.129 -0.3740 -0.3967 -0.6552
18931TIP3    H178208   2.443   2.837  15.159  0.2552 -1.1288  0.6430
18931TIP3    H278209   2.574   2.782  15.107  0.5663 -0.2117  0.4199
18932TIP3   OH278210   1.989   4.555  16.392 -0.1196  0.2036  0.1672
18932TIP3    H178211   1.933   4.592  16.323 -0.7065 -0.6698  0.1593
18932TIP3    H278212   2.041   4.629  16.422  0.4611  0.5061 -1.5019
18933TIP3   OH278213   0.437   2.891   1.403 -0.4556 -0.8618  0.0904
18933TIP3    H178214   0.443   2.961   1.339  0.4780 -0.8532  0.1804
18933TIP3    H278215   0.511   2.906   1.463 -0.8674 -1.3049  0.7267
18934TIP3   OH278216   0.462   4.431   1.106 -0.2232 -0.3050 -0.1887
18934TIP3    H178217   0.514   4.508   1.080 -0.0188 -0.6863 -0.9251
18934TIP3    H278218   0.527   4.363   1.123 -0.4759 -0.7745 -1.0729
18935TIP3   OH278219   4.342   0.102   5.730  0.0526  0.3899  0.5076
18935TIP3    H178220   4.250   0.122   5.745  0.6286  2.7048  1.4375
18935TIP3    H278221   4.343   0.010   5.705 -2.3726 -0.0474  1.7190
18936TIP3   OH278222   1.981   6.153  11.503  0.1287  0.4750 -0.4557
18936TIP3    H178223   1.963   6.218  11.434  0.8063 -0.1599 -1.2492
18936TIP3    H278224   2.074   6.134  11.494 -0.0305 -0.4835 -0.1119
18937TIP3   OH278225   3.353   1.289  16.660 -0.0610 -0.0164 -0.1029
18937TIP3    H178226   3.259   1.292  16.645 -0.3171 -2.4490  0.6924
18937TIP3    H278227   3.378   1.381  16.672 -1.8013  0.9649 -3.0724
18938TIP3   OH278228   0.132   6.136   1.657  0.1841 -0.5825 -0.3278
18938TIP3    H178229   0.162   6.152   1.567 -2.4037 -1.4011 -1.4379
18938TIP3    H278230   0.189   6.067   1.689  3.8652  2.4409  0.3058
18939TIP3   OH278231   1.926   3.454   4.491  0.0585 -0.0971 -0.5366
18939TIP3    H178232   1.898   3.368   4.460  0.2553  0.1781 -1.5186
18939TIP3    H278233   1.860   3.514   4.458  1.4759  0.4949 -2.4356
18940TIP3   OH278234   1.562   6.628   4.671 -0.3803  0.3564 -0.1257
18940TIP3    H178235   1.554   6.681   4.592 -1.0332  0.5897  0.0994
18940TIP3    H278236   1.473   6.616   4.702 -0.0412  1.6628  1.5032
18941TIP3   OH278237   4.386   5.644  16.833  0.0736 -0.0040  0.3749
18941TIP3    H178238   4.319   5.588  16.872  0.3669 -0.1590  0.6644
18941TIP3    H278239   4.399   5.713  16.899  0.3913 -0.1254  0.4392
18942TIP3   OH278240   3.652   0.315   4.399 -0.8349 -0.1626  0.3120
18942TIP3    H178241   3.676   0.363   4.320 -0.5583  2.1630  1.7139
18942TIP3    H278242   3.557   0.304   4.393 -0.8888  0.4963 -0.0788
18943TIP3   OH278243   2.916   6.640  14.655  0.0213  0.0254 -0.1221
18943TIP3    H178244   2.994   6.587  14.642  0.0433 -0.0643  0.3472
18943TIP3    H278245   2.850   6.578  14.688  0.1765  0.3641  0.8522
18944TIP3   OH278246   0.401   4.243  14.535 -0.0490 -0.2229 -0.1105
18944TIP3    H178247   0.391   4.297  14.613 -0.1176  0.1667 -0.3802
18944TIP3    H278248   0.491   4.259  14.505 -0.8510  1.8289 -1.6732
18945TIP3   OH278249   2.746   4.969  15.153 -0.2463 -0.1091  0.2702
18945TIP3    H178250   2.774   5.052  15.115 -0.4367 -0.4811 -0.7307
18945TIP3    H278251   2.821   4.911  15.141 -0.8226 -0.6503 -0.9491
18946TIP3   OH278252   1.744   4.378   0.856 -0.2817 -0.3740  0.2316
18946TIP3    H178253   1.684   4.452   0.863  0.4059  0.3638 -1.2762
18946TIP3    H278254   1.791   4.378   0.939  0.1683  1.3178  0.0206
18947TIP3   OH278255   0.271   1.226   4.170  0.3101 -0.0696  0.8471
18947TIP3    H178256   0.235   1.229   4.258 -0.6108 -1.6669  0.5741
18947TIP3    H278257   0.336   1.156   4.173  1.1353  0.6769  0.5518
18948TIP3   OH278258   2.474   4.572   5.376 -0.2197  0.1976 -0.4012
18948TIP3    H178259   2.539   4.631   5.338 -0.5116 -0.4797 -2.0012
18948TIP3    H278260   2.394   4.625   5.381 -0.2760  0.1833 -1.0867
18949TIP3   OH278261   1.468   1.382  13.759  0.2552 -0.2636 -0.3177
18949TIP3    H178262   1.511   1.462  13.790 -0.0725  0.1393 -0.8996
18949TIP3    H278263   1.375   1.397  13.776  0.2847 -0.9365  0.4915
18950TIP3   OH278264   2.388   5.767   0.481 -0.1695 -0.1589  0.1362
18950TIP3    H178265   2.428   5.696   0.531 -1.4156 -1.6525 -0.8761
18950TIP3    H278266   2.412   5.749   0.390 -0.0573  1.0415 -0.0868
18951TIP3   OH278267   4.505   3.610   3.364  0.2368 -0.0347 -0.0592
18951TIP3    H178268   4.428   3.554   3.366  0.0959  0.1705  0.5695
18951TIP3    H278269   4.578   3.551   3.346  0.3233 -0.7236  2.2257
18952TIP3   OH278270   5.589   1.278  13.642 -0.2020 -0.3077  0.0847
18952TIP3    H178271   5.513   1.310  13.691 -1.0397 -2.0361  0.0005
18952TIP3    H278272   5.615   1.352  13.587  0.6287  1.6324  2.8689
18953TIP3   OH278273   2.892   6.641   2.089  0.1802 -0.4942 -0.7989
18953TIP3    H178274   2.870   6.667   2.179  0.3900  1.0538 -1.1570
18953TIP3    H278275   2.988   6.636   2.090  0.1398 -1.3241 -0.7314
18954TIP3   OH278276   6.360   3.800  12.138  0.4831 -0.7331  0.5561
18954TIP3    H178277   6.422   3.873  12.128  0.2011 -0.5741 -0.1175
18954TIP3    H278278   6.316   3.795  12.053 -0.0057 -1.2284  0.8345
18955TIP3   OH278279   2.070   0.570   6.366 -0.4451 -0.3774  0.0442
18955TIP3    H178280   2.050   0.656   6.403  0.4382 -0.3790  0.5426
18955TIP3    H278281   2.135   0.587   6.298 -1.0712 -0.5350 -0.6062
18956TIP3   OH278282   0.748   1.078  16.742 -0.0454 -0.3408 -0.3658
18956TIP3    H178283   0.706   1.033  16.669  1.0865  0.9039 -1.8461
18956TIP3    H278284   0.839   1.087  16.715  0.3612  0.3609  1.1207
18957TIP3   OH278285   1.468   6.661  16.459 -0.1978  0.0027  0.3885
18957TIP3    H178286   1.421   6.722  16.516  0.0558  3.2484 -2.5331
18957TIP3    H278287   1.556   6.656  16.496 -0.4745  0.7565  1.1792
18958TIP3   OH278288   0.545   2.410   4.488 -0.1883 -0.0251 -0.5425
18958TIP3    H178289   0.572   2.494   4.452 -1.0149 -0.0809 -1.3093
18958TIP3    H278290   0.540   2.352   4.412  0.0642 -0.6909 -0.0621
18959TIP3   OH278291   5.294   2.221   4.114 -0.1869  0.3588  0.1583
18959TIP3    H178292   5.321   2.258   4.030 -0.8596  2.1541  0.6747
18959TIP3    H278293   5.199   2.211   4.107  0.0527 -2.3412 -0.3121
18960TIP3   OH278294   5.061   6.510   3.262 -0.2623 -0.3138 -0.5507
18960TIP3    H178295   5.017   6.428   3.238 -0.8942  0.4552 -2.1562
18960TIP3    H278296   5.018   6.577   3.209 -1.0981  1.4151  2.1225
18961TIP3   OH278297   6.016   4.045  11.787 -0.2237 -0.4506 -0.2566
18961TIP3    H178298   6.064   4.094  11.720 -0.3617 -2.0210 -1.5870
18961TIP3    H278299   6.067   3.965  11.798  0.5799  0.3617  2.6384
18962TIP3   OH278300   1.394   1.999   6.391 -0.1678 -0.5705 -0.2327
18962TIP3    H178301   1.353   1.961   6.468  1.0239 -1.4990 -0.0322
18962TIP3    H278302   1.403   2.092   6.412  0.7829 -0.9250  1.0606
18963TIP3   OH278303   4.545   3.225  13.801  0.8089  0.5481 -0.2005
18963TIP3    H178304   4.597   3.156  13.759  0.3548  0.6943 -1.0181
18963TIP3    H278305   4.605   3.266  13.863  1.3457 -0.0008 -0.3507
18964TIP3   OH278306   1.874   5.546  14.341 -0.1395  0.2634 -0.1358
18964TIP3    H178307   1.915   5.468  14.304 -0.4423 -0.3709  0.8199
18964TIP3    H278308   1.929   5.619  14.312  0.7017 -0.4031 -0.2432
18965TIP3   OH278309   0.706   3.303   3.921  0.0673  0.1325  0.1529
18965TIP3    H178310   0.767   3.277   3.991  0.8353  2.0737  0.2878
18965TIP3    H278311   0.760   3.306   3.842 -0.4028 -0.3530 -0.1955
18966TIP3   OH278312   5.459   1.200  15.432  0.5882 -0.3720 -0.1968
18966TIP3    H178313   5.529   1.261  15.410  0.4498 -0.1042  0.1064
18966TIP3    H278314   5.393   1.213  15.364  0.7457 -0.4942 -0.3774
18967TIP3   OH278315   4.922   6.284   5.169  0.1720  0.4994 -0.5261
18967TIP3    H178316   4.942   6.365   5.215 -0.2137 -0.3694  1.2632
18967TIP3    H278317   4.996   6.271   5.110  1.4093  0.9476  0.8731
18968TIP3   OH278318   6.420   0.836  11.101 -0.0048  0.2981  0.0768
18968TIP3    H178319   6.360   0.895  11.056 -1.2653 -1.0287 -0.0655
18968TIP3    H278320   6.475   0.800  11.031 -0.9891 -0.6546 -0.2337
18969TIP3   OH278321   2.866   5.208  12.339  0.8373 -0.2794  0.5475
18969TIP3    H178322   2.795   5.209  12.274  2.3085 -2.0871 -1.2459
18969TIP3    H278323   2.885   5.300  12.356 -1.2720  0.2388  0.3655
18970TIP3   OH278324   4.063   3.499   1.355  0.2058  0.1998 -0.0219
18970TIP3    H178325   4.093   3.455   1.434 -0.0932  0.6004  0.3141
18970TIP3    H278326   4.000   3.565   1.385 -0.1163  0.1752 -0.6097
18971TIP3   OH278327   2.860   3.568  12.980 -0.6699  0.2416  0.4582
18971TIP3    H178328   2.904   3.641  12.937  0.2532 -0.3551  0.3361
18971TIP3    H278329   2.916   3.548  13.056 -0.3943 -0.8994 -0.0157
18972TIP3   OH278330   2.394   1.495   3.642  0.0868 -0.5959  0.1970
18972TIP3    H178331   2.457   1.512   3.573  1.0518 -2.0920  0.6651
18972TIP3    H278332   2.365   1.405   3.626  2.1895 -1.9495  3.0614
18973TIP3   OH278333   4.699   3.976  14.319  0.5040 -0.0881 -0.2085
18973TIP3    H178334   4.674   3.890  14.354 -0.6247  0.4923  0.4460
18973TIP3    H278335   4.617   4.022  14.307  1.0398  0.5932 -1.4254
18974TIP3   OH278336   4.671   6.032  11.256 -0.1051 -0.2266 -0.6463
18974TIP3    H178337   4.693   5.941  11.276  0.0321 -0.1866 -0.6102
18974TIP3    H278338   4.756   6.074  11.242 -0.1572 -0.0586 -0.4621
18975TIP3   OH278339   4.557   5.370  12.059 -0.5661  0.5578 -0.2943
18975TIP3    H178340   4.556   5.423  11.979 -0.4829  1.0381  0.0167
18975TIP3    H278341   4.625   5.305  12.045 -0.6320  0.5693 -0.6614
18976TIP3   OH278342   5.523   2.714   0.859  0.3430  0.6801  0.4760
18976TIP3    H178343   5.552   2.735   0.948  0.1719  1.2665  0.3953
18976TIP3    H278344   5.591   2.656   0.825  0.2895  0.2529  1.0722
18977TIP3   OH278345   6.172   3.491  15.766 -0.0149  0.2139 -0.3338
18977TIP3    H178346   6.223   3.562  15.728  0.2720  0.5876  0.6980
18977TIP3    H278347   6.143   3.439  15.691  0.8005  0.7224 -1.0260
18978TIP3   OH278348   0.893   0.927  13.411 -0.4252 -0.1972  0.3623
18978TIP3    H178349   0.873   0.855  13.470 -0.2151 -1.0788 -0.6283
18978TIP3    H278350   0.965   0.974  13.454  0.6215 -1.6026  0.2045
18979TIP3   OH278351   5.916   5.636  11.687 -0.4449  0.4176 -0.3523
18979TIP3    H178352   5.971   5.651  11.764  0.3068 -2.4714 -0.2211
18979TIP3    H278353   5.976   5.599  11.621 -1.6208  0.1865 -1.3336
18980TIP3   OH278354   4.777   5.531  15.224  0.3851  0.3200 -0.2410
18980TIP3    H178355   4.854   5.576  15.260  0.4119 -0.2284  0.3960
18980TIP3    H278356   4.703   5.587  15.247  0.4892  0.3731 -0.0389
18981TIP3   OH278357   1.536   5.339  14.993  0.3841 -0.1245 -0.0399
18981TIP3    H178358   1.599   5.266  14.991  0.2834 -0.2646  1.0793
18981TIP3    H278359   1.499   5.335  15.081  1.4834  2.2277  0.5984
18982TIP3   OH278360   4.833   2.606   4.975 -0.1050  0.0204 -0.1005
18982TIP3    H178361   4.775   2.602   4.898 -0.7543 -1.4135  0.4283
18982TIP3    H278362   4.797   2.678   5.028 -0.5731  0.0325 -0.4271
18983TIP3   OH278363   2.352   0.974  15.177  0.6642  0.3569 -0.3321
18983TIP3    H178364   2.282   1.016  15.226  0.1290 -0.4580 -0.3711
18983TIP3    H278365   2.335   0.998  15.085 -1.1720 -1.9465 -0.6958
18984TIP3   OH278366   1.947   3.806  11.230 -0.1554 -0.3574 -0.0060
18984TIP3    H178367   1.902   3.740  11.177  0.8451 -1.3330  0.3526
18984TIP3    H278368   1.976   3.760  11.308 -0.7448  0.8532  0.9679
18985TIP3   OH278369   0.845   4.682  11.908 -0.2500  0.0950 -0.1207
18985TIP3    H178370   0.909   4.625  11.951 -0.1464 -0.9685 -1.6369
18985TIP3    H278371   0.824   4.748  11.975  0.5614 -0.9710  1.2454
18986TIP3   OH278372   2.429   3.374   6.270 -0.0958 -0.3712  0.4735
18986TIP3    H178373   2.367   3.322   6.320 -1.5933  1.2279  0.3710
18986TIP3    H278374   2.469   3.312   6.209 -2.2685 -1.3057 -0.0848
18987TIP3   OH278375   6.317   4.772  12.366 -0.0626  0.2230 -0.0339
18987TIP3    H178376   6.231   4.732  12.357 -0.6693  1.5786 -0.4879
18987TIP3    H278377   6.316   4.813  12.452 -0.7694  2.1952 -0.9154
18988TIP3   OH278378   5.963   1.034   6.417  0.0293 -0.0564 -0.3679
18988TIP3    H178379   5.893   1.047   6.352  1.5150  2.1987 -1.6733
18988TIP3    H278380   6.040   1.010   6.365  1.0296  0.8639  0.6416
18989TIP3   OH278381   5.741   6.430  15.802 -0.3515 -0.0681 -0.1771
18989TIP3    H178382   5.715   6.433  15.895 -3.3666 -1.1576 -0.8557
18989TIP3    H278383   5.815   6.369  15.800  0.0494  0.2939  1.5453
18990TIP3   OH278384   2.202   3.791  13.758 -0.1198 -0.0219 -0.0633
18990TIP3    H178385   2.174   3.703  13.784 -0.0714  0.1874  0.7163
18990TIP3    H278386   2.139   3.850  13.800  0.8841  0.4032  0.9290
18991TIP3   OH278387   1.932   3.270  10.779 -0.5262 -0.1219  0.0898
18991TIP3    H178388   2.004   3.212  10.803 -0.0741 -0.0603 -1.0350
18991TIP3    H278389   1.858   3.212  10.762 -1.4903 -0.0718  3.4614
18992TIP3   OH278390   4.453   6.753  15.559  0.4117  0.8436 -0.2579
18992TIP3    H178391   4.389   6.816  15.593  0.1425  0.2548  0.3582
18992TIP3    H278392   4.440   6.675  15.613 -0.0458 -0.1424 -1.7346
18993TIP3   OH278393   4.584   2.213  16.366 -0.1532  0.4190 -0.3230
18993TIP3    H178394   4.593   2.150  16.294  1.6424  0.7605 -0.4402
18993TIP3    H278395   4.517   2.274  16.336  0.6420  0.6290 -1.7907
18994TIP3   OH278396   3.126   1.608  13.532  0.4332 -0.5702 -0.1417
18994TIP3    H178397   3.168   1.676  13.585 -1.1951  0.8472 -0.5753
18994TIP3    H278398   3.139   1.527  13.582  2.5240 -0.0034  0.3358
18995TIP3   OH278399   1.343   5.428   1.254  0.2783 -0.4143 -0.0187
18995TIP3    H178400   1.329   5.334   1.247 -0.6564 -0.2772 -0.2256
18995TIP3    H278401   1.265   5.466   1.214  0.4617  0.4445  0.4140
18996TIP3   OH278402   3.318   2.891  11.487  0.2823  0.1121 -0.4462
18996TIP3    H178403   3.387   2.847  11.438 -1.1963 -1.7261 -0.9910
18996TIP3    H278404   3.244   2.895  11.426 -0.8654 -0.1582  0.8702
18997TIP3   OH278405   0.682   3.430   4.937 -0.1202 -0.4489  0.3927
18997TIP3    H178406   0.662   3.441   5.029 -0.2404 -1.6041  0.5162
18997TIP3    H278407   0.706   3.338   4.928  0.0180 -0.3226 -0.7043
18998TIP3   OH278408   2.612   5.314  16.319  0.4087 -0.5525 -0.6207
18998TIP3    H178409   2.522   5.342  16.335  0.5730 -0.1450 -0.3905
18998TIP3    H278410   2.611   5.220  16.334  0.1682 -0.4465  0.0362
18999TIP3   OH278411   0.774   3.578  14.520  0.1955 -0.6136 -0.3561
18999TIP3    H178412   0.801   3.510  14.459 -1.6660 -0.3772 -1.5341
18999TIP3    H278413   0.690   3.609  14.486 -0.4287  0.2490  1.7829
19000TIP3   OH278414   6.648   4.006  10.947 -0.4818  0.1609  0.0232
19000TIP3    H178415   6.559   4.024  10.915 -0.5640 -1.1153 -0.5452
19000TIP3    H278416   6.678   4.089  10.984 -2.6399  0.1432  2.0286
19001TIP3   OH278417   4.044   2.441   4.250 -0.1419  0.1418 -0.7064
19001TIP3    H178418   3.978   2.510   4.255 -0.3093 -0.0617 -0.0498
19001TIP3    H278419   4.127   2.487   4.245 -0.2593  0.3900 -0.3454
19002TIP3   OH278420   6.088   2.184   4.846 -0.5537 -0.6699 -0.0055
19002TIP3    H178421   6.014   2.199   4.906 -1.6277 -0.5844 -1.3107
19002TIP3    H278422   6.100   2.089   4.846 -0.5300 -0.6704  0.3522
19003TIP3   OH278423   3.104   2.752   0.997 -0.1381  0.1657  0.2086
19003TIP3    H178424   3.137   2.692   1.064  0.9559 -1.1508 -1.4307
19003TIP3    H278425   3.017   2.718   0.975 -0.0823 -0.0091  0.2544
19004TIP3   OH278426   5.702   5.368   1.574 -0.3118  0.4120 -0.2293
19004TIP3    H178427   5.722   5.282   1.610  0.7790  0.8813  0.3530
19004TIP3    H278428   5.608   5.365   1.555 -0.1870 -1.0664 -0.7123
19005TIP3   OH278429   6.580   0.741   2.254 -0.2936  0.9296 -0.1971
19005TIP3    H178430   6.495   0.739   2.210 -1.4065  1.7189  1.8028
19005TIP3    H278431   6.633   0.801   2.201  0.1203 -1.7945 -3.1761
19006TIP3   OH278432   2.117   3.032   2.815  0.2113  0.0611 -0.3879
19006TIP3    H178433   2.180   2.981   2.765 -0.0163  0.7008 -1.3454
19006TIP3    H278434   2.050   2.969   2.841  0.2872 -0.2561 -0.9663
19007TIP3   OH278435   3.902   3.948  13.499 -0.1975  0.6292 -0.0101
19007TIP3    H178436   3.839   3.900  13.553  0.6310  0.5438  0.9199
19007TIP3    H278437   3.902   4.037  13.535  0.3475  0.5771  0.1351
19008TIP3   OH278438   0.269   4.479   0.304  0.0198 -0.0539 -0.6865
19008TIP3    H178439   0.225   4.395   0.314  2.8654 -1.5740  0.4928
19008TIP3    H278440   0.315   4.472   0.220  0.4217  0.2271 -0.4953
19009TIP3   OH278441   5.039   4.764   0.424  0.7274  0.0247  0.7016
19009TIP3    H178442   5.004   4.791   0.509  2.0430  0.1871  1.2254
19009TIP3    H278443   5.116   4.711   0.447  0.9287 -0.1689 -0.3926
19010TIP3   OH278444   1.454   1.528  12.990  0.2243 -0.0004  0.3899
19010TIP3    H178445   1.466   1.459  13.055  0.2720 -0.8732 -0.5162
19010TIP3    H278446   1.543   1.550  12.961  0.1688 -0.1112  0.1282
19011TIP3   OH278447   6.166   3.270  14.426  0.1315 -0.1723 -0.0194
19011TIP3    H178448   6.242   3.214  14.412  1.5046  1.8184 -0.9301
19011TIP3    H278449   6.136   3.248  14.515  2.6984  0.0410  0.9701
19012TIP3   OH278450   4.396   5.086   1.962  0.8512 -0.1821  0.2178
19012TIP3    H178451   4.440   5.079   1.877  0.4215 -0.7194  0.0359
19012TIP3    H278452   4.440   5.160   2.005 -0.0542  1.2351 -1.1490
19013TIP3   OH278453   2.117   4.666  11.805  0.1367 -0.7155 -0.1814
19013TIP3    H178454   2.158   4.726  11.743  0.2402 -0.0722  0.4845
19013TIP3    H278455   2.125   4.580  11.765  1.5761 -0.5160 -0.3721
19014TIP3   OH278456   4.831   4.758  15.229 -0.8708 -0.0067 -0.2850
19014TIP3    H178457   4.838   4.664  15.216  0.0131  0.1071 -0.6970
19014TIP3    H278458   4.755   4.784  15.175 -1.2750 -0.5082  0.0332
19015TIP3   OH278459   4.734   0.739  11.545  0.2968 -0.1480  0.2625
19015TIP3    H178460   4.659   0.777  11.591  0.3079 -0.8857  0.9138
19015TIP3    H278461   4.727   0.773  11.456 -0.9822 -0.4190  0.2324
19016TIP3   OH278462   6.265   4.187  17.027 -0.5757 -0.4847 -0.1986
19016TIP3    H178463   6.343   4.241  17.040 -0.9134 -0.2703  1.1391
19016TIP3    H278464   6.262   4.171  16.933 -0.2243  1.4626 -0.5770
19017TIP3   OH278465   3.589   3.109  13.505 -0.1594  0.2944 -0.1983
19017TIP3    H178466   3.547   3.171  13.446 -0.0061  0.1007 -0.5139
19017TIP3    H278467   3.678   3.142  13.516 -0.1226  0.2135 -0.2479
19018TIP3   OH278468   4.624   1.577  14.909 -0.4058  0.5056  0.5659
19018TIP3    H178469   4.553   1.520  14.936  0.8123 -1.4950 -0.2465
19018TIP3    H278470   4.596   1.613  14.825  0.1588 -1.5667 -0.5649
19019TIP3   OH278471   6.481   0.491  13.586  0.0443  0.3113  0.0268
19019TIP3    H178472   6.515   0.563  13.638 -1.0789 -0.2212  1.5588
19019TIP3    H278473   6.397   0.470  13.626  0.5221 -2.1144 -0.0946
19020TIP3   OH278474   1.145   6.243   0.635  0.1545 -0.6465  0.3038
19020TIP3    H178475   1.221   6.186   0.647 -0.8286 -1.7632  1.5059
19020TIP3    H278476   1.179   6.332   0.650  1.5710 -0.9422 -0.9472
19021TIP3   OH278477   0.571   0.368   3.224 -0.4112 -0.2765  1.0105
19021TIP3    H178478   0.665   0.371   3.203 -0.8676 -0.1776 -1.1936
19021TIP3    H278479   0.569   0.345   3.317  1.7947 -1.0263  0.9426
19022TIP3   OH278480   0.444   3.085  12.666  0.2802  0.3246  0.7728
19022TIP3    H178481   0.374   3.148  12.650  0.0148 -0.0991  0.1759
19022TIP3    H278482   0.398   3.002  12.681  0.6562 -0.1526 -0.5494
19023TIP3   OH278483   2.831   1.756  13.288  0.6976  0.0135  0.3815
19023TIP3    H178484   2.799   1.693  13.224  0.0476  0.9609 -0.2527
19023TIP3    H278485   2.912   1.791  13.249  0.3282  0.5548  0.0865
19024TIP3   OH278486   0.076   6.011   0.079  0.2248  0.3197  0.2742
19024TIP3    H178487   0.002   5.966   0.120 -0.1366 -1.4160 -2.0221
19024TIP3    H278488   0.069   6.102   0.109 -2.8975  0.2399  0.1525
19025TIP3   OH278489   0.680   5.322  11.958 -0.0063 -0.3024  0.1573
19025TIP3    H178490   0.703   5.386  12.025 -0.5099 -0.4200  0.4462
19025TIP3    H278491   0.747   5.333  11.890  0.1537  0.2327  0.3987
19026TIP3   OH278492   3.112   4.164   3.272  0.2880 -0.1633 -0.3230
19026TIP3    H178493   3.051   4.199   3.208 -1.1413 -0.5872  0.7340
19026TIP3    H278494   3.174   4.235   3.288  0.8824 -0.1664 -2.3655
19027TIP3   OH278495   2.088   3.688   0.504 -0.0880  0.2016 -0.4636
19027TIP3    H178496   2.027   3.690   0.430 -0.9893 -0.6460  0.2195
19027TIP3    H278497   2.175   3.686   0.464 -0.5786 -1.0012 -1.5324
19028TIP3   OH278498   1.622   4.470   6.034  0.2795 -0.2274  0.8535
19028TIP3    H178499   1.536   4.430   6.019 -0.4083  0.9802  1.3844
19028TIP3    H278500   1.622   4.547   5.977  0.5125  0.4473  1.7540
19029TIP3   OH278501   4.574   0.706  13.103 -0.9113 -0.5184 -0.4308
19029TIP3    H178502   4.654   0.753  13.079 -1.3874 -0.1490 -1.3498
19029TIP3    H278503   4.504   0.770  13.089 -1.3722 -0.8287  0.3955
19030TIP3   OH278504   6.106   4.718  13.511 -0.7175 -0.6271  0.4275
19030TIP3    H178505   6.142   4.630  13.512 -0.6481 -0.6157 -0.3277
19030TIP3    H278506   6.182   4.776  13.518 -0.8187 -0.6268  1.6599
19031TIP3   OH278507   0.390   6.030   3.965  0.0483  0.1715  0.2708
19031TIP3    H178508   0.397   6.107   4.021  1.1017  0.3209 -0.0402
19031TIP3    H278509   0.297   6.026   3.942  0.0274  1.5964 -0.0334
19032TIP3   OH278510   3.769   1.021   3.905 -0.4537  0.1172  0.4782
19032TIP3    H178511   3.711   0.967   3.851  1.2638 -0.2469 -1.1119
19032TIP3    H278512   3.740   1.111   3.888  0.1219  0.0226 -1.2244
19033TIP3   OH278513   0.840   6.285  16.267  0.0417  0.0817  0.5033
19033TIP3    H178514   0.798   6.275  16.352 -1.1226  1.0880  0.0733
19033TIP3    H278515   0.786   6.234  16.207  1.1788 -1.0998  0.4183
19034TIP3   OH278516   1.298   3.421   0.417 -0.1600 -0.1146  0.4431
19034TIP3    H178517   1.216   3.437   0.464 -1.4927  1.2973 -2.0939
19034TIP3    H278518   1.343   3.505   0.419  0.3754 -0.3978  0.3376
19035TIP3   OH278519   2.334   5.322  16.306  0.4287  0.2785 -0.1344
19035TIP3    H178520   2.266   5.346  16.369  1.1353  1.2003  0.2947
19035TIP3    H278521   2.289   5.263  16.245 -0.2268 -0.8115  1.3209
19036TIP3   OH278522   4.797   0.919  11.825 -0.4752  0.3489 -0.2718
19036TIP3    H178523   4.701   0.921  11.822 -0.6392 -0.4998  1.9190
19036TIP3    H278524   4.822   1.003  11.863 -0.1626  1.3147 -2.4533
19037TIP3   OH278525   3.780   5.932  13.220 -0.1928 -0.1184 -0.2561
19037TIP3    H178526   3.714   5.996  13.248  0.3808 -0.1528  1.2654
19037TIP3    H278527   3.860   5.984  13.209  0.2665 -0.5416  0.9540
19038TIP3   OH278528   0.894   4.578   1.096 -0.6130  0.2120 -0.2293
19038TIP3    H178529   0.887   4.615   1.008  0.0663  0.0904 -0.3391
19038TIP3    H278530   0.965   4.515   1.090  0.8331  1.6536  0.8873
19039TIP3   OH278531   0.728   4.903   3.536 -0.1007 -0.1651 -0.2746
19039TIP3    H178532   0.700   4.900   3.628 -0.2604 -1.4433 -0.3384
19039TIP3    H278533   0.688   4.982   3.501 -0.0500  0.3331  0.7563
19040TIP3   OH278534   5.727   2.442   2.941 -0.2197  0.5001  0.5538
19040TIP3    H178535   5.751   2.351   2.923  0.2107  0.2490  2.2556
19040TIP3    H278536   5.632   2.444   2.930 -0.1383  0.0658 -0.3415
19041TIP3   OH278537   0.988   0.500  12.756 -0.0562 -0.3324  0.1490
19041TIP3    H178538   1.043   0.425  12.780 -0.8145 -0.9853 -0.0865
19041TIP3    H278539   0.961   0.482  12.666 -0.6244 -0.0172  0.2506
19042TIP3   OH278540   0.223   0.963   1.755 -0.4139 -0.1238 -1.1052
19042TIP3    H178541   0.197   1.053   1.778  1.0446  0.0628  0.0056
19042TIP3    H278542   0.179   0.908   1.820 -0.4485 -0.0995 -1.1081
19043TIP3   OH278543   0.802   6.326   2.805  0.1902  0.0028  0.7385
19043TIP3    H178544   0.783   6.359   2.892  0.1117  0.3960  0.5775
19043TIP3    H278545   0.851   6.245   2.819  0.6411  0.3411  1.1487
19044TIP3   OH278546   1.108   0.916  16.758  0.3932  0.9397 -0.3197
19044TIP3    H178547   1.077   0.995  16.804  0.8182  0.6943  0.4146
19044TIP3    H278548   1.192   0.943  16.720 -0.6398  1.5988 -2.2885
19045TIP3   OH278549   4.254   5.513  11.401  0.0986 -0.4158 -0.3337
19045TIP3    H178550   4.257   5.433  11.455 -1.8488 -0.6562 -0.5160
19045TIP3    H278551   4.244   5.481  11.311  3.0535 -0.0083 -0.9096
19046TIP3   OH278552   6.466   2.013  11.679 -0.8628 -0.2446 -0.5566
19046TIP3    H178553   6.438   2.046  11.764  0.0325 -0.9835  0.0547
19046TIP3    H278554   6.562   2.015  11.683 -0.8015 -1.1359 -1.1832
19047TIP3   OH278555   2.888   3.907   4.945  0.4885  0.1493 -0.9948
19047TIP3    H178556   2.938   3.981   4.910  3.2010 -1.5725 -1.0775
19047TIP3    H278557   2.894   3.840   4.877 -0.3931 -0.7585 -0.2097
19048TIP3   OH278558   5.943   4.420  16.571  0.2466  0.1427  0.3468
19048TIP3    H178559   6.036   4.407  16.552  0.1537  0.1842 -0.1548
19048TIP3    H278560   5.939   4.434  16.665  0.6959 -0.3468  0.4428
19049TIP3   OH278561   3.400   3.572   2.586  0.1273  0.1618 -0.6401
19049TIP3    H178562   3.403   3.528   2.501  1.3566  0.2059 -0.6290
19049TIP3    H278563   3.441   3.657   2.571  1.0294 -0.1191  0.1547
19050TIP3   OH278564   6.511   3.365  12.519  0.1218  0.0407  0.5463
19050TIP3    H178565   6.422   3.339  12.545 -0.5586  1.8566  0.1388
19050TIP3    H278566   6.509   3.365  12.423 -0.2215  2.4311  0.4988
19051TIP3   OH278567   2.961   4.399   3.742  0.6139  0.2779 -0.5326
19051TIP3    H178568   3.030   4.446   3.696  0.7983  0.9009  0.3581
19051TIP3    H278569   2.970   4.308   3.714 -0.0623  0.8135 -2.6841
19052TIP3   OH278570   1.620   1.382   0.296 -0.5604 -0.1558  0.1317
19052TIP3    H178571   1.680   1.345   0.361  2.1737  2.7970 -0.4445
19052TIP3    H278572   1.577   1.454   0.342 -1.2116 -0.1959 -0.4046
19053TIP3   OH278573   2.714   1.567   3.293  0.0047 -0.0812 -0.4296
19053TIP3    H178574   2.657   1.627   3.245 -0.9018 -0.3131  0.3181
19053TIP3    H278575   2.785   1.546   3.231 -0.5794  0.4135 -1.2899
19054TIP3   OH278576   5.852   3.783   1.548 -0.1975  0.4019 -0.1869
19054TIP3    H178577   5.827   3.692   1.565  2.0324 -0.6802 -2.1758
19054TIP3    H278578   5.875   3.818   1.634 -0.0733 -1.2446  0.4894
19055TIP3   OH278579   3.883   2.908  14.163 -0.3834  0.1481 -0.4898
19055TIP3    H178580   3.952   2.912  14.097  0.5381  1.7647  0.4971
19055TIP3    H278581   3.831   2.987  14.149 -2.8229 -1.5433 -1.9244
19056TIP3   OH278582   1.174   6.002  14.582 -0.6557  0.1376  0.1350
19056TIP3    H178583   1.245   5.941  14.562 -0.3081  0.7803 -0.6385
19056TIP3    H278584   1.095   5.950  14.576 -0.4711  0.0332 -1.8153
19057TIP3   OH278585   1.614   4.801   2.585 -0.3636  0.1361  0.0408
19057TIP3    H178586   1.594   4.759   2.668 -2.3559 -0.6380 -0.7718
19057TIP3    H278587   1.529   4.824   2.548  0.5083  1.1911 -1.4283
19058TIP3   OH278588   3.385   2.285  11.005  0.3929 -0.2263  0.2396
19058TIP3    H178589   3.419   2.205  11.045  1.6043 -0.2197 -0.6928
19058TIP3    H278590   3.338   2.255  10.927 -1.7158 -0.2220  1.4672
19059TIP3   OH278591   6.703   3.093  13.658  0.1897 -0.1150  0.3651
19059TIP3    H178592   6.637   3.124  13.720  0.9822 -1.5357  1.9986
19059TIP3    H278593   6.774   3.157  13.665  0.3526 -0.3683  1.0778
19060TIP3   OH278594   2.224   0.957  11.152  0.4283 -0.2567 -0.3811
19060TIP3    H178595   2.272   0.897  11.210 -2.3713 -2.1680  0.1726
19060TIP3    H278596   2.239   0.922  11.064 -0.5940 -1.3948 -0.1271
19061TIP3   OH278597   4.302   5.473   6.073 -0.0257  0.1914 -0.3248
19061TIP3    H178598   4.229   5.485   6.133  0.3123 -1.0382  0.3732
19061TIP3    H278599   4.369   5.534   6.104 -0.3729  0.5853 -0.3402
19062TIP3   OH278600   4.082   0.635  13.569  0.1056  0.0306 -0.3723
19062TIP3    H178601   4.177   0.640  13.561 -0.0116  0.2498 -2.0456
19062TIP3    H278602   4.062   0.543  13.551 -0.0055  0.0142 -0.1606
19063TIP3   OH278603   6.121   1.301  16.792  0.0123 -0.3659 -0.2839
19063TIP3    H178604   6.109   1.359  16.717  1.6355  0.2308 -0.1378
19063TIP3    H278605   6.050   1.237  16.786 -1.5154  1.3027 -0.7485
19064TIP3   OH278606   4.141   5.370   4.318  0.1090 -0.2425  0.4326
19064TIP3    H178607   4.050   5.398   4.319 -0.7845 -2.7882 -0.7284
19064TIP3    H278608   4.149   5.318   4.238  2.5048 -0.3968  0.6864
19065TIP3   OH278609   6.428   4.359   5.192  0.7022 -0.1537 -0.5593
19065TIP3    H178610   6.465   4.446   5.209  0.9273 -0.2360 -0.6253
19065TIP3    H278611   6.475   4.328   5.115 -2.5273  1.5639 -3.5149
19066TIP3   OH278612   3.939   5.395   3.309  1.0266  0.5141  0.2925
19066TIP3    H178613   3.963   5.313   3.351  1.0199  0.4845  0.2380
19066TIP3    H278614   3.852   5.379   3.272  1.4864  0.1868 -0.6826
19067TIP3   OH278615   2.672   4.159   0.948 -0.1901  0.8438 -0.6261
19067TIP3    H178616   2.636   4.161   0.859  0.0280  2.7204 -0.6967
19067TIP3    H278617   2.640   4.076   0.984 -0.6644  0.2651 -2.2842
19068TIP3   OH278618   1.246   2.493  11.096  0.1639  0.0197  0.0578
19068TIP3    H178619   1.278   2.582  11.083  0.8661 -0.2422 -0.0830
19068TIP3    H278620   1.171   2.502  11.155 -2.0258  1.0769 -2.6770
19069TIP3   OH278621   1.181   1.249  11.496  0.4167 -0.0369 -1.0277
19069TIP3    H178622   1.140   1.162  11.497  2.4192 -1.1499  2.0812
19069TIP3    H278623   1.228   1.253  11.413 -0.1356 -1.7287 -1.4580
19070TIP3   OH278624   6.236   1.221   2.054 -0.1476  0.0904 -0.1412
19070TIP3    H178625   6.306   1.158   2.072  0.3911  0.8400  0.4396
19070TIP3    H278626   6.156   1.171   2.063  0.2641 -0.4598  0.5734
19071TIP3   OH278627   1.085   6.715   3.433 -0.1574  0.4736  0.2890
19071TIP3    H178628   1.137   6.744   3.358  0.5178  1.9544  1.2760
19071TIP3    H278629   1.116   6.769   3.506 -0.8591 -0.8459  1.6286
19072TIP3   OH278630   1.588   5.720  10.555 -0.0354  0.3545  0.8493
19072TIP3    H178631   1.494   5.705  10.544  0.4118 -1.9049 -0.5244
19072TIP3    H278632   1.604   5.805  10.514 -0.9431 -0.9724 -2.6078
19073TIP3   OH278633   0.537   2.623  16.342  0.5835 -0.4055  0.0311
19073TIP3    H178634   0.572   2.541  16.306  3.0336  0.9847 -1.0611
19073TIP3    H278635   0.591   2.640  16.419 -0.0060  0.0978  0.3370
19074TIP3   OH278636   3.588   3.654   0.690  0.2726 -0.1878 -0.0280
19074TIP3    H178637   3.596   3.678   0.598 -1.3400 -2.9005 -0.9895
19074TIP3    H278638   3.519   3.710   0.725  0.2986  0.2687 -0.7077
19075TIP3   OH278639   3.494   3.861  14.414 -0.2008  0.2685  0.3236
19075TIP3    H178640   3.589   3.861  14.424 -0.1400 -0.0763 -0.2096
19075TIP3    H278641   3.480   3.847  14.320 -0.8163 -3.5294  0.8337
19076TIP3   OH278642   5.065   5.401  11.671 -0.3112  0.4612  0.3480
19076TIP3    H178643   5.014   5.391  11.752  2.5077 -1.7491  2.0450
19076TIP3    H278644   5.089   5.493  11.668  0.4635  0.3841  2.7080
19077TIP3   OH278645   3.069   3.403  12.845  0.1442  0.5750 -0.9375
19077TIP3    H178646   3.010   3.371  12.912 -3.1930 -0.4666 -4.0590
19077TIP3    H278647   3.129   3.330  12.828  0.7480  0.7056  0.4989
19078TIP3   OH278648   5.228   4.034   3.922 -0.5197 -0.3694 -0.1548
19078TIP3    H178649   5.259   4.116   3.960  0.3896 -1.4948  1.6760
19078TIP3    H278650   5.276   4.025   3.840  0.4508  0.2496  0.3297
19079TIP3   OH278651   1.370   1.070  11.770  0.1748 -0.1062 -0.1868
19079TIP3    H178652   1.406   1.138  11.713  0.3269  0.1478  0.2066
19079TIP3    H278653   1.282   1.053  11.735 -0.1786  0.8723  0.1905
19080TIP3   OH278654   0.703   6.637   2.257  0.5696  0.6397  0.1563
19080TIP3    H178655   0.776   6.575   2.265 -0.4610 -0.5618  0.5897
19080TIP3    H278656   0.635   6.588   2.212 -1.1280  0.6143  2.5394
19081TIP3   OH278657   6.618   6.170   0.297 -0.6724  0.1847  0.7166
19081TIP3    H178658   6.633   6.080   0.267  0.0587  0.2131  0.9819
19081TIP3    H278659   6.529   6.190   0.268  0.0983  0.3279 -1.7968
19082TIP3   OH278660   6.590   3.605   1.311 -0.0538 -0.0063  0.2197
19082TIP3    H178661   6.558   3.620   1.222  0.3374  0.3870  0.1439
19082TIP3    H278662   6.630   3.688   1.337  1.7232 -0.7510 -0.0274
19083TIP3   OH278663   4.538   2.748  13.768  0.0274  0.3533  0.8770
19083TIP3    H178664   4.476   2.800  13.718 -0.9414 -0.4756  1.1663
19083TIP3    H278665   4.486   2.712  13.840  0.7975 -0.5217  1.0175
19084TIP3   OH278666   5.851   4.439  17.092  0.0118 -0.0924  0.4255
19084TIP3    H178667   5.854   4.345  17.104 -0.7765  0.1113  2.6393
19084TIP3    H278668   5.916   4.474  17.153 -2.9306  0.9725  3.1996
19085TIP3   OH278669   2.536   1.730  16.613 -1.0669 -0.1288 -0.1362
19085TIP3    H178670   2.503   1.793  16.549  0.8249 -0.0750 -1.1273
19085TIP3    H278671   2.567   1.656  16.560  1.9377  0.5537  0.4785
19086TIP3   OH278672   5.180   6.104   1.204 -0.2517 -0.4732  0.2497
19086TIP3    H178673   5.230   6.064   1.133  1.0531 -0.2147  0.9891
19086TIP3    H278674   5.218   6.067   1.283 -0.4898  0.5748  0.8674
19087TIP3   OH278675   4.919   5.589  15.597 -0.2996  0.1368 -0.0669
19087TIP3    H178676   4.825   5.572  15.590  0.0521 -2.2417  0.1856
19087TIP3    H278677   4.951   5.522  15.658  1.1714  2.5928  2.0288
19088TIP3   OH278678   1.677   4.247   2.236  0.7001  0.1862  0.1631
19088TIP3    H178679   1.700   4.164   2.278  0.2636  0.7812  1.6606
19088TIP3    H278680   1.749   4.306   2.258  0.6445  0.4104 -0.2512
19089TIP3   OH278681   3.021   1.453   3.524  0.8721 -0.1690  0.5713
19089TIP3    H178682   3.110   1.483   3.542  1.6454 -2.0427  0.1029
19089TIP3    H278683   2.966   1.530   3.539  2.7782  1.6898 -1.3672
19090TIP3   OH278684   4.220   0.270   1.295  0.3254 -0.3783 -0.4558
19090TIP3    H178685   4.306   0.275   1.254 -0.2845  2.3521 -1.5846
19090TIP3    H278686   4.160   0.303   1.229 -0.6929  4.4344  2.4102
19091TIP3   OH278687   4.415   3.033   6.268  0.5924  0.0869 -0.0885
19091TIP3    H178688   4.424   3.061   6.359  1.8734 -0.1827 -0.1181
19091TIP3    H278689   4.424   2.938   6.271 -3.0931 -0.3807 -0.0696
19092TIP3   OH278690   2.259   5.955  10.998  0.7321  0.2144  0.0687
19092TIP3    H178691   2.281   5.863  11.012  1.7393  0.4831  0.3300
19092TIP3    H278692   2.216   5.957  10.913 -0.3661 -0.6607  0.5864
19093TIP3   OH278693   6.666   4.146   0.803  0.0604  0.4096  0.2479
19093TIP3    H178694   6.650   4.119   0.893  1.1048 -0.5911  0.1621
19093TIP3    H278695   6.718   4.226   0.810  0.2681  0.2489  0.5318
19094TIP3   OH278696   1.442   2.446  14.415 -0.5312 -0.7457  0.4970
19094TIP3    H178697   1.502   2.494  14.472 -1.4863  0.4881  0.5170
19094TIP3    H278698   1.389   2.514  14.374  1.0105 -1.4199 -2.9771
19095TIP3   OH278699   1.764   3.186   5.910  0.0278  0.0277  0.1038
19095TIP3    H178700   1.745   3.197   6.004 -0.9258  2.5285 -0.3193
19095TIP3    H278701   1.696   3.237   5.866  0.3361 -1.2594 -2.0024
19096TIP3   OH278702   5.686   4.570  16.303  0.1614 -0.0270 -0.8764
19096TIP3    H178703   5.777   4.542  16.291  0.0986 -0.9899  0.5502
19096TIP3    H278704   5.634   4.491  16.286 -0.2019 -0.1877  0.7886
19097TIP3   OH278705   6.500   2.183  12.990  0.0925  0.8319  0.4056
19097TIP3    H178706   6.408   2.179  13.017 -0.5457  0.7448 -1.5627
19097TIP3    H278707   6.540   2.105  13.028 -1.1231 -0.1287 -0.2060
19098TIP3   OH278708   1.210   5.865  10.940  0.1205 -0.0513 -0.5008
19098TIP3    H178709   1.194   5.958  10.957 -0.4094 -0.1122 -0.6332
19098TIP3    H278710   1.287   5.844  10.992 -0.8131  0.0324  0.9792
19099TIP3   OH278711   5.252   2.097  16.394  0.1837 -0.5449 -0.7315
19099TIP3    H178712   5.159   2.081  16.411  0.3660  0.1883  1.3186
19099TIP3    H278713   5.253   2.147  16.312 -1.2901 -0.0563 -0.4935
19100TIP3   OH278714   0.614   4.140   4.526 -0.0271  0.4067  0.0933
19100TIP3    H178715   0.664   4.183   4.595 -1.0503  2.5556 -0.4088
19100TIP3    H278716   0.632   4.047   4.538  0.7175  0.7807  2.5332
19101TIP3   OH278717   0.615   1.871  12.350 -0.1835  0.1465  0.3880
19101TIP3    H178718   0.560   1.927  12.295 -0.2879  1.0320  1.3577
19101TIP3    H278719   0.626   1.790  12.300  0.6374  1.3317 -1.4267
19102TIP3   OH278720   0.708   4.902  12.290 -0.0555 -0.2833 -0.6495
19102TIP3    H178721   0.714   4.818  12.246 -1.0378 -0.9151  0.3593
19102TIP3    H278722   0.646   4.887  12.362 -1.2235  1.6015 -1.1760
19103TIP3   OH278723   6.116   2.988   1.264 -0.4379  0.1990 -0.0046
19103TIP3    H178724   6.145   3.048   1.333  1.0440  1.2491 -1.4939
19103TIP3    H278725   6.033   2.954   1.297  0.8077 -0.3649  2.9111
19104TIP3   OH278726   1.921   2.339   0.277  0.3121 -0.1447  0.8258
19104TIP3    H178727   1.929   2.386   0.360  0.8434  1.0507  0.1351
19104TIP3    H278728   1.942   2.405   0.211  0.7171 -1.2897 -0.2172
19105TIP3   OH278729   2.496   0.862   5.379  0.1264 -0.4461  0.0272
19105TIP3    H178730   2.519   0.929   5.443  0.7450 -1.2524  0.6627
19105TIP3    H278731   2.510   0.779   5.424 -0.3734 -1.0153 -0.8340
19106TIP3   OH278732   4.754   0.705  13.471  0.3093  0.1200 -0.1948
19106TIP3    H178733   4.773   0.660  13.389  1.9363  1.1899 -0.4479
19106TIP3    H278734   4.797   0.652  13.538  1.1014  0.5864 -0.3335
19107TIP3   OH278735   4.385   3.780  13.436  0.5821  0.0400  0.5620
19107TIP3    H178736   4.299   3.809  13.407  1.3528  1.1831 -0.7065
19107TIP3    H278737   4.430   3.753  13.356  0.5885 -3.0091  1.4498
19108TIP3   OH278738   4.126   3.858  16.906 -0.0007  0.1836 -0.4672
19108TIP3    H178739   4.084   3.864  16.992  0.6473  3.2412 -0.2657
19108TIP3    H278740   4.204   3.804  16.922 -1.2882 -1.5919  0.1746
19109TIP3   OH278741   2.573   1.654   1.786  0.4624 -0.1066  0.1707
19109TIP3    H178742   2.597   1.652   1.878 -1.4355 -0.0778  0.6892
19109TIP3    H278743   2.485   1.617   1.782  1.3960 -2.4940 -1.9517
19110TIP3   OH278744   3.878   1.214   6.389  0.2204  0.2032 -0.1356
19110TIP3    H178745   3.892   1.177   6.303 -1.5273 -0.4768 -0.1712
19110TIP3    H278746   3.922   1.154   6.449 -2.4293 -2.0056 -0.2020
19111TIP3   OH278747   3.480   5.862  13.434  0.5886  0.2819  0.3692
19111TIP3    H178748   3.456   5.951  13.407  2.1133  0.4256 -0.6665
19111TIP3    H278749   3.485   5.812  13.353 -0.4557 -0.8360  0.9582
19112TIP3   OH278750   1.015   4.794   0.847  0.0434 -0.0343 -0.0979
19112TIP3    H178751   1.082   4.861   0.866 -0.6105  1.7186 -3.2149
19112TIP3    H278752   0.968   4.829   0.770 -2.2691 -2.7741 -0.0739
19113TIP3   OH278753   6.686   5.629   2.736  0.4862 -0.1688 -0.6940
19113TIP3    H178754   6.641   5.596   2.658  0.0984 -1.0038 -0.1354
19113TIP3    H278755   6.616   5.668   2.789  0.6328 -0.2360 -0.4502
19114TIP3   OH278756   2.502   1.639  11.527 -0.0865  0.5899 -0.1071
19114TIP3    H178757   2.417   1.627  11.484  0.4838  0.0707 -1.1322
19114TIP3    H278758   2.483   1.630  11.620 -1.2034  0.7826 -0.2987
19115TIP3   OH278759   6.365   5.316   0.475  0.3341 -0.4290  0.3353
19115TIP3    H178760   6.429   5.372   0.520  0.9231 -0.1590 -0.7960
19115TIP3    H278761   6.305   5.377   0.433 -1.1001 -0.6811  1.9225
19116TIP3   OH278762   5.299   4.091  14.723 -0.0612 -0.5579 -0.2198
19116TIP3    H178763   5.244   4.029  14.770 -1.6733  1.1620  0.3017
19116TIP3    H278764   5.345   4.139  14.793 -0.2606  0.0746 -0.5155
19117TIP3   OH278765   1.942   2.475  13.868  0.2024 -0.0742 -0.2689
19117TIP3    H178766   1.848   2.471  13.887  0.3090 -0.7860  0.1425
19117TIP3    H278767   1.977   2.536  13.934  0.1839 -0.6185  0.2542
19118TIP3   OH278768   1.365   4.887   2.486  0.5025  0.3389  0.0879
19118TIP3    H178769   1.391   4.972   2.450  1.8063  0.7396  1.7812
19118TIP3    H278770   1.304   4.909   2.557  0.9056 -0.1108  0.5845
19119TIP3   OH278771   6.184   1.755  16.625  0.1047  0.0760 -0.0178
19119TIP3    H178772   6.216   1.725  16.540 -1.1408 -2.1619  0.2087
19119TIP3    H278773   6.251   1.728  16.687 -0.0903 -0.5045 -0.0492
19120TIP3   OH278774   1.307   0.864   0.744 -0.3580 -0.7958 -0.2684
19120TIP3    H178775   1.246   0.815   0.798 -2.5081  1.6395 -0.2884
19120TIP3    H278776   1.359   0.915   0.806 -2.1710  1.2629 -0.3141
19121TIP3   OH278777   3.816   3.684  11.561 -0.2038 -0.6907  0.0083
19121TIP3    H178778   3.851   3.620  11.499 -2.2088 -2.0903  0.2142
19121TIP3    H278779   3.802   3.635  11.641  0.2594  0.5696  0.8987
19122TIP3   OH278780   0.570   2.134  16.599  0.0914  0.2538 -0.0963
19122TIP3    H178781   0.636   2.069  16.575 -0.7195 -0.3967 -0.6362
19122TIP3    H278782   0.584   2.206  16.537 -0.2901 -0.2879 -0.8338
19123TIP3   OH278783   2.645   3.046   2.983  0.6464 -0.4297  0.2481
19123TIP3    H178784   2.563   3.090   2.964  1.5732  1.8732  1.2303
19123TIP3    H278785   2.651   3.045   3.079  1.1918 -1.7297  0.2284
19124TIP3   OH278786   2.733   4.659   2.811  0.0284 -0.2606  0.1505
19124TIP3    H178787   2.658   4.630   2.864  0.9043 -1.6323  0.7023
19124TIP3    H278788   2.709   4.637   2.721 -0.4012 -0.3055  0.2739
19125TIP3   OH278789   6.046   3.641   1.388 -0.4134  0.1160  0.4181
19125TIP3    H178790   6.060   3.664   1.480 -0.0549  1.8670 -0.0294
19125TIP3    H278791   5.964   3.592   1.388 -1.8444  2.3259  1.4263
19126TIP3   OH278792   4.771   2.662   0.098 -0.2130 -0.0912  0.4019
19126TIP3    H178793   4.827   2.700   0.165  0.9383  1.8654 -1.5334
19126TIP3    H278794   4.830   2.642   0.026 -1.7410  0.5650 -1.1133
19127TIP3   OH278795   1.205   4.246   5.756  0.4044 -0.3484 -0.0420
19127TIP3    H178796   1.167   4.254   5.843  0.1873 -1.5135 -0.0140
19127TIP3    H278797   1.266   4.320   5.750  0.6000 -0.3797  1.1891
19128TIP3   OH278798   0.116   1.452   1.419 -0.1538  0.0579 -0.1749
19128TIP3    H178799   0.105   1.465   1.325  0.0892 -0.3085 -0.2552
19128TIP3    H278800   0.180   1.518   1.445 -0.7000  0.5835 -0.1475
19129TIP3   OH278801   3.843   2.963  11.989  0.1710 -0.5766  0.3214
19129TIP3    H178802   3.798   3.032  11.941  0.7214 -0.8874 -0.6777
19129TIP3    H278803   3.807   2.967  12.078 -1.9779 -0.9781 -0.4837
19130TIP3   OH278804   5.223   1.343  12.830  0.0429  0.2313  0.6670
19130TIP3    H178805   5.246   1.418  12.775 -0.8607  0.8477  1.1036
19130TIP3    H278806   5.187   1.279  12.769  1.6501 -0.2341  0.1620
19131TIP3   OH278807   3.959   0.299   0.473  0.0909 -0.0099  0.0154
19131TIP3    H178808   3.948   0.245   0.551 -2.2443  0.1656 -0.1235
19131TIP3    H278809   3.945   0.389   0.504 -0.2708  0.1120 -0.4882
19132TIP3   OH278810   3.595   4.447   1.412  0.4352 -0.0769  0.1149
19132TIP3    H178811   3.651   4.500   1.469  0.3778  0.5067 -0.3688
19132TIP3    H278812   3.524   4.417   1.469 -2.0445  3.9744 -0.4740
19133TIP3   OH278813   2.848   2.570  15.291  0.1455  0.1804 -0.0530
19133TIP3    H178814   2.778   2.506  15.298  1.0709 -0.7253  1.6917
19133TIP3    H278815   2.822   2.627  15.219 -1.5336 -1.1339 -0.5450
19134TIP3   OH278816   1.678   0.801  14.945  0.4376  0.9318  0.4003
19134TIP3    H178817   1.591   0.805  14.985  0.3154  0.9472  0.1345
19134TIP3    H278818   1.671   0.856  14.867  0.3847  0.1257 -0.1817
19135TIP3   OH278819   2.725   6.216   1.120 -0.3322  0.5160 -0.2630
19135TIP3    H178820   2.656   6.267   1.162  0.9851  2.0300  0.1184
19135TIP3    H278821   2.711   6.230   1.026 -1.2502 -0.1853 -0.2517
19136TIP3   OH278822   2.679   0.895  15.485 -0.4523  0.2335  0.2293
19136TIP3    H178823   2.652   0.913  15.395  2.9053  1.3524 -0.7302
19136TIP3    H278824   2.646   0.807  15.504 -1.1035 -0.0901 -2.1696
19137TIP3   OH278825   2.737   5.789  13.449 -0.7339 -0.1122  0.1077
19137TIP3    H178826   2.673   5.859  13.434 -1.5841 -0.8518  0.2066
19137TIP3    H278827   2.699   5.736  13.519 -0.1599 -0.7426 -0.0483
19138TIP3   OH278828   4.978   1.336  14.475  0.1967 -0.1323 -0.2509
19138TIP3    H178829   4.915   1.283  14.425 -0.6518 -0.3328  0.9933
19138TIP3    H278830   4.991   1.414  14.421 -1.9286  0.3947 -0.1053
19139TIP3   OH278831   1.290   6.579  11.762 -0.0511 -0.3062  0.3750
19139TIP3    H178832   1.293   6.542  11.674  1.0537 -2.5240  1.2855
19139TIP3    H278833   1.279   6.673  11.747  1.4668 -0.4309 -2.1669
19140TIP3   OH278834   6.712   0.039  16.533 -0.4187 -0.0382  0.4684
19140TIP3    H178835   6.694  -0.053  16.551  0.0753 -0.1430  0.4191
19140TIP3    H278836   6.794   0.039  16.484  0.1936  0.4974  1.4535
19141TIP3   OH278837   0.760   4.391  12.035 -0.1718  0.4945  0.7573
19141TIP3    H178838   0.820   4.320  12.013 -0.2007 -0.1719  2.6604
19141TIP3    H278839   0.698   4.352  12.096 -0.8125  1.9023  1.0457
19142TIP3   OH278840   6.245   6.432   3.311 -0.2270  0.1083 -0.0207
19142TIP3    H178841   6.304   6.357   3.308 -0.9201 -0.5191  1.1199
19142TIP3    H278842   6.283   6.495   3.250  1.6814 -0.2219  0.7451
19143TIP3   OH278843   0.213   0.453   6.350  0.3015  0.1862  0.0552
19143TIP3    H178844   0.218   0.372   6.298 -0.5166  0.9222 -1.2165
19143TIP3    H278845   0.300   0.491   6.343 -0.1853  1.0398 -2.1140
19144TIP3   OH278846   3.645   4.663  13.970 -0.0973 -0.1732 -0.2186
19144TIP3    H178847   3.666   4.753  13.993 -0.4111  0.0262 -0.7159
19144TIP3    H278848   3.691   4.648  13.888  0.4340 -0.6562  0.1619
19145TIP3   OH278849   6.477   1.953   2.570 -0.1469 -0.4281  0.3397
19145TIP3    H178850   6.518   2.000   2.497  0.7306  0.4276  1.3625
19145TIP3    H278851   6.501   1.861   2.555 -0.3651 -0.3325 -0.6866
19146TIP3   OH278852   1.607   2.178   5.500 -0.1618 -0.0287  0.3604
19146TIP3    H178853   1.677   2.236   5.467  1.8948 -2.4162  0.1946
19146TIP3    H278854   1.618   2.179   5.595 -0.6233  0.3924  0.4154
19147TIP3   OH278855   1.013   6.047  16.215 -0.0506  0.0187 -0.2982
19147TIP3    H178856   0.997   6.025  16.123 -2.1400  0.5976 -0.1232
19147TIP3    H278857   1.010   6.143  16.217 -0.3830 -0.0031  0.4293
19148TIP3   OH278858   1.686   2.279   3.260  0.1039 -0.2614  0.1827
19148TIP3    H178859   1.702   2.337   3.335 -0.7003 -0.8140  0.7976
19148TIP3    H278860   1.628   2.329   3.203 -1.5906 -0.8829  1.2971
19149TIP3   OH278861   4.756   1.406  11.674 -0.2010 -0.1668 -0.7298
19149TIP3    H178862   4.680   1.366  11.632 -1.1908  2.2491 -1.4668
19149TIP3    H278863   4.811   1.436  11.601 -0.7352  1.9315 -0.3329
19150TIP3   OH278864   1.417   4.767   2.253  0.6824 -0.0240  0.2084
19150TIP3    H178865   1.433   4.774   2.347  0.1680  0.3202  0.2737
19150TIP3    H278866   1.350   4.832   2.235  1.0793  0.2060 -0.4774
19151TIP3   OH278867   1.240   1.516  13.252  0.4215  0.4946 -0.2796
19151TIP3    H178868   1.335   1.503  13.254  0.2949 -0.3665  0.5953
19151TIP3    H278869   1.205   1.446  13.306 -0.7511  0.5525 -0.9295
19152TIP3   OH278870   4.488   3.828   6.042 -0.1774 -0.1694  0.5466
19152TIP3    H178871   4.398   3.836   6.073 -2.4840 -3.1290 -4.3069
19152TIP3    H278872   4.511   3.737   6.057  1.9780  0.4225  1.2750
19153TIP3   OH278873   2.633   0.497  13.967 -0.1608 -0.0712  0.2285
19153TIP3    H178874   2.570   0.558  13.928 -0.2481  0.1537  0.7067
19153TIP3    H278875   2.586   0.459  14.041 -0.7498 -2.0834 -1.0834
19154TIP3   OH278876   6.711   6.497  17.173 -0.0934  0.2072 -0.0005
19154TIP3    H178877   6.654   6.574  17.170 -3.1011 -1.8108 -3.3453
19154TIP3    H278878   6.772   6.511  17.100  2.7700  1.4954  2.4361
19155TIP3   OH278879   1.599   0.583  11.525  0.5794 -0.4473  0.0019
19155TIP3    H178880   1.679   0.562  11.572  1.5534  0.0767 -1.3726
19155TIP3    H278881   1.594   0.518  11.455 -0.1708 -0.4447  0.0476
19156TIP3   OH278882   3.379   1.408   2.533  0.0707 -0.5056  0.8830
19156TIP3    H178883   3.323   1.396   2.609  0.9214  0.6702  1.7373
19156TIP3    H278884   3.359   1.497   2.502  0.2189 -0.7230  0.1478
19157TIP3   OH278885   4.643   6.198   2.121  0.6277 -0.3826  0.9738
19157TIP3    H178886   4.663   6.147   2.042  0.7546 -1.6069  1.7590
19157TIP3    H278887   4.728   6.230   2.151  0.7647 -1.0849  1.3608
19158TIP3   OH278888   5.329   6.730   0.941 -0.1604  0.2847 -0.0959
19158TIP3    H178889   5.271   6.689   1.006 -0.3621  2.0162  0.8698
19158TIP3    H278890   5.291   6.705   0.857 -1.5233  0.2520  0.5007
19159TIP3   OH278891   0.413   2.315   0.605 -0.0692  0.3579 -0.0896
19159TIP3    H178892   0.441   2.262   0.530 -0.2784  1.4588 -0.9942
19159TIP3    H278893   0.385   2.398   0.565  0.3732  1.1917  1.2736
19160TIP3   OH278894   0.348   4.957   4.253 -0.1774  0.2031  0.2073
19160TIP3    H178895   0.256   4.932   4.244 -0.0509 -0.8096  1.4536
19160TIP3    H278896   0.395   4.874   4.260  0.5434  0.7117  1.9841
19161TIP3   OH278897   5.941   3.692   5.998 -0.3126  0.4196 -0.0947
19161TIP3    H178898   5.888   3.766   6.029 -1.7495  0.3846 -2.2496
19161TIP3    H278899   5.877   3.624   5.978  0.8014 -0.5573 -0.4156
19162TIP3   OH278900   5.796   6.217  14.160 -0.1731 -0.6332 -0.7768
19162TIP3    H178901   5.859   6.145  14.165  0.8512  0.2491 -0.6504
19162TIP3    H278902   5.793   6.252  14.250 -0.1651 -0.1117 -0.9768
19163TIP3   OH278903   0.588   4.775  15.856  0.6364 -0.6100 -0.1594
19163TIP3    H178904   0.611   4.690  15.893 -1.3281 -0.9717  0.3534
19163TIP3    H278905   0.515   4.757  15.797  0.5753  0.6439 -0.4974
19164TIP3   OH278906   0.501   1.793   0.527 -0.4317 -0.2573  0.2233
19164TIP3    H178907   0.475   1.701   0.533  0.5523 -0.5841 -0.2744
19164TIP3    H278908   0.464   1.833   0.606  1.0960 -1.5914  1.7127
19165TIP3   OH278909   6.339   3.929  11.197 -0.2387 -0.2125  0.2077
19165TIP3    H178910   6.353   3.897  11.108 -2.5270 -2.3008  0.4797
19165TIP3    H278911   6.370   3.858  11.253 -0.2398  0.4198  1.0201
19166TIP3   OH278912   5.683   3.460  14.799  0.4048 -0.0545  0.4714
19166TIP3    H178913   5.639   3.399  14.858  0.0454  0.4402  0.7225
19166TIP3    H278914   5.611   3.505  14.754  0.6705 -0.1072 -0.0174
19167TIP3   OH278915   4.819   6.310   1.307 -0.5696 -0.0631 -0.2895
19167TIP3    H178916   4.835   6.311   1.401  2.5919  0.4664 -0.7256
19167TIP3    H278917   4.762   6.386   1.291 -2.4828 -1.0780  1.2973
19168TIP3   OH278918   1.760   5.249  14.484 -0.4671 -0.5489 -0.5535
19168TIP3    H178919   1.669   5.219  14.476 -0.6923  0.3228 -1.4369
19168TIP3    H278920   1.809   5.193  14.423 -1.0877  1.5710 -3.1816
19169TIP3   OH278921   2.395   4.039  14.760 -0.0483 -0.3957 -0.3977
19169TIP3    H178922   2.370   4.064  14.671 -1.2906  1.1104  0.3311
19169TIP3    H278923   2.424   4.121  14.801  0.2251 -1.0076  0.6773
19170TIP3   OH278924   4.252   5.962  10.983  0.4355  0.0758  0.3527
19170TIP3    H178925   4.174   5.907  10.987  0.3634  0.0878 -0.5103
19170TIP3    H278926   4.309   5.918  10.919  1.0799  0.1385  0.8695
19171TIP3   OH278927   3.521   5.319  12.287 -0.4262 -0.2221 -0.0828
19171TIP3    H178928   3.459   5.260  12.246 -0.5751 -0.8012  0.9388
19171TIP3    H278929   3.488   5.330  12.376  0.3620  0.2904  0.1538
19172TIP3   OH278930   4.299   5.258   4.932  0.1621  0.4626  0.1679
19172TIP3    H178931   4.354   5.183   4.953  1.0958  1.4693  1.5005
19172TIP3    H278932   4.320   5.278   4.840  0.7388 -0.2017  0.1512
19173TIP3   OH278933   0.006   5.640   5.500 -0.1880  0.6179 -0.4953
19173TIP3    H178934  -0.063   5.586   5.462 -1.5559  2.8362 -1.3440
19173TIP3    H278935  -0.021   5.653   5.591  0.9595 -1.3100  0.1802
19174TIP3   OH278936   3.102   0.386   3.816 -0.0746 -0.2984  0.1073
19174TIP3    H178937   3.051   0.305   3.820 -0.2583 -0.1680  0.5001
19174TIP3    H278938   3.039   0.455   3.836 -0.3162  0.1358 -1.8969
19175TIP3   OH278939   2.196   2.357   4.153  0.0173 -0.0139  0.3791
19175TIP3    H178940   2.280   2.361   4.107 -0.8180  0.7598 -1.1586
19175TIP3    H278941   2.187   2.265   4.179  0.4291 -0.5281 -1.2162
19176TIP3   OH278942   4.506   2.917   0.675 -0.5660  0.4147 -0.4231
19176TIP3    H178943   4.590   2.956   0.699 -0.2426 -0.9544  0.8168
19176TIP3    H278944   4.441   2.980   0.705 -0.0821 -0.2311  2.2597
19177TIP3   OH278945   1.426   2.373  12.758 -0.5706  0.1248 -0.2789
19177TIP3    H178946   1.476   2.312  12.812 -0.0624 -0.2185 -1.1354
19177TIP3    H278947   1.452   2.354  12.668 -0.0015  1.9272 -0.5496
19178TIP3   OH278948   3.375   6.027   1.150  0.1895 -0.5660  0.6353
19178TIP3    H178949   3.396   5.939   1.119  2.0747  0.4661 -1.3743
19178TIP3    H278950   3.446   6.082   1.115 -0.5150  1.6488  2.4095
19179TIP3   OH278951   5.784   6.783  13.489  0.0233 -0.0062 -1.1960
19179TIP3    H178952   5.810   6.696  13.519 -0.9476 -0.0997 -0.5692
19179TIP3    H278953   5.723   6.766  13.417  0.7521  0.1796 -1.8547
19180TIP3   OH278954   3.211   1.075   4.848  0.2978  0.5757  0.1395
19180TIP3    H178955   3.158   0.997   4.864  0.6960  0.0063 -1.1337
19180TIP3    H278956   3.228   1.111   4.934 -1.0952  0.0567  0.6581
19181TIP3   OH278957   6.761   3.218  11.764  0.0393  0.9076 -0.6658
19181TIP3    H178958   6.760   3.171  11.680 -2.2616  0.8329 -0.6411
19181TIP3    H278959   6.694   3.286  11.754  0.9564  2.0389  0.5275
19182TIP3   OH278960   5.221   4.405   2.955  0.6650 -0.6816 -0.2385
19182TIP3    H178961   5.299   4.350   2.946  1.8600  0.9083 -0.0725
19182TIP3    H278962   5.206   4.440   2.867  0.9224  0.0172 -0.0092
19183TIP3   OH278963   5.772   5.872   1.291  0.4310 -0.6434  0.6676
19183TIP3    H178964   5.704   5.897   1.229  1.6145  4.2471  0.9065
19183TIP3    H278965   5.724   5.833   1.364 -1.5905 -1.3131 -0.9225
19184TIP3   OH278966   1.831   0.694   0.327 -0.2466  0.5301  0.6927
19184TIP3    H178967   1.825   0.722   0.418  2.4912  1.5446  0.6599
19184TIP3    H278968   1.902   0.630   0.326 -0.8846 -0.2023 -0.5949
19185TIP3   OH278969   3.260   0.815   6.221 -0.0266 -0.5875 -0.2396
19185TIP3    H178970   3.280   0.870   6.297 -0.6207 -0.6861 -0.0034
19185TIP3    H278971   3.321   0.742   6.228  1.2695  0.3976 -0.9618
19186TIP3   OH278972   0.097   3.566  13.237 -0.2145 -0.0194  0.3443
19186TIP3    H178973   0.008   3.593  13.261 -0.0555  0.3205  0.5664
19186TIP3    H278974   0.140   3.549  13.321  0.6092  2.0077  0.3900
19187TIP3   OH278975   0.727   6.477   3.049 -0.1000  0.3475  0.1765
19187TIP3    H178976   0.705   6.561   3.087 -1.5438 -0.2905  0.8325
19187TIP3    H278977   0.673   6.414   3.096  3.3701 -1.4779  2.1487
19188TIP3   OH278978   6.457   1.822  15.541  0.3031 -0.4810  0.1315
19188TIP3    H178979   6.395   1.888  15.512  1.7150  1.3720  1.1029
19188TIP3    H278980   6.428   1.797  15.629  0.7508  0.1543  0.4621
19189TIP3   OH278981   3.808   3.944  14.212 -0.4569  0.3199  0.1847
19189TIP3    H178982   3.741   3.877  14.199  0.4758 -0.3939 -1.1634
19189TIP3    H278983   3.889   3.904  14.180  0.4238  1.5447  0.7886
19190TIP3   OH278984   4.932   1.865   2.017  0.3513  0.5567 -0.1130
19190TIP3    H178985   4.936   1.826   2.104  0.2368  1.9906  0.5707
19190TIP3    H278986   5.006   1.927   2.015  0.6784  0.1536 -1.2392
19191TIP3   OH278987   5.421   1.349  11.615  0.3960 -0.6768  0.5948
19191TIP3    H178988   5.341   1.388  11.648  0.9904  0.7066  0.4498
19191TIP3    H278989   5.397   1.259  11.593 -0.5344 -1.0111  2.7564
19192TIP3   OH278990   3.629   3.409  13.156 -0.0228  0.5619 -0.1613
19192TIP3    H178991   3.681   3.452  13.225  1.6119  1.0986 -1.6365
19192TIP3    H278992   3.615   3.478  13.091 -0.1664 -0.3049 -1.0713
19193TIP3   OH278993   2.519   1.902   5.205  0.2169  0.0317 -0.0721
19193TIP3    H178994   2.546   1.902   5.113 -1.3461 -1.6487 -0.5881
19193TIP3    H278995   2.539   1.814   5.236  1.2795  0.7438  1.4298
19194TIP3   OH278996   0.941   2.020   6.152  0.3546  0.4930 -0.0443
19194TIP3    H178997   0.944   1.974   6.069 -1.1576 -0.9118  0.6277
19194TIP3    H278998   0.852   2.053   6.159  0.6825  1.2805  0.6688
19195TIP3   OH278999   6.225   0.525  11.525 -0.2211 -0.5017 -0.2443
19195TIP3    H179000   6.236   0.553  11.434  2.7088 -0.2971  0.0685
19195TIP3    H279001   6.211   0.606  11.574 -2.3727 -0.6576 -0.5055
19196TIP3   OH279002   2.954   0.073   0.006 -0.3222 -0.0833 -0.5670
19196TIP3    H179003   3.017   0.138  -0.025  0.7931 -1.1061 -0.5261
19196TIP3    H279004   2.875   0.124   0.028  0.0127  1.0724 -1.8721
19197TIP3   OH279005   1.184   0.347   0.836 -0.1495 -0.3534 -0.6890
19197TIP3    H179006   1.187   0.357   0.741 -1.7874 -0.0867 -0.7523
19197TIP3    H279007   1.093   0.323   0.854  0.2066 -0.6977  0.7944
19198TIP3   OH279008   0.560   1.324   5.352 -0.0566 -0.0005 -0.1225
19198TIP3    H179009   0.488   1.289   5.403  0.0159 -0.7790 -0.5265
19198TIP3    H279010   0.639   1.295   5.398  0.0020  0.7189  0.2361
19199TIP3   OH279011   3.214   5.892   5.289  0.0614  0.1158 -0.1827
19199TIP3    H179012   3.218   5.798   5.271 -0.7770  0.2091 -0.8849
19199TIP3    H279013   3.239   5.933   5.206 -1.1330  0.5233 -0.3554
19200TIP3   OH279014   6.659   0.403   6.303 -0.1634  0.2306 -0.2605
19200TIP3    H179015   6.586   0.461   6.326 -1.1936 -0.5009 -1.5440
19200TIP3    H279016   6.732   0.463   6.284 -1.1214  1.1235 -1.2617
19201TIP3   OH279017   1.442   1.186  15.942  0.1196  0.0600  0.3511
19201TIP3    H179018   1.509   1.250  15.917 -1.3901  1.8493  0.6228
19201TIP3    H279019   1.480   1.101  15.920  2.4604  0.9882  0.5194
19202TIP3   OH279020   0.140   1.492  15.105 -0.3814  0.0877 -0.0823
19202TIP3    H179021   0.194   1.440  15.164 -2.9460 -1.5309  1.0171
19202TIP3    H279022   0.175   1.474  15.018  0.3600 -1.5166  0.5026
19203TIP3   OH279023   0.126   4.516   3.415  0.5054 -0.0185  0.0459
19203TIP3    H179024   0.066   4.575   3.461  0.3813  0.0116 -0.1536
19203TIP3    H279025   0.213   4.549   3.438  0.4423  0.0851  0.1410
19204TIP3   OH279026   2.339   5.073   0.967 -0.8969  0.6493  0.7438
19204TIP3    H179027   2.392   5.124   1.028 -0.7228  0.8696  0.4161
19204TIP3    H279028   2.332   5.130   0.890 -2.5575  1.1083  1.1951
19205TIP3   OH279029   6.617   3.413   1.040  0.0405 -0.3385 -0.3360
19205TIP3    H179030   6.708   3.438   1.052 -0.7881  2.4878  0.8313
19205TIP3    H279031   6.589   3.462   0.963 -0.4654 -1.3997 -0.8521
19206TIP3   OH279032   5.087   5.888  15.294 -0.5400 -0.1297 -0.6759
19206TIP3    H179033   4.998   5.880  15.328 -0.0379 -0.7440  0.5701
19206TIP3    H279034   5.137   5.822  15.342  0.3757 -0.5419 -2.1295
19207TIP3   OH279035   5.458   2.402   0.913  0.5671  0.0114  0.1990
19207TIP3    H179036   5.441   2.443   0.828 -0.3809  0.5561  0.6391
19207TIP3    H279037   5.395   2.330   0.917  0.1520  0.3988  0.7168
19208TIP3   OH279038   3.571   5.496   1.550  0.0133 -0.0408  0.4678
19208TIP3    H179039   3.561   5.578   1.501 -0.5303  0.1777  0.9393
19208TIP3    H279040   3.494   5.492   1.606 -1.2189 -2.0341 -1.1932
19209TIP3   OH279041   6.190   1.013  14.984  0.1726 -0.2551  0.2229
19209TIP3    H179042   6.109   1.065  14.983  0.7980  0.8619 -2.1226
19209TIP3    H279043   6.259   1.077  15.002  0.6699 -0.9082  0.6784
19210TIP3   OH279044   5.959   4.942   5.988  0.1853 -0.1414  0.0729
19210TIP3    H179045   5.995   4.878   6.049 -2.1707 -0.2306  1.5135
19210TIP3    H279046   5.911   5.004   6.043 -1.8404 -0.0720 -1.6110
19211TIP3   OH279047   6.373   3.056  16.100 -0.3389 -0.4237 -0.6001
19211TIP3    H179048   6.333   3.127  16.150  1.8662  1.5980 -1.5543
19211TIP3    H279049   6.357   3.079  16.008  2.1809  0.0719 -0.9987
19212TIP3   OH279050   3.841   3.838   0.289  0.2721 -0.0355 -0.5799
19212TIP3    H179051   3.759   3.853   0.336  0.5498  0.1337 -0.1360
19212TIP3    H279052   3.908   3.876   0.347  0.5385  1.0028 -1.5292
19213TIP3   OH279053   4.326   6.219  15.310  0.2669  0.1161 -0.1236
19213TIP3    H179054   4.308   6.240  15.218 -0.5136 -0.4946 -0.1170
19213TIP3    H279055   4.317   6.303  15.356  0.3305  0.3616 -0.5561
19214TIP3   OH279056   6.024   2.097  14.165  0.0350 -0.0553 -0.5495
19214TIP3    H179057   6.020   2.189  14.140 -1.4490 -0.1639 -0.7921
19214TIP3    H279058   6.079   2.056  14.098 -2.6263 -0.0564 -2.9506
19215TIP3   OH279059   3.115   5.726   4.290 -0.9420 -0.0852 -0.0907
19215TIP3    H179060   3.142   5.763   4.373  0.4973 -0.6474 -0.2739
19215TIP3    H279061   3.071   5.798   4.244  0.8457  1.1000 -0.0266
19216TIP3   OH279062   1.578   6.752  12.743  0.5941 -0.3175  0.0504
19216TIP3    H179063   1.541   6.749  12.655  0.2120 -1.3250  0.2295
19216TIP3    H279064   1.630   6.832  12.745  1.1442 -0.6299 -1.3064
19217TIP3   OH279065   1.080   3.399   5.721 -0.2246 -0.1133  0.1449
19217TIP3    H179066   1.034   3.324   5.682 -0.1148  0.4731 -1.1931
19217TIP3    H279067   1.118   3.444   5.646  0.0628  1.0522  0.9689
19218TIP3   OH279068   4.435   0.431  12.972  0.0977 -0.2079  0.1856
19218TIP3    H179069   4.463   0.476  13.052 -1.3755 -0.5580  0.9478
19218TIP3    H279070   4.509   0.377  12.947  0.6830  0.1103  1.1729
19219TIP3   OH279071   3.072   5.485  14.896 -0.0897 -0.1246 -0.3654
19219TIP3    H179072   3.068   5.402  14.944  1.0231  0.0112  0.0139
19219TIP3    H279073   3.084   5.460  14.805  3.7794 -0.5184  0.0546
19220TIP3   OH279074   2.723   4.923   4.923  0.0440  0.3920  0.1707
19220TIP3    H179075   2.629   4.935   4.908 -0.0583  1.0320  1.2809
19220TIP3    H279076   2.737   4.952   5.013  1.0814 -0.9391  0.4663
19221TIP3   OH279077   4.955   5.224   3.272  0.3053  0.4770  0.4460
19221TIP3    H179078   4.878   5.168   3.266  0.7132 -0.0117 -0.4375
19221TIP3    H279079   4.921   5.312   3.259 -0.0212  0.1980 -0.6968
19222TIP3   OH279080   6.715   5.126   0.239  0.2286  0.1640 -0.5042
19222TIP3    H179081   6.732   5.182   0.314  0.2456  2.3875 -2.0580
19222TIP3    H279082   6.802   5.104   0.205  0.2012  0.6207 -0.8757
19223TIP3   OH279083   1.210   1.035  16.052 -0.0748 -0.0937 -0.2556
19223TIP3    H179084   1.182   1.074  16.134 -0.4142  0.1105 -0.4651
19223TIP3    H279085   1.285   1.087  16.025 -0.5209  0.4159 -0.5292
19224TIP3   OH279086   3.545   6.593  14.651 -0.9283  0.3831  0.2705
19224TIP3    H179087   3.563   6.684  14.628  1.9706  0.2455  1.5058
19224TIP3    H279088   3.585   6.582  14.738 -1.2316 -2.0546  0.1700
19225TIP3   OH279089   5.878   4.823  13.348  0.1415  0.1944  0.4078
19225TIP3    H179090   5.812   4.866  13.402  0.3523 -0.5393  1.2733
19225TIP3    H279091   5.951   4.806  13.407  0.1723 -1.1048  0.0327
19226TIP3   OH279092   0.817   1.745  16.731 -0.6160 -0.0284  0.1198
19226TIP3    H179093   0.739   1.697  16.757  0.2203 -1.1031  0.7467
19226TIP3    H279094   0.848   1.785  16.812 -0.6472  0.5871 -0.1717
19227TIP3   OH279095   4.595   6.091  15.535  0.0903 -0.2886  0.4935
19227TIP3    H179096   4.587   6.186  15.545  0.7359  0.0406 -1.5737
19227TIP3    H279097   4.686   6.072  15.559 -0.1339 -0.4598  1.2404
19228TIP3   OH279098   6.212   1.886  11.688  0.0918  0.1444  0.4005
19228TIP3    H179099   6.292   1.927  11.655  0.8515  0.6612  2.7157
19228TIP3    H279100   6.144   1.916  11.628  1.2281  1.7756 -0.1498
19229TIP3   OH279101   0.256   3.858   2.814 -0.0174 -0.1992  0.1945
19229TIP3    H179102   0.315   3.791   2.850  0.7697 -0.6685 -1.8545
19229TIP3    H279103   0.195   3.876   2.885  1.4382 -1.0851  1.7462
19230TIP3   OH279104   4.228   5.306  10.901  0.2004  0.0651 -0.1343
19230TIP3    H179105   4.292   5.281  10.834  0.1340  1.2605 -0.6729
19230TIP3    H279106   4.263   5.388  10.938 -0.3307  0.0028  0.5272
19231TIP3   OH279107   2.735   5.530   4.923  0.0925 -0.2756  0.3150
19231TIP3    H179108   2.682   5.549   4.845 -1.5788 -2.1470  0.9233
19231TIP3    H279109   2.772   5.443   4.907  1.7375  0.3199  0.6202
19232TIP3   OH279110   4.445   6.443   3.736 -0.3441  0.5147  0.2907
19232TIP3    H179111   4.497   6.495   3.797 -0.0860  1.5292 -0.7689
19232TIP3    H279112   4.508   6.398   3.681 -0.5489  1.6061 -0.8793
19233TIP3   OH279113   4.524   6.018  13.836  0.7131 -0.1571 -0.2302
19233TIP3    H179114   4.469   6.079  13.788  0.1317 -0.3606  0.1617
19233TIP3    H279115   4.580   5.978  13.770  0.0999 -0.2489 -0.7031
19234TIP3   OH279116   0.288   4.006  15.121 -0.2017  0.3256  0.4033
19234TIP3    H179117   0.329   4.072  15.176 -0.6940  0.3173  0.7928
19234TIP3    H279118   0.237   4.056  15.057 -0.6314  0.3376  0.7417
19235TIP3   OH279119   3.290   4.093   5.603 -0.1795 -0.4025 -0.0975
19235TIP3    H179120   3.225   4.141   5.654 -0.9955 -1.6484  0.0929
19235TIP3    H279121   3.253   4.089   5.515 -0.1270 -0.6862 -0.1078
19236TIP3   OH279122   0.134   6.647  14.626 -0.0508 -0.0912 -0.2229
19236TIP3    H179123   0.176   6.656  14.541 -1.0624  1.5976 -0.5877
19236TIP3    H279124   0.089   6.563  14.621 -2.7129  1.3081 -2.6255
19237TIP3   OH279125   4.697   0.276  16.842  0.2698 -0.4576 -0.1263
19237TIP3    H179126   4.758   0.208  16.812  1.1437  0.8598 -1.4409
19237TIP3    H279127   4.633   0.284  16.772  0.2956  0.2127 -0.0818
19238TIP3   OH279128   3.703   0.980   0.842 -0.1779  0.2110  0.2114
19238TIP3    H179129   3.744   0.900   0.875 -1.2475 -1.5870 -2.4381
19238TIP3    H279130   3.621   0.988   0.890 -0.2781 -0.5779  0.1800
19239TIP3   OH279131   5.515   0.428   0.069  0.3667 -0.1705  0.2031
19239TIP3    H179132   5.457   0.365   0.027 -2.5373  1.4131  1.5751
19239TIP3    H279133   5.553   0.379   0.143  0.9064 -1.2332 -0.7370
19240TIP3   OH279134   6.376   5.837   0.156  0.2291  0.1429  0.5677
19240TIP3    H179135   6.293   5.795   0.179  0.5078 -0.1097  1.1241
19240TIP3    H279136   6.414   5.781   0.088  1.4101 -1.5153  2.4872
19241TIP3   OH279137   2.619   5.727  15.173  0.1585 -0.1984 -0.0363
19241TIP3    H179138   2.604   5.768  15.088  0.2403 -0.5574 -0.2269
19241TIP3    H279139   2.531   5.715  15.210  0.1736  1.1116  0.4973
19242TIP3   OH279140   6.067   5.633  14.144  0.1012 -0.6467  0.3720
19242TIP3    H179141   6.116   5.711  14.171 -0.0930  0.2978 -1.7484
19242TIP3    H279142   6.010   5.614  14.218 -0.1089  1.4868  0.8406
19243TIP3   OH279143   2.927   3.069   4.426 -0.3078  0.1779  0.3881
19243TIP3    H179144   3.022   3.074   4.415 -0.2832  1.0510  0.8883
19243TIP3    H279145   2.894   3.058   4.337  0.2505  0.0459  0.1896
19244TIP3   OH279146   6.055   6.706   2.377 -0.5112  0.5459 -0.1297
19244TIP3    H179147   6.112   6.689   2.302  0.1939 -0.0496  0.5243
19244TIP3    H279148   5.966   6.690   2.345 -0.1853 -0.0975 -0.7181
19245TIP3   OH279149   4.840   0.847   6.590 -0.1535  0.0317  0.1579
19245TIP3    H179150   4.875   0.865   6.502  1.5349 -1.1789  0.5340
19245TIP3    H279151   4.820   0.753   6.588 -1.7529  0.3396  0.5517
19246TIP3   OH279152   5.619   2.304  16.835 -0.5092  0.4996  0.2650
19246TIP3    H179153   5.683   2.357  16.787 -1.0852  0.0282 -1.0838
19246TIP3    H279154   5.663   2.220  16.850 -1.2614 -0.3579 -1.9743
19247TIP3   OH279155   2.034   4.546  14.391 -0.4822  0.3261  0.1242
19247TIP3    H179156   1.995   4.461  14.411  1.6836 -1.0168 -1.0569
19247TIP3    H279157   2.107   4.555  14.452  0.4327  0.4525 -0.9450
19248TIP3   OH279158   0.759   4.149   5.091 -0.1538  0.7090 -0.1473
19248TIP3    H179159   0.766   4.117   5.001 -0.9982  0.4739 -0.1347
19248TIP3    H279160   0.823   4.097   5.140 -0.5614 -0.0223 -0.3836
19249TIP3   OH279161   1.940   0.781  10.802  0.7428 -1.0205 -0.7853
19249TIP3    H179162   1.855   0.759  10.764  0.2338 -0.0088 -0.2677
19249TIP3    H279163   2.002   0.766  10.731 -0.1932  0.8667 -2.0750
19250TIP3   OH279164   0.699   1.532   2.986  0.1355 -0.1636 -0.0205
19250TIP3    H179165   0.641   1.599   2.950  1.0078 -0.6700 -2.5836
19250TIP3    H279166   0.787   1.568   2.974  0.5506 -1.2443 -0.3101
19251TIP3   OH279167   1.332   0.954   0.270 -0.0257 -0.0041  0.4428
19251TIP3    H179168   1.415   0.905   0.276  0.2841  0.5080  0.4352
19251TIP3    H279169   1.267   0.888   0.248  0.6581 -0.1559 -1.2748
19252TIP3   OH279170   2.261   5.474   6.378 -0.0703  0.0561 -0.0564
19252TIP3    H179171   2.235   5.546   6.436 -1.0874 -0.5513  0.2792
19252TIP3    H279172   2.302   5.410   6.437  0.5895  0.2443 -0.3102
19253TIP3   OH279173   5.201   0.560  13.175 -0.5577 -0.1792  0.1205
19253TIP3    H179174   5.142   0.635  13.185 -1.2610 -0.9323  2.1048
19253TIP3    H279175   5.281   0.598  13.139 -1.4331  1.2444 -0.4434
19254TIP3   OH279176   6.576   6.327  14.135 -0.0868  0.1044  0.0021
19254TIP3    H179177   6.577   6.275  14.055  1.4788 -0.1925  0.1872
19254TIP3    H279178   6.485   6.356  14.144 -0.3315 -0.0356 -1.7567
19255TIP3   OH279179   5.398   6.714  16.768  0.0261  0.4509 -0.3986
19255TIP3    H179180   5.494   6.715  16.767  0.0534  2.0815  0.2683
19255TIP3    H279181   5.374   6.646  16.705  1.5945 -2.0978  1.5899
19256TIP3   OH279182   2.591   3.646   4.894  0.3302 -0.1872 -0.0933
19256TIP3    H179183   2.506   3.601   4.895  0.5288 -0.5574  0.3560
19256TIP3    H279184   2.612   3.654   4.801 -0.3753  0.2521 -0.2236
19257TIP3   OH279185   2.113   3.209  13.638  0.2092 -0.5339 -0.1274
19257TIP3    H179186   2.083   3.270  13.571 -0.4164  0.1843  0.7717
19257TIP3    H279187   2.039   3.149  13.650  0.0242 -0.2029  0.4331
19258TIP3   OH279188   0.267   0.860  10.751  0.2533 -0.4369 -0.2703
19258TIP3    H179189   0.309   0.776  10.769  1.7430  0.5566  1.1066
19258TIP3    H279190   0.188   0.858  10.805  0.9834 -0.4320  0.8486
19259TIP3   OH279191   0.103   6.436   4.317  0.2020  0.6875 -0.5204
19259TIP3    H179192   0.161   6.482   4.378 -1.0788  1.5594  0.0595
19259TIP3    H279193   0.039   6.392   4.374 -1.4071  2.0459 -1.2268
19260TIP3   OH279194   2.427   2.825   2.128  0.1307  0.0589  0.2250
19260TIP3    H179195   2.495   2.807   2.063  0.5703  2.8988 -0.2281
19260TIP3    H279196   2.367   2.751   2.120  0.7872 -0.3155 -2.5925
19261TIP3   OH279197   0.388   5.204   1.973  0.3924  0.0302  0.0711
19261TIP3    H179198   0.435   5.162   2.045  2.1103  1.9677  0.1781
19261TIP3    H279199   0.443   5.191   1.897  0.4692  1.1753 -0.0939
19262TIP3   OH279200   2.337   5.237  10.891 -0.4105  0.3239  0.2791
19262TIP3    H179201   2.403   5.172  10.913  0.1860  1.0358  0.6326
19262TIP3    H279202   2.377   5.321  10.912 -1.7566  0.7431  1.3598
19263TIP3   OH279203   1.577   2.411  12.252  0.2889  0.6279 -0.1847
19263TIP3    H179204   1.619   2.328  12.231  0.4135  0.5160  0.5026
19263TIP3    H279205   1.506   2.388  12.312  0.2176  0.9986 -0.1237
19264TIP3   OH279206   6.241   2.317  13.852 -0.0421 -0.6287 -0.3588
19264TIP3    H179207   6.303   2.324  13.780  1.8349 -1.2415  1.1035
19264TIP3    H279208   6.185   2.242  13.829  1.4066 -1.6777 -0.5880
19265TIP3   OH279209   5.212   3.460  14.960 -0.0879 -0.4264 -0.5394
19265TIP3    H179210   5.173   3.396  14.900  0.5516 -0.3458 -1.0494
19265TIP3    H279211   5.265   3.517  14.904 -0.2168  0.2189 -0.0185
19266TIP3   OH279212   5.338   4.831   5.811  0.3699  0.1004 -0.1828
19266TIP3    H179213   5.394   4.905   5.836 -0.0849  0.3585  0.1051
19266TIP3    H279214   5.341   4.772   5.887  1.1587 -0.4494 -0.6227
19267TIP3   OH279215   4.485   1.943  15.861  0.1006 -0.2596  0.1758
19267TIP3    H179216   4.390   1.940  15.874  0.0511  0.0030 -0.1310
19267TIP3    H279217   4.508   1.853  15.839 -0.3419  0.0243 -1.5950
19268TIP3   OH279218   2.165   2.828   4.805  0.4054  0.2927  1.4411
19268TIP3    H179219   2.082   2.832   4.852 -0.2035  0.4824  0.3883
19268TIP3    H279220   2.141   2.837   4.713  1.5465 -0.2418  1.0684
19269TIP3   OH279221   4.417   4.027  16.050  0.6020  0.0582 -0.4619
19269TIP3    H179222   4.405   3.977  15.969  1.2712  0.4534 -0.8183
19269TIP3    H279223   4.436   3.960  16.116  1.1850 -0.2011 -0.8729
19270TIP3   OH279224   4.642   6.411   5.829  0.1403  0.0238  0.5837
19270TIP3    H179225   4.727   6.449   5.851  0.0922  0.4734  0.0265
19270TIP3    H279226   4.603   6.474   5.767 -0.6930 -0.0620  1.0035
19271TIP3   OH279227   2.375   5.414   2.630 -0.3990  0.7106  0.3991
19271TIP3    H179228   2.468   5.436   2.633  0.6185 -2.9367  0.7178
19271TIP3    H279229   2.335   5.471   2.695  1.5453  2.5052  0.1484
19272TIP3   OH279230   5.219   4.387   6.466 -0.4515 -0.2939  0.6387
19272TIP3    H179231   5.183   4.459   6.519 -0.7970 -0.1839  0.2586
19272TIP3    H279232   5.235   4.317   6.529  2.3329  0.9496  1.5015
19273TIP3   OH279233   2.953   2.533   4.460  0.1419 -0.1750 -0.1511
19273TIP3    H179234   2.982   2.445   4.483 -0.3375 -0.7072 -1.5092
19273TIP3    H279235   2.936   2.529   4.366 -2.5664  0.5744  0.2250
19274TIP3   OH279236   4.192   5.692  10.849 -0.9657  0.5558 -0.1713
19274TIP3    H179237   4.212   5.732  10.764 -1.2925  0.9219 -0.0768
19274TIP3    H279238   4.117   5.635  10.831  0.8334 -1.7889 -0.7992
19275TIP3   OH279239   4.344   1.132  12.637 -0.4677  0.5626 -0.3262
19275TIP3    H179240   4.313   1.215  12.601 -1.4834  0.6804  0.7545
19275TIP3    H279241   4.344   1.146  12.732 -0.1393 -0.5060 -0.1602
19276TIP3   OH279242   1.627   4.508  15.375  0.3771 -0.1663  0.3349
19276TIP3    H179243   1.540   4.476  15.398 -1.0054  3.1637  0.2791
19276TIP3    H279244   1.669   4.528  15.459  0.7111 -0.8257  0.3287
19277TIP3   OH279245   1.502   1.688   1.292  0.3447 -0.1913 -0.2725
19277TIP3    H179246   1.502   1.641   1.375  0.8288  0.1452 -0.0818
19277TIP3    H279247   1.572   1.647   1.241  0.4400 -0.0068 -0.2915
19278TIP3   OH279248   0.172   0.226   5.419 -0.0305  0.1513 -0.6277
19278TIP3    H179249   0.087   0.214   5.378  0.0472 -1.0116 -0.4672
19278TIP3    H279250   0.174   0.163   5.491 -0.0743  1.9549  1.0599
19279TIP3   OH279251   0.706   2.632   4.408 -0.5875 -0.0791 -0.3660
19279TIP3    H179252   0.768   2.558   4.408 -1.5827 -0.9932  1.7272
19279TIP3    H279253   0.761   2.710   4.406  0.5660 -0.8717 -0.3042
19280TIP3   OH279254   4.410   0.931   0.879  0.3791  0.2049  0.3401
19280TIP3    H179255   4.435   1.022   0.894  2.3440 -0.1438 -0.5569
19280TIP3    H279256   4.324   0.936   0.837 -0.3031  1.5430  1.7863
19281TIP3   OH279257   6.498   1.950   1.331  0.1449 -0.2450  0.2437
19281TIP3    H179258   6.474   1.885   1.398  0.1683 -0.3166  0.1836
19281TIP3    H279259   6.415   1.991   1.307  0.1548 -0.1340  0.4055
19282TIP3   OH279260   2.023   5.143  11.733 -0.3829  0.1796  0.3007
19282TIP3    H179261   1.958   5.189  11.680  1.0074  1.6638 -0.2056
19282TIP3    H279262   2.102   5.197  11.726  0.9378 -1.6029  0.8148
19283TIP3   OH279263   3.840   0.640  16.802 -0.4999  0.0153 -0.3845
19283TIP3    H179264   3.838   0.674  16.713 -0.9304  1.9137  0.3069
19283TIP3    H279265   3.931   0.651  16.830 -0.4903 -0.0573 -0.3860
19284TIP3   OH279266   0.997   6.524  16.948  0.2857 -0.0106 -0.3628
19284TIP3    H179267   0.972   6.596  17.007 -1.2501 -0.5282 -0.3342
19284TIP3    H279268   1.034   6.458  17.005 -0.6376 -0.2607 -0.0386
19285TIP3   OH279269   3.699   1.904   3.678 -0.2687 -0.1566 -0.3487
19285TIP3    H179270   3.712   1.836   3.745 -0.6904  0.7152  0.6452
19285TIP3    H279271   3.787   1.935   3.659  0.0400 -1.6937 -1.6029
19286TIP3   OH279272   2.799   4.855   1.806 -0.3029 -0.6813 -0.1430
19286TIP3    H179273   2.729   4.914   1.778  0.2105 -0.2311 -0.5000
19286TIP3    H279274   2.846   4.834   1.725 -1.0689 -2.3778 -0.1889
19287TIP3   OH279275   6.233   3.248   2.620  0.8357  0.1465  0.8026
19287TIP3    H179276   6.233   3.340   2.648  0.7561  0.5054 -0.3051
19287TIP3    H279277   6.224   3.253   2.524 -0.9798 -1.0681  0.8720
19288TIP3   OH279278   0.770   6.208  15.226  0.2015  0.3288  0.3841
19288TIP3    H179279   0.751   6.131  15.173 -1.1531  0.5285  0.5492
19288TIP3    H279280   0.835   6.178  15.290  0.3853 -0.4167 -0.1324
19289TIP3   OH279281   0.315   3.121   2.857  0.0571  0.0957 -0.2574
19289TIP3    H179282   0.374   3.193   2.840  1.8962 -1.0969  0.7442
19289TIP3    H279283   0.282   3.136   2.945  0.6125 -0.3735  0.0381
19290TIP3   OH279284   6.352   2.988  17.162 -0.0219 -0.1444 -0.8108
19290TIP3    H179285   6.364   2.896  17.141 -1.4689 -0.4435 -0.4504
19290TIP3    H279286   6.338   3.030  17.077 -0.8425 -0.5250 -0.8821
19291TIP3   OH279287   4.668   6.313  14.420  0.1584  0.1493 -0.3778
19291TIP3    H179288   4.614   6.380  14.461 -0.2810  0.0009 -0.7051
19291TIP3    H279289   4.721   6.277  14.491 -0.4017  0.0789  0.0140
19292TIP3   OH279290   2.156   1.341  15.074  0.2441  0.3902 -0.5505
19292TIP3    H179291   2.072   1.353  15.118  0.6950 -1.0805  0.7989
19292TIP3    H279292   2.154   1.403  15.001 -1.9230  0.4882 -0.4572
19293TIP3   OH279293   1.893   1.984  12.725  0.6988  0.2738 -0.5807
19293TIP3    H179294   1.982   1.951  12.710  0.9829  1.1326 -0.8337
19293TIP3    H279295   1.836   1.912  12.699  1.3301 -0.7189  0.6583
19294TIP3   OH279296   4.904   3.037   1.950  0.3495 -0.1735 -0.0087
19294TIP3    H179297   4.994   3.009   1.964  0.2730 -0.5002 -0.1568
19294TIP3    H279298   4.867   2.969   1.894 -0.4233 -0.8241  1.2491
19295TIP3   OH279299   4.114   2.369   5.727  0.1534  0.0459 -0.0110
19295TIP3    H179300   4.120   2.297   5.664 -0.4796 -1.1938  1.2969
19295TIP3    H279301   4.204   2.384   5.755  0.3423  0.0771 -0.6122
19296TIP3   OH279302   4.536   2.618   4.438 -0.1356 -0.0080 -0.7687
19296TIP3    H179303   4.537   2.701   4.486 -0.7315 -0.2689 -0.2992
19296TIP3    H279304   4.491   2.637   4.356  0.8258  0.4237 -1.2188
19297TIP3   OH279305   1.210   2.850  11.624  0.2714 -0.1049 -0.0952
19297TIP3    H179306   1.189   2.889  11.709  0.6874  2.2866 -1.0288
19297TIP3    H279307   1.135   2.794  11.604 -1.9654  2.7228 -0.1283
19298TIP3   OH279308   6.283   0.350   4.537  0.0936  0.1220 -0.1425
19298TIP3    H179309   6.199   0.334   4.495  0.1121  0.8335 -0.4698
19298TIP3    H279310   6.285   0.290   4.611 -0.9633  0.5136  0.2196
19299TIP3   OH279311   2.828   6.234   6.537  0.2194 -0.0924 -0.1774
19299TIP3    H179312   2.873   6.295   6.595 -0.2738 -1.5801  1.9136
19299TIP3    H279313   2.741   6.223   6.577  1.0117 -3.8148  1.0092
19300TIP3   OH279314   0.776   2.030   6.463 -0.4874  0.0689 -0.2216
19300TIP3    H179315   0.790   2.123   6.444 -0.4296 -0.0396 -0.7148
19300TIP3    H279316   0.686   2.013   6.436  0.5940 -0.9017 -3.8000
19301TIP3   OH279317   5.405   0.951  14.527 -0.2530 -0.3723 -0.2162
19301TIP3    H179318   5.341   0.896  14.572 -1.6129 -0.1408 -1.7793
19301TIP3    H279319   5.352   1.015  14.479  1.2539  1.8094  0.8724
19302TIP3   OH279320   4.400   1.387  16.776 -0.6608  0.7975 -0.5557
19302TIP3    H179321   4.477   1.404  16.832 -0.5511 -0.4574 -0.2892
19302TIP3    H279322   4.437   1.358  16.693 -0.7658 -2.4290  0.4000
19303TIP3   OH279323   3.412   1.032   0.618 -0.0946  0.2974  0.6587
19303TIP3    H179324   3.343   0.984   0.664 -0.7705 -0.0755 -0.6993
19303TIP3    H279325   3.484   0.969   0.613 -0.5604 -0.1926 -0.0914
19304TIP3   OH279326   4.211   2.303  17.202 -0.4896  0.3742  0.6267
19304TIP3    H179327   4.305   2.310  17.182 -0.5431  1.0595  0.5987
19304TIP3    H279328   4.178   2.392  17.191 -1.6213 -0.2555 -1.7079
19305TIP3   OH279329   4.943   0.568   1.496  0.1932 -0.1400 -0.1548
19305TIP3    H179330   4.866   0.587   1.549  0.3811  0.7706 -0.1918
19305TIP3    H279331   5.009   0.538   1.559  0.1625  0.1660  0.0231
19306TIP3   OH279332   0.210   0.536   6.018 -0.2180 -0.4824  0.5560
19306TIP3    H179333   0.264   0.486   5.957 -1.7881 -0.0371 -1.3005
19306TIP3    H279334   0.241   0.626   6.009 -1.5431 -0.1358 -0.9187
19307TIP3   OH279335   3.080   4.940  16.487 -0.0269 -0.0274 -0.1193
19307TIP3    H179336   3.143   4.951  16.416  1.2423  0.9446  1.0901
19307TIP3    H279337   3.133   4.946  16.567 -1.3338 -1.5526  0.9181
19308TIP3   OH279338   4.097   1.953   3.805 -0.1557  0.2627  0.2573
19308TIP3    H179339   4.045   1.956   3.725 -1.3817 -2.5071  0.8306
19308TIP3    H279340   4.163   1.885   3.788 -0.8810 -0.8743  1.7847
19309TIP3   OH279341   0.326   5.687  13.934 -0.6040  0.1015 -0.0905
19309TIP3    H179342   0.254   5.624  13.928 -0.4434 -0.0029 -1.3347
19309TIP3    H279343   0.320   5.723  14.022 -0.3697 -2.0587  0.8549
19310TIP3   OH279344   0.618   3.122  12.902  0.5324 -0.4274 -0.2414
19310TIP3    H179345   0.563   3.198  12.885  0.5600 -0.2880  0.2942
19310TIP3    H279346   0.591   3.057  12.837 -0.7587 -0.6279  0.4686
19311TIP3   OH279347   0.976   1.660   4.395 -0.2428  0.2773 -0.3994
19311TIP3    H179348   0.916   1.659   4.321  1.1897  1.5398 -1.6657
19311TIP3    H279349   0.943   1.730   4.452 -1.9378 -1.3729  0.7520
19312TIP3   OH279350   2.316   3.758   5.645  0.1278 -0.2154  0.2562
19312TIP3    H179351   2.270   3.674   5.648 -0.9780  0.2762 -1.4677
19312TIP3    H279352   2.384   3.746   5.578 -0.5470  0.4704 -0.5797
19313TIP3   OH279353   0.265   3.577   6.508  0.4324 -0.7089 -0.3682
19313TIP3    H179354   0.307   3.649   6.461 -2.1239 -0.0244 -1.8507
19313TIP3    H279355   0.259   3.607   6.598  0.3038  0.5350 -0.7667
19314TIP3   OH279356   3.322   1.035   5.254 -0.4961 -0.3848  0.4107
19314TIP3    H179357   3.288   0.953   5.219 -0.7152  0.3918 -1.3083
19314TIP3    H279358   3.302   1.100   5.187  1.3193  0.7361  0.8846
19315TIP3   OH279359   1.830   4.218  13.943 -0.5460 -0.4108  0.1153
19315TIP3    H179360   1.825   4.229  13.848 -0.9600  1.5491  0.3050
19315TIP3    H279361   1.749   4.173  13.966 -0.2689 -1.2306 -0.4932
19316TIP3   OH279362   4.432   1.969  11.532 -0.3747 -0.4059  0.1568
19316TIP3    H179363   4.486   1.897  11.500  0.8209  0.5444 -0.0163
19316TIP3    H279364   4.454   1.976  11.625 -0.3899 -0.1673  0.1409
19317TIP3   OH279365   5.642   3.891   5.313  0.1974  0.4261 -0.1176
19317TIP3    H179366   5.710   3.950   5.346  0.0464  0.3703  0.3010
19317TIP3    H279367   5.604   3.938   5.238 -0.1904  1.0432  0.4500
19318TIP3   OH279368   4.064   4.494  11.846 -0.2427  0.0640  0.5673
19318TIP3    H179369   4.134   4.492  11.780  0.5852  0.6866  1.3886
19318TIP3    H279370   4.090   4.428  11.910 -1.2246 -0.7816  0.1062
19319TIP3   OH279371   1.386   0.275  15.296 -0.6591  0.1733  0.3242
19319TIP3    H179372   1.464   0.331  15.301 -0.4435  0.0300 -1.1057
19319TIP3    H279373   1.413   0.192  15.335 -0.0850  0.1334 -0.1387
19320TIP3   OH279374   5.891   0.766  14.907 -0.3128 -0.1829 -0.2341
19320TIP3    H179375   5.922   0.759  14.997 -0.7508  1.1544  0.0487
19320TIP3    H279376   5.953   0.825  14.865 -2.2367  2.4305  0.3057
19321TIP3   OH279377   2.579   4.710   0.084  0.4857 -0.7275  0.7270
19321TIP3    H179378   2.549   4.782   0.028 -0.6597  0.3747  2.6346
19321TIP3    H279379   2.503   4.652   0.090  1.1889 -1.8001 -0.2529
19322TIP3   OH279380   4.770   6.605  16.813  0.2202 -0.1110  0.2223
19322TIP3    H179381   4.702   6.551  16.853 -0.8460  1.0540  0.0287
19322TIP3    H279382   4.829   6.626  16.885 -0.3547 -0.0437  0.6829
19323TIP3   OH279383   5.351   3.306   5.179  0.1954 -0.0016  0.3752
19323TIP3    H179384   5.375   3.223   5.221 -0.8737 -0.5423 -0.0447
19323TIP3    H279385   5.433   3.356   5.176  0.4094 -0.0970  2.7050
19324TIP3   OH279386   0.974   0.458  15.062  0.3633  0.2637  0.3948
19324TIP3    H179387   0.932   0.530  15.110  0.6898  1.3067 -0.8245
19324TIP3    H279388   0.945   0.470  14.971  3.0703  0.9009 -0.4702
19325TIP3   OH279389   6.750   0.384   5.996  0.1485 -0.0501  0.3934
19325TIP3    H179390   6.765   0.352   5.907 -2.0125  2.9032 -1.2133
19325TIP3    H279391   6.835   0.418   6.024  0.3272  1.5255 -1.7739
19326TIP3   OH279392   2.804   1.275  12.053  0.0188 -0.2202 -0.3876
19326TIP3    H179393   2.812   1.370  12.046  1.1602 -0.4118 -2.9988
19326TIP3    H279394   2.738   1.251  11.988 -0.4284 -1.1991  0.3952
19327TIP3   OH279395   4.821   5.739   3.971  0.4429 -0.6181  0.4249
19327TIP3    H179396   4.876   5.712   4.044 -0.7082 -0.1590  1.4919
19327TIP3    H279397   4.731   5.718   3.999 -0.1193  0.5673 -0.3904
19328TIP3   OH279398   3.377   0.394  16.469 -0.0795 -0.0150  0.0004
19328TIP3    H179399   3.462   0.426  16.437 -0.1737  0.8945  0.5913
19328TIP3    H279400   3.398   0.350  16.552 -0.1478  0.0288  0.0409
19329TIP3   OH279401   1.429   6.451  12.092  0.1991 -0.0965  0.5740
19329TIP3    H179402   1.482   6.407  12.159  0.9690 -0.3149 -0.1692
19329TIP3    H279403   1.431   6.393  12.017  0.4497  0.7574 -0.0988
19330TIP3   OH279404   0.655   0.801  13.890  0.8493  0.2837  0.5510
19330TIP3    H179405   0.601   0.772  13.963 -0.5412  1.9283  0.2310
19330TIP3    H279406   0.621   0.887  13.867  0.3678 -0.6411 -2.8327
19331TIP3   OH279407   3.350   3.397  12.650 -0.7117 -0.1456 -0.5100
19331TIP3    H179408   3.339   3.491  12.635 -0.1896  0.0039  0.0371
19331TIP3    H279409   3.444   3.385  12.657 -0.7271 -0.8308 -1.3135
19332TIP3   OH279410   0.727   2.783   4.749  0.2191 -0.4054 -0.0183
19332TIP3    H179411   0.794   2.747   4.690  1.1640 -0.3583  1.0020
19332TIP3    H279412   0.776   2.833   4.813 -0.9074  0.7028  0.0111
19333TIP3   OH279413   2.584   2.291  13.912  0.1929  0.1608  0.8796
19333TIP3    H179414   2.604   2.382  13.890 -0.2730  0.0020 -0.2573
19333TIP3    H279415   2.518   2.264  13.848 -0.6747 -0.5677  2.0506
19334TIP3   OH279416   2.994   6.481   0.395  0.2057  0.0462  0.1002
19334TIP3    H179417   2.993   6.553   0.331 -1.0069 -1.2975 -1.4783
19334TIP3    H279418   3.060   6.421   0.361  1.9007  0.7487  1.9139
19335TIP3   OH279419   2.001   4.092  16.709 -0.2405 -0.3972  0.2289
19335TIP3    H179420   1.953   4.015  16.678 -0.2934  0.3315 -1.6354
19335TIP3    H279421   1.936   4.145  16.755 -0.8999 -0.1615 -0.9342
19336TIP3   OH279422   1.748   0.118  14.217 -0.0871 -0.0004 -0.0885
19336TIP3    H179423   1.740   0.170  14.137 -3.8734  2.4375  1.5533
19336TIP3    H279424   1.802   0.172  14.275 -2.9037  1.7510  1.1407
19337TIP3   OH279425   3.240   4.936  14.447  0.0230  0.1487 -0.2436
19337TIP3    H179426   3.250   4.905  14.357  1.4751 -1.7889  0.5362
19337TIP3    H279427   3.325   4.920  14.488 -1.4247 -1.7798  2.2869
19338TIP3   OH279428   4.832   5.482   4.441  0.2524  0.2123 -0.2132
19338TIP3    H179429   4.826   5.453   4.350  2.0803  1.2589 -0.7242
19338TIP3    H279430   4.913   5.442   4.473  0.5963  1.3231  0.3542
19339TIP3   OH279431   3.498   2.100  14.813  0.1042  0.5622 -0.0673
19339TIP3    H179432   3.436   2.054  14.870  0.3035 -0.0456 -0.3317
19339TIP3    H279433   3.512   2.184  14.856 -1.4136  0.9904 -0.3443
19340TIP3   OH279434   0.694   2.835  12.396 -0.9500 -0.1290 -0.1792
19340TIP3    H179435   0.785   2.821  12.422 -1.5608 -2.6505  0.9587
19340TIP3    H279436   0.673   2.922  12.430 -0.0350 -1.0141  3.0379
19341TIP3   OH279437   2.091   6.263  12.943  0.1395 -0.2458  0.2304
19341TIP3    H179438   2.026   6.275  13.012 -0.9455  0.4945 -0.8799
19341TIP3    H279439   2.048   6.295  12.864  2.2762  1.4085 -0.3512
19342TIP3   OH279440   5.814   6.533  13.272 -0.1107  0.6341 -0.4417
19342TIP3    H179441   5.729   6.490  13.275 -0.4648  1.3009 -0.7749
19342TIP3    H279442   5.796   6.620  13.236  0.5705  1.1112  0.3347
19343TIP3   OH279443   4.053   0.608   4.047  0.3668  0.0652 -0.1269
19343TIP3    H179444   4.003   0.534   4.013 -0.6610  1.1953 -1.1604
19343TIP3    H279445   3.987   0.674   4.069  1.3337  1.5907 -1.5129
19344TIP3   OH279446   2.739   3.242  11.687  0.6977 -0.2700 -0.3922
19344TIP3    H179447   2.800   3.257  11.615 -0.0905 -1.0217 -1.2513
19344TIP3    H279448   2.654   3.272  11.653  0.6020  0.9942  0.8634
19345TIP3   OH279449   5.518   5.106  13.766 -0.7462 -0.6808 -0.4438
19345TIP3    H179450   5.487   5.111  13.675  0.9099 -0.8876 -1.0577
19345TIP3    H279451   5.506   5.194  13.800 -1.0261 -0.4967 -1.0027
19346TIP3   OH279452   6.427   5.000  14.723 -0.2454 -0.3271  0.1532
19346TIP3    H179453   6.448   4.994  14.816  0.8077  1.2537  0.0639
19346TIP3    H279454   6.512   5.010  14.680 -0.7536 -0.5454 -0.9308
19347TIP3   OH279455   2.756   1.318   1.867 -0.1709 -0.4315  0.3022
19347TIP3    H179456   2.666   1.289   1.882  0.0167 -1.4731 -0.4590
19347TIP3    H279457   2.792   1.253   1.806  0.5770  0.9091 -0.7254
19348TIP3   OH279458   6.389   6.644  16.385 -0.9584  0.2815  0.2512
19348TIP3    H179459   6.454   6.624  16.317 -0.7100 -1.6215  0.9884
19348TIP3    H279460   6.405   6.736  16.407  1.9960 -0.2735  0.8672
19349TIP3   OH279461   3.804   5.022  16.588 -0.0092  0.2856 -0.0335
19349TIP3    H179462   3.712   5.015  16.563  0.2165 -1.0401 -0.5871
19349TIP3    H279463   3.825   5.114  16.574 -1.4123  0.7503  0.7246
19350TIP3   OH279464   2.239   3.680   1.102  0.4241 -0.3929 -0.1384
19350TIP3    H179465   2.305   3.742   1.132  1.5161 -2.2135  1.4720
19350TIP3    H279466   2.171   3.734   1.063  1.4967  1.7662  0.8280
19351TIP3   OH279467   1.026   2.250   3.126  0.5600  0.1272  0.1249
19351TIP3    H179468   1.114   2.260   3.161  1.1439 -0.9079 -0.9894
19351TIP3    H279469   0.978   2.204   3.195  1.9138 -2.6080 -0.6324
19352TIP3   OH279470   2.215   6.729  15.916 -0.0016 -0.2215  0.2231
19352TIP3    H179471   2.172   6.811  15.892 -0.2575 -0.4611 -0.1525
19352TIP3    H279472   2.296   6.728  15.865 -0.6890 -0.8711 -0.8750
19353TIP3   OH279473   4.490   5.964  16.011  0.3905 -0.7185  0.3375
19353TIP3    H179474   4.396   5.961  15.994  0.4571  0.3068 -0.2648
19353TIP3    H279475   4.525   5.887  15.966  0.1941  0.4262 -1.8872
19354TIP3   OH279476   6.247   1.436  16.989 -0.0537  0.4163  0.3332
19354TIP3    H179477   6.185   1.397  16.927 -2.0442  3.3131  0.3473
19354TIP3    H279478   6.309   1.483  16.933  1.6030 -1.5396  0.3878
19355TIP3   OH279479   2.426   1.577  10.684 -0.3221  0.1396 -0.5415
19355TIP3    H179480   2.409   1.669  10.663 -1.2365  0.3475  0.9121
19355TIP3    H279481   2.508   1.578  10.733 -2.0789  0.7456  2.6555
19356TIP3   OH279482   0.422   3.766   3.151 -0.5306  0.1141  0.2681
19356TIP3    H179483   0.510   3.762   3.187 -0.1529 -1.8730 -0.7208
19356TIP3    H279484   0.371   3.707   3.206 -0.4185 -1.3564 -1.1350
19357TIP3   OH279485   4.311   1.221   1.916  0.0122 -0.3469  0.1492
19357TIP3    H179486   4.358   1.192   1.995  0.5582 -1.9916 -0.7296
19357TIP3    H279487   4.343   1.310   1.901  1.8243 -0.9039  0.4041
19358TIP3   OH279488   5.616   0.283  13.787 -0.4500  0.0614 -0.8671
19358TIP3    H179489   5.534   0.269  13.835 -0.3150 -0.6932 -0.8333
19358TIP3    H279490   5.654   0.195  13.780 -0.0945  0.2726 -1.6895
19359TIP3   OH279491   3.707   2.727  15.693  0.2185 -0.2653  0.0592
19359TIP3    H179492   3.726   2.692  15.781 -0.7323 -0.9293  0.0135
19359TIP3    H279493   3.701   2.649  15.638 -2.5081 -0.1531  0.0546
19360TIP3   OH279494   0.351   6.316   3.598  0.5823 -0.0603  0.6529
19360TIP3    H179495   0.300   6.295   3.677  0.2139  0.0558  0.4471
19360TIP3    H279496   0.343   6.238   3.543  0.4071  0.0595  0.5071
19361TIP3   OH279497   2.262   2.335  16.117 -0.2021  0.0007  0.0968
19361TIP3    H179498   2.197   2.372  16.057 -0.6526 -0.6183  0.1956
19361TIP3    H279499   2.263   2.395  16.192 -0.4322  0.1840 -0.0477
19362TIP3   OH279500   2.926   0.765   2.628  0.4198 -0.2486  0.3706
19362TIP3    H179501   2.987   0.838   2.638 -0.3534  0.3767  0.5760
19362TIP3    H279502   2.906   0.739   2.718  1.5076 -1.4210  0.3031
19363TIP3   OH279503   5.341   6.730  11.948  0.1512  0.3359 -0.0476
19363TIP3    H179504   5.408   6.769  12.004 -1.1619 -0.0065  1.8800
19363TIP3    H279505   5.343   6.781  11.868  1.8312  1.1348  0.4576
19364TIP3   OH279506   4.236   0.814   3.173  0.0156 -0.2720  0.1252
19364TIP3    H179507   4.147   0.835   3.201 -0.7239  0.1317 -2.2543
19364TIP3    H279508   4.289   0.819   3.253 -2.0983 -0.6360  1.6146
19365TIP3   OH279509   5.867   2.955  15.197 -0.2380  0.0333 -0.2158
19365TIP3    H179510   5.929   3.025  15.220  0.4181 -0.9050  1.0132
19365TIP3    H279511   5.793   3.001  15.158 -0.0935  1.4828  1.1049
19366TIP3   OH279512   5.636   5.478   4.431 -0.1022 -0.2231 -0.0732
19366TIP3    H179513   5.647   5.558   4.483 -0.6587 -0.5581  0.5648
19366TIP3    H279514   5.611   5.510   4.344  1.2407  0.3591 -0.2773
19367TIP3   OH279515   6.462   3.840   5.866  0.2794  0.5278  0.0718
19367TIP3    H179516   6.383   3.796   5.834  1.1158 -0.9802 -0.0416
19367TIP3    H279517   6.472   3.810   5.956  2.2012 -1.6174 -0.7451
19368TIP3   OH279518   6.733   6.414   1.261  0.0652  0.5876  0.1948
19368TIP3    H179519   6.694   6.460   1.335 -1.3206 -0.8419  0.3878
19368TIP3    H279520   6.827   6.431   1.270 -0.2214  1.7189  1.3782
19369TIP3   OH279521   5.087   5.770   1.101  0.2321 -0.2294 -0.1334
19369TIP3    H179522   5.029   5.759   1.176 -1.4540  0.6980 -1.2410
19369TIP3    H279523   5.108   5.680   1.073 -0.4657 -0.5710  0.4208
19370TIP3   OH279524   0.633   3.682   3.838 -0.0611  0.3114 -0.2188
19370TIP3    H179525   0.663   3.686   3.747 -1.2771 -0.3006 -0.6663
19370TIP3    H279526   0.538   3.670   3.832 -0.1544  0.1867  1.1347
19371TIP3   OH279527   3.797   4.993   5.729  0.1476 -0.1352 -0.0756
19371TIP3    H179528   3.821   5.044   5.652 -0.5136 -0.1963 -0.3313
19371TIP3    H279529   3.879   4.977   5.774  0.4399  0.6318 -0.3205
19372TIP3   OH279530   4.522   0.224  12.167  0.1778 -0.7216 -0.4543
19372TIP3    H179531   4.445   0.280  12.166  0.5752 -0.1582 -1.3603
19372TIP3    H279532   4.511   0.169  12.244 -0.5977  0.0853  0.0307
19373TIP3   OH279533   0.802   4.487  14.471 -0.5140  0.2209  0.3110
19373TIP3    H179534   0.765   4.447  14.392 -1.0185 -1.3362  1.3029
19373TIP3    H279535   0.890   4.516  14.444 -0.6536 -0.3357 -0.7932
19374TIP3   OH279536   4.522   0.192  16.656  0.0737 -0.3169  0.1051
19374TIP3    H179537   4.426   0.192  16.660  0.0449  0.9885 -0.2387
19374TIP3    H279538   4.543   0.223  16.568  0.8303 -1.5672 -0.1846
19375TIP3   OH279539   4.770   1.132   5.067 -0.1345  0.0979 -0.1476
19375TIP3    H179540   4.702   1.107   5.130 -2.2417  2.3333 -1.3534
19375TIP3    H279541   4.762   1.068   4.997 -0.0651 -0.4283  0.3140
19376TIP3   OH279542   5.458   0.829  15.070  0.3872 -0.1944 -0.1330
19376TIP3    H179543   5.422   0.906  15.025  0.6653  0.2667  0.4145
19376TIP3    H279544   5.468   0.857  15.161 -0.9901 -1.4034  0.4273
19377TIP3   OH279545   2.189   4.417   5.753  0.4401  0.1861 -0.3467
19377TIP3    H179546   2.228   4.330   5.760  1.2212  0.3394 -2.0686
19377TIP3    H279547   2.100   4.407   5.786  1.1351 -0.7649  1.3613
19378TIP3   OH279548   1.773   5.900   1.475 -0.8334  0.2294  0.0571
19378TIP3    H179549   1.764   5.871   1.384  1.3897 -0.1045 -0.1056
19378TIP3    H279550   1.758   5.995   1.471 -0.8109  0.2145 -0.6658
19379TIP3   OH279551   3.951   2.178  12.140 -0.1449  0.3078  0.0438
19379TIP3    H179552   3.952   2.084  12.121  1.3452  0.0311  1.2711
19379TIP3    H279553   4.023   2.213  12.088 -0.6270  0.7671 -0.3266
19380TIP3   OH279554   0.905   0.781  16.573 -0.4275 -0.0070 -0.5416
19380TIP3    H179555   0.943   0.809  16.657  0.7829 -1.5065 -0.5339
19380TIP3    H279556   0.826   0.733  16.598 -1.6425  1.9200 -0.4729
19381TIP3   OH279557   2.152   4.586   5.552 -1.0402 -0.0390  0.0489
19381TIP3    H179558   2.180   4.517   5.611  1.1622 -0.7149 -1.6779
19381TIP3    H279559   2.217   4.655   5.561 -0.0596 -0.5648 -2.2128
19382TIP3   OH279560   3.416   5.696   1.971  0.2802 -0.0230  0.6543
19382TIP3    H179561   3.439   5.751   2.046 -0.8810 -0.4332  1.3491
19382TIP3    H279562   3.322   5.679   1.982 -0.0023  0.2186 -1.1070
19383TIP3   OH279563   2.092   5.542  15.325 -0.4723 -0.2362  0.0595
19383TIP3    H179564   2.092   5.637  15.331 -0.8364 -0.3307  2.2579
19383TIP3    H279565   2.019   5.522  15.265  0.1355  0.8423 -1.0918
19384TIP3   OH279566   1.317   3.396  15.257 -0.0461 -0.0017  0.2563
19384TIP3    H179567   1.224   3.421  15.260 -0.5759 -1.5595 -1.4449
19384TIP3    H279568   1.323   3.336  15.183  2.4152  0.3306  0.1164
19385TIP3   OH279569   1.051   1.031   3.060  0.3649 -0.2867 -1.0029
19385TIP3    H179570   0.957   1.047   3.063  0.2124 -1.1256 -1.2838
19385TIP3    H279571   1.072   0.995   3.146  0.5632  0.5828 -0.6772
19386TIP3   OH279572   2.651   3.542  13.833  0.3053  0.3295 -0.0369
19386TIP3    H179573   2.666   3.554  13.927  1.2259  1.1581 -0.2735
19386TIP3    H279574   2.568   3.495  13.828  1.2188 -1.5461  1.2647
19387TIP3   OH279575   4.897   6.049  12.676  0.0391  0.6673  0.0419
19387TIP3    H179576   4.917   5.972  12.623 -0.1723 -1.4402  2.7739
19387TIP3    H279577   4.813   6.030  12.717 -0.4905  2.8110  0.0808
19388TIP3   OH279578   4.353   4.847   5.583  0.2723  0.0769 -0.4504
19388TIP3    H179579   4.401   4.909   5.637 -1.0902  1.2772 -0.5600
19388TIP3    H279580   4.265   4.845   5.621  0.6123 -2.8950  0.4278
19389TIP3   OH279581   1.394   3.070  14.927  0.4314 -0.1657  0.1184
19389TIP3    H179582   1.459   3.002  14.908  1.9549  0.8439  1.5240
19389TIP3    H279583   1.423   3.146  14.876  1.1749  0.7170  1.8044
19390TIP3   OH279584   3.423   6.341  10.740  0.3805 -0.3111  0.1989
19390TIP3    H179585   3.495   6.392  10.704  1.1921 -0.4011  1.6042
19390TIP3    H279586   3.463   6.291  10.811 -1.1494 -0.0243  1.3156
19391TIP3   OH279587   0.977   0.770  14.604  0.7313 -0.3076  0.2383
19391TIP3    H179588   1.045   0.730  14.658  0.8465  1.6050  1.6363
19391TIP3    H279589   0.994   0.738  14.515  2.8724 -0.6396  0.7192
19392TIP3   OH279590   1.637   6.557  16.916  0.4128  0.0376 -0.9697
19392TIP3    H179591   1.566   6.540  16.979 -2.0431 -0.6780 -3.7136
19392TIP3    H279592   1.717   6.534  16.964 -1.3911 -1.7710  1.4639
19393TIP3   OH279593   2.325   6.045  11.285 -0.1113  0.4689 -0.5349
19393TIP3    H179594   2.307   5.958  11.322  1.1502  1.1232  1.8129
19393TIP3    H279595   2.382   6.027  11.210  0.7654 -0.7047  0.3662
19394TIP3   OH279596   1.965   2.176  13.598 -0.1901  0.4046 -0.6356
19394TIP3    H179597   1.991   2.168  13.506 -1.1740 -1.7712 -0.7973
19394TIP3    H279598   2.043   2.152  13.648 -0.5040 -1.4752 -1.0013
19395TIP3   OH279599   3.501   0.890   1.815  0.1187 -0.5370 -0.2418
19395TIP3    H179600   3.466   0.849   1.894  1.5486 -0.9960  0.1956
19395TIP3    H279601   3.562   0.956   1.848 -0.5712  0.4913 -0.9637
19396TIP3   OH279602   2.567   6.591  16.342 -0.5653 -0.2972 -0.5395
19396TIP3    H179603   2.588   6.560  16.430 -0.2084 -2.2999 -1.2863
19396TIP3    H279604   2.497   6.655  16.355 -0.5074 -0.5420  1.1895
19397TIP3   OH279605   4.603   4.204  14.083  0.0182 -0.2230 -0.1307
19397TIP3    H179606   4.558   4.151  14.149 -0.0146 -1.5031 -1.1361
19397TIP3    H279607   4.640   4.278  14.132  2.2963 -2.4592  1.8600
19398TIP3   OH279608   1.777   1.057  12.937 -0.2410  0.1284  0.5514
19398TIP3    H179609   1.685   1.074  12.914 -0.3296 -1.0252 -0.0502
19398TIP3    H279610   1.827   1.110  12.875 -0.4713  2.1625  2.0284
19399TIP3   OH279611   0.137   3.152  11.063 -0.2248  0.1216  0.1587
19399TIP3    H179612   0.193   3.127  10.990 -1.4006  0.7427 -1.0000
19399TIP3    H279613   0.054   3.109  11.046 -0.8344  1.0748  0.5853
19400TIP3   OH279614   2.439   5.991   5.372 -0.0758  0.1731 -0.2850
19400TIP3    H179615   2.424   6.042   5.292 -0.1259 -0.1012 -0.4514
19400TIP3    H279616   2.360   6.005   5.424 -0.1658  0.1234 -0.4076
19401TIP3   OH279617   2.357   1.386   2.774  0.1041  0.4890  0.0937
19401TIP3    H179618   2.357   1.433   2.857 -1.6607  0.4373  0.1547
19401TIP3    H279619   2.394   1.300   2.795  0.4899  0.7785  0.6261
19402TIP3   OH279620   0.590   1.781   3.883  0.3995 -0.2583  0.0690
19402TIP3    H179621   0.527   1.720   3.922 -0.0679  1.4476  2.1703
19402TIP3    H279622   0.672   1.732   3.880 -0.2363 -1.3845  0.5726
19403TIP3   OH279623   5.649   2.166   0.961 -0.1656  0.2998  0.0900
19403TIP3    H179624   5.736   2.127   0.952 -0.6294 -0.5329 -1.0074
19403TIP3    H279625   5.648   2.238   0.899 -0.8792 -0.8833 -1.3306
19404TIP3   OH279626   6.174   4.829   2.952  0.4947  0.5424  0.4162
19404TIP3    H179627   6.134   4.792   2.873  0.6282  0.6188  0.3130
19404TIP3    H279628   6.102   4.871   2.999  0.0266 -1.1436  1.2986
19405TIP3   OH279629   0.189   1.324   1.810 -0.0295  0.1943 -0.3052
19405TIP3    H179630   0.110   1.273   1.827  0.1721 -0.0575 -0.1183
19405TIP3    H279631   0.214   1.300   1.720  0.1975 -0.2184 -0.1340
19406TIP3   OH279632   6.398   3.839  13.228  0.1507  0.5335 -0.2868
19406TIP3    H179633   6.317   3.788  13.228  0.5338 -0.1087 -1.2803
19406TIP3    H279634   6.374   3.923  13.188 -0.5066  1.2352  1.4631
19407TIP3   OH279635   5.899   3.369  13.215  0.4267 -0.0728 -0.1447
19407TIP3    H179636   5.815   3.330  13.192  0.8465 -0.6552 -0.7624
19407TIP3    H279637   5.935   3.311  13.282 -0.4217  1.1587  1.4575
19408TIP3   OH279638   4.299   3.437  11.807  0.0343  0.2469 -0.7988
19408TIP3    H179639   4.284   3.446  11.713  1.2156  0.8873 -0.9441
19408TIP3    H279640   4.297   3.342  11.822 -1.6454  0.1854 -1.1859
19409TIP3   OH279641   3.193   2.241  12.543 -0.4470 -0.3197 -0.2058
19409TIP3    H179642   3.163   2.214  12.630  1.5311 -0.8866  0.3444
19409TIP3    H279643   3.254   2.172  12.516 -0.5291  0.1786 -1.7834
19410TIP3   OH279644   4.760   6.573   1.310 -0.1098 -0.2144  0.2022
19410TIP3    H179645   4.674   6.608   1.333  0.3476  0.3280  1.1406
19410TIP3    H279646   4.808   6.648   1.275 -0.0732 -0.5586 -0.5104
19411TIP3   OH279647   1.180   1.420  13.759  0.1980 -0.5077  0.5448
19411TIP3    H179648   1.150   1.338  13.798 -2.9151  0.2381 -0.0293
19411TIP3    H279649   1.101   1.471  13.746  1.8862  2.0728 -0.3929
19412TIP3   OH279650   6.136   3.423  11.508 -1.2273  0.8904 -0.1972
19412TIP3    H179651   6.216   3.427  11.456 -1.6846  3.3711 -0.8206
19412TIP3    H279652   6.119   3.329  11.519  1.3338  0.3085 -0.6633
19413TIP3   OH279653   1.119   2.508   1.144  0.2865  0.5747 -0.3533
19413TIP3    H179654   1.146   2.598   1.163 -0.4243  0.8109 -0.4263
19413TIP3    H279655   1.146   2.458   1.221 -0.5785  1.1193  0.3202
19414TIP3   OH279656   5.244   0.388  16.423  0.7320 -0.2678 -0.0592
19414TIP3    H179657   5.329   0.432  16.416 -0.2760  1.6403 -0.8801
19414TIP3    H279658   5.229   0.380  16.517  1.2245  0.6236  0.1115
19415TIP3   OH279659   4.894   5.499  13.945  0.2602  0.2567  0.1823
19415TIP3    H179660   4.969   5.489  14.004  1.5188 -1.3536 -1.5876
19415TIP3    H279661   4.895   5.592  13.921  1.1803  0.4313  0.8360
19416TIP3   OH279662   2.253   5.011   1.879  0.2827 -0.2748  0.1897
19416TIP3    H179663   2.201   4.939   1.914  0.1204 -0.3987 -0.3064
19416TIP3    H279664   2.212   5.090   1.915 -0.1376 -0.3812 -0.0455
19417TIP3   OH279665   0.317   3.868   3.620  0.1636 -0.4045 -0.0341
19417TIP3    H179666   0.241   3.925   3.611  0.8862  0.8069  1.1897
19417TIP3    H279667   0.361   3.871   3.535  0.1079  0.7531 -0.0293
19418TIP3   OH279668   6.357   1.140  16.770 -0.4115  0.0401  0.7588
19418TIP3    H179669   6.396   1.182  16.694 -0.1697  0.6021  1.1862
19418TIP3    H279670   6.292   1.203  16.801 -0.2315 -0.0136  1.2501
19419TIP3   OH279671   1.291   2.299   4.121 -0.4221 -0.2752  0.5945
19419TIP3    H179672   1.275   2.222   4.066  1.1752 -0.9067  0.9680
19419TIP3    H279673   1.343   2.358   4.066 -1.2641  0.3793  0.4659
19420TIP3   OH279674   5.968   6.422   4.735  0.0235 -0.5265  0.0432
19420TIP3    H179675   5.963   6.418   4.639  2.8708 -1.5209 -0.1481
19420TIP3    H279676   5.898   6.363   4.764  0.0162 -1.3270 -1.4602
19421TIP3   OH279677   6.192   2.995   1.947  0.8644  0.1995  0.3599
19421TIP3    H179678   6.287   2.987   1.945  0.9272 -0.5161  2.8563
19421TIP3    H279679   6.160   2.905   1.948  0.1830  0.4360  0.3680
19422TIP3   OH279680   4.051   4.040  11.640 -0.4541 -0.4927  0.3522
19422TIP3    H179681   4.130   4.093  11.626  0.1879 -1.5987 -0.4012
19422TIP3    H279682   3.980   4.104  11.645  0.2240  0.4317 -1.0840
19423TIP3   OH279683   0.784   4.271   5.536  0.0905 -0.0763  0.2071
19423TIP3    H179684   0.803   4.217   5.613 -0.8415 -0.4967  0.1573
19423TIP3    H279685   0.834   4.352   5.550 -0.6574  0.1693  1.6178
19424TIP3   OH279686   6.305   1.225  12.592 -0.3581 -0.2352 -0.1780
19424TIP3    H179687   6.261   1.164  12.651  1.1748 -2.0156 -0.7559
19424TIP3    H279688   6.394   1.232  12.628  0.4335 -0.9147 -1.8728
19425TIP3   OH279689   0.741   6.070  12.053 -0.3747 -0.3248 -0.4810
19425TIP3    H179690   0.752   6.028  12.138  0.5977  0.5037 -0.1817
19425TIP3    H279691   0.742   6.164  12.072  0.1832 -0.1278 -1.4351
19426TIP3   OH279692   1.585   5.713  13.622  0.4710 -0.5413  0.0264
19426TIP3    H179693   1.493   5.733  13.641 -0.1288 -2.4921 -0.6235
19426TIP3    H279694   1.623   5.691  13.708  0.1695 -0.3603  0.2081
19427TIP3   OH279695   3.811   2.774   5.884 -0.4382  0.2535  0.4755
19427TIP3    H179696   3.812   2.836   5.811  0.1001  0.2245  0.4602
19427TIP3    H279697   3.885   2.799   5.939 -1.4883  0.9662  1.6041
19428TIP3   OH279698   0.604   3.552   4.156  0.6609 -0.4957 -0.1564
19428TIP3    H179699   0.602   3.635   4.108  1.1721  0.1800  0.9553
19428TIP3    H279700   0.675   3.502   4.116 -2.0794 -2.1340 -3.5131
19429TIP3   OH279701   5.088   5.216   1.970  0.1568 -0.1249 -0.2955
19429TIP3    H179702   5.106   5.219   2.064  1.0091  0.5815 -0.4661
19429TIP3    H279703   5.097   5.307   1.941 -2.5082  0.1136 -0.6561
19430TIP3   OH279704   0.723   6.098   2.979  0.4523 -0.2255 -0.4332
19430TIP3    H179705   0.750   6.088   3.071  3.0506 -0.9196 -1.1808
19430TIP3    H279706   0.749   6.015   2.938  0.3556  0.5004 -2.0153
19431TIP3   OH279707   2.900   0.773  11.773 -0.4128 -0.0265  0.0787
19431TIP3    H179708   2.821   0.753  11.723 -0.9272  1.5788  0.2072
19431TIP3    H279709   2.869   0.826  11.847  0.8779  1.3053 -0.3129
19432TIP3   OH279710   4.343   6.177   0.873 -0.1686  0.3059  0.2529
19432TIP3    H179711   4.304   6.173   0.786  1.1857 -0.8834 -0.3440
19432TIP3    H279712   4.291   6.117   0.925 -0.2844  0.1454 -0.0451
19433TIP3   OH279713   1.671   2.730  13.292 -0.2957 -0.6697 -0.3425
19433TIP3    H179714   1.621   2.801  13.252  1.2522  0.3091 -0.6312
19433TIP3    H279715   1.616   2.653  13.281 -2.3072  0.5573  0.5152
19434TIP3   OH279716   5.716   3.173   4.967  0.1017  0.3716  0.2920
19434TIP3    H179717   5.628   3.194   4.934  0.4187  0.5634 -0.4542
19434TIP3    H279718   5.701   3.107   5.035 -0.5477 -0.3367 -0.5150
19435TIP3   OH279719   1.926   1.086   2.976 -0.5113  0.2253  0.2896
19435TIP3    H179720   1.938   1.177   2.949  1.2526  0.3405  1.3338
19435TIP3    H279721   1.995   1.070   3.040 -0.4843 -1.9890 -0.2014
19436TIP3   OH279722   0.507   6.302   0.660  0.3830  0.6122  0.2250
19436TIP3    H179723   0.564   6.257   0.597  0.5037 -0.6651  1.1957
19436TIP3    H279724   0.537   6.393   0.660  2.4200  0.0013  0.6526
19437TIP3   OH279725   1.914   5.870   0.011 -0.0041  0.3492  0.2898
19437TIP3    H179726   1.827   5.887  -0.026 -0.1944 -0.2729  0.4487
19437TIP3    H279727   1.899   5.805   0.079  0.7567 -0.6900 -0.5126
19438TIP3   OH279728   1.831   6.704  16.064 -0.6132  0.5536 -0.3164
19438TIP3    H179729   1.881   6.715  16.145 -0.9346  1.9249 -0.2765
19438TIP3    H279730   1.749   6.663  16.091 -0.4945  0.4990 -0.0369
19439TIP3   OH279731   5.726   2.459   4.873  0.4473  0.0073  0.7919
19439TIP3    H179732   5.694   2.535   4.824 -1.8298 -1.2352  0.2170
19439TIP3    H279733   5.657   2.394   4.863  1.9829 -1.8801  1.9216
19440TIP3   OH279734   3.911   1.832  15.710  0.2654  0.0159  0.4014
19440TIP3    H179735   3.965   1.811  15.634  0.4145  0.7866  0.2874
19440TIP3    H279736   3.870   1.749  15.734  0.8501 -0.4010 -0.0203
19441TIP3   OH279737   5.382   0.602  11.377 -0.7113 -0.3929 -0.1307
19441TIP3    H179738   5.370   0.660  11.302  0.2033  0.5023  0.3883
19441TIP3    H279739   5.463   0.555  11.358 -0.6036 -0.3355  0.1775
19442TIP3   OH279740   5.264   1.676   0.368  0.0454  0.1571 -0.1894
19442TIP3    H179741   5.326   1.607   0.347  1.6449  1.4278  0.1683
19442TIP3    H279742   5.247   1.665   0.462  2.2248  1.6602  0.4536
19443TIP3   OH279743   3.977   3.158  16.638 -0.0198  0.0145 -0.1649
19443TIP3    H179744   3.909   3.119  16.583 -0.6626 -0.4151  0.9057
19443TIP3    H279745   3.931   3.222  16.692  0.7507  1.0590 -0.7069
19444TIP3   OH279746   0.915   1.626   6.035  0.2074  0.7438 -0.4147
19444TIP3    H179747   0.846   1.685   6.004  1.4221  1.4676 -1.8460
19444TIP3    H279748   0.995   1.658   5.994  1.1917 -0.9076  0.1046
19445TIP3   OH279749   1.085   1.384   3.550  0.1516  0.2515 -0.0097
19445TIP3    H179750   1.075   1.365   3.643  0.9162  0.4825  0.1275
19445TIP3    H279751   1.073   1.479   3.543  1.0314  0.3735  0.0002
19446TIP3   OH279752   0.673   2.038  15.721 -0.4036  0.2823 -0.3874
19446TIP3    H179753   0.731   2.076  15.655  1.4841 -0.1105  0.9904
19446TIP3    H279754   0.723   1.965  15.758 -1.9243 -0.2932  0.6252
19447TIP3   OH279755   4.324   1.751  11.951  0.3369 -0.1507 -0.0642
19447TIP3    H179756   4.396   1.692  11.932 -0.5394 -0.6773 -2.0768
19447TIP3    H279757   4.349   1.834  11.910  0.2356 -0.0417  0.0916
19448TIP3   OH279758   5.789   6.335  13.739  0.0154  0.4747  0.5195
19448TIP3    H179759   5.771   6.264  13.678  0.1239  0.4238  0.5459
19448TIP3    H279760   5.884   6.332  13.751 -0.2588 -1.3901  2.9288
19449TIP3   OH279761   4.262   1.334  13.962 -0.4428 -0.1628  0.2129
19449TIP3    H179762   4.176   1.374  13.958 -0.0745  0.5673 -0.7667
19449TIP3    H279763   4.247   1.243  13.936 -1.1144 -0.3931  1.3705
19450TIP3   OH279764   0.058   0.106   3.749 -0.7118 -0.2939 -0.1866
19450TIP3    H179765   0.044   0.173   3.682  0.4829 -1.3633 -1.5489
19450TIP3    H279766   0.063   0.156   3.831  0.4064  1.3571 -1.1871
19451TIP3   OH279767   4.500   2.207   5.220 -0.0862  0.2121  0.2975
19451TIP3    H179768   4.474   2.292   5.186  0.3624 -0.0093 -0.6185
19451TIP3    H279769   4.417   2.159   5.229 -0.3891  0.8874  1.2627
19452TIP3   OH279770   4.806   4.262  14.880  0.2294 -0.0682 -0.1207
19452TIP3    H179771   4.881   4.233  14.830 -0.4152  1.7501 -2.3000
19452TIP3    H279772   4.730   4.224  14.835 -0.3323  1.1463 -0.2616
19453TIP3   OH279773   4.526   6.127  12.015  0.2630 -0.1538 -0.2096
19453TIP3    H179774   4.594   6.069  11.980  0.5014  0.5620 -0.9722
19453TIP3    H279775   4.454   6.121  11.952 -0.0773 -0.3411  0.2011
19454TIP3   OH279776   3.804   4.541  15.442  0.0471  0.4636  0.2491
19454TIP3    H179777   3.803   4.543  15.347  1.1298  0.4724  0.2213
19454TIP3    H279778   3.740   4.474  15.466 -0.2017  0.4348 -0.4827
19455TIP3   OH279779   6.255   0.572   5.134  0.1225  0.1331  0.6914
19455TIP3    H179780   6.242   0.621   5.215  0.8740 -1.2105  1.6743
19455TIP3    H279781   6.222   0.484   5.153  0.9220 -0.3866 -0.2282
19456TIP3   OH279782   1.550   4.945  17.130 -0.0622 -0.1972 -0.7065
19456TIP3    H179783   1.531   4.959  17.037 -0.5393  2.3456 -0.2932
19456TIP3    H279784   1.644   4.959  17.138 -0.0849 -0.0109 -0.7550
19457TIP3   OH279785   3.384   5.847   0.775  0.3464 -0.1829 -0.1184
19457TIP3    H179786   3.410   5.823   0.864  0.2884 -0.6187 -0.2146
19457TIP3    H279787   3.420   5.777   0.720  0.2841  0.0222 -0.4259
19458TIP3   OH279788   4.855   5.405  16.276 -0.2732 -0.3624  0.1071
19458TIP3    H179789   4.903   5.323  16.264 -1.2135 -1.1951  1.7008
19458TIP3    H279790   4.857   5.421  16.371  0.5739  1.9069 -0.2359
19459TIP3   OH279791   1.460   0.638  15.491 -0.4865 -0.3216 -0.1995
19459TIP3    H179792   1.524   0.674  15.430  0.1622  0.9297  1.1462
19459TIP3    H279793   1.413   0.572  15.441  0.8505 -0.2126 -1.6626
19460TIP3   OH279794   6.440   6.329  17.143 -0.7131  0.1093 -0.3091
19460TIP3    H179795   6.525   6.362  17.174 -0.3557 -0.4837 -0.6467
19460TIP3    H279796   6.428   6.371  17.057 -1.5400  1.4759  0.4383
19461TIP3   OH279797   5.483   4.393  12.315  0.0200 -0.2627 -0.7379
19461TIP3    H179798   5.468   4.311  12.269  0.0792  0.5041 -2.1826
19461TIP3    H279799   5.493   4.458  12.245  0.9208  0.8123  0.3480
19462TIP3   OH279800   6.584   1.672   1.125  0.1771  0.0383  0.1483
19462TIP3    H179801   6.561   1.761   1.150 -0.8579 -0.6527  1.8220
19462TIP3    H279802   6.680   1.670   1.130  0.1982  0.9919  0.3045
19463TIP3   OH279803   4.689   1.840  13.678 -0.2961 -0.0087 -0.3419
19463TIP3    H179804   4.634   1.772  13.640 -0.6881 -0.0213  0.2414
19463TIP3    H279805   4.776   1.799  13.685 -0.2431 -0.0484 -1.0879
19464TIP3   OH279806   3.856   1.809  10.842 -0.2008  0.0816  0.1326
19464TIP3    H179807   3.906   1.731  10.866 -1.2423 -0.1645  1.5792
19464TIP3    H279808   3.811   1.784  10.761 -0.9003 -1.0062  0.8334
19465TIP3   OH279809   6.658   3.757   5.194 -0.7514  0.8105  1.0945
19465TIP3    H179810   6.653   3.723   5.104 -0.6258 -0.0152  1.3883
19465TIP3    H279811   6.718   3.697   5.239 -2.0702  0.2268  2.1447
19466TIP3   OH279812   4.509   0.924  12.234  0.7557 -0.4230  0.2264
19466TIP3    H179813   4.507   0.832  12.260  2.5773 -0.3894  0.5778
19466TIP3    H279814   4.421   0.956  12.254  0.3124 -1.8989  0.7591
19467TIP3   OH279815   6.718   3.484   5.961  0.2671 -0.2814  0.2314
19467TIP3    H179816   6.746   3.551   5.899  0.2015 -0.7312 -0.2927
19467TIP3    H279817   6.623   3.478   5.948  0.4122 -1.2298 -0.4997
19468TIP3   OH279818   0.329   6.784  15.757  0.7508  0.1123  0.1082
19468TIP3    H179819   0.420   6.772  15.784  0.9557  1.7993  0.3055
19468TIP3    H279820   0.336   6.810  15.665  0.5938  1.4723  0.4554
19469TIP3   OH279821   2.242   0.316   5.670 -0.5762 -0.2587  0.7983
19469TIP3    H179822   2.305   0.286   5.736  1.3275  0.7083 -0.4784
19469TIP3    H279823   2.202   0.393   5.709 -0.3316 -0.3669  1.2765
19470TIP3   OH279824   2.440   3.119  13.162  0.1749 -0.3803 -0.1161
19470TIP3    H179825   2.479   3.116  13.249  1.5003  2.2141 -0.5394
19470TIP3    H279826   2.379   3.192  13.165  1.9344  1.2835 -1.9381
19471TIP3   OH279827   5.649   2.322  12.349 -0.8056 -0.5041 -0.0025
19471TIP3    H179828   5.708   2.397  12.347 -0.2356 -0.9048  0.7916
19471TIP3    H279829   5.687   2.260  12.287  0.3960 -1.2868  1.4309
19472TIP3   OH279830   0.557   1.071  13.971 -0.2355  0.1209  0.4518
19472TIP3    H179831   0.590   1.050  14.058 -2.1390  1.2154  1.4982
19472TIP3    H279832   0.526   1.161  13.977  1.9491  1.1961 -2.1338
19473TIP3   OH279833   2.239   3.574   0.829 -0.8262 -0.6123 -0.9895
19473TIP3    H179834   2.151   3.550   0.799 -0.6659 -0.5904 -1.4945
19473TIP3    H279835   2.228   3.594   0.922 -1.6403  0.7832 -1.3496
19474TIP3   OH279836   1.513   4.048  12.078  0.3306  0.1381  0.1900
19474TIP3    H179837   1.556   4.040  11.993 -0.4342 -1.1650 -0.0912
19474TIP3    H279838   1.468   3.965  12.091  0.5095  0.2803  1.9262
19475TIP3   OH279839   6.399   0.612   5.421  0.2171  0.5565  0.7770
19475TIP3    H179840   6.392   0.519   5.443 -1.1275  0.8375  1.6602
19475TIP3    H279841   6.486   0.621   5.382  0.2463 -1.1201  0.3854
19476TIP3   OH279842   5.099   6.434   5.961 -0.1109 -0.0864  0.4573
19476TIP3    H179843   5.044   6.479   5.897  0.6438  0.9392  0.5170
19476TIP3    H279844   5.038   6.380   6.012 -0.7331 -0.9301 -1.1077
19477TIP3   OH279845   0.584   2.278   3.411  0.3733  0.1023 -0.1556
19477TIP3    H179846   0.644   2.321   3.349 -0.0876  0.9389 -0.0409
19477TIP3    H279847   0.624   2.193   3.428  1.2862  0.4543 -0.4506
19478TIP3   OH279848   1.023   2.414  12.725 -0.1837  0.2438 -0.4253
19478TIP3    H179849   1.031   2.332  12.677 -0.0009  0.9783 -1.6863
19478TIP3    H279850   0.974   2.472  12.667 -1.2230  0.7131  0.8752
19479TIP3   OH279851   1.824   1.147  11.837 -0.1740  0.2354  0.1148
19479TIP3    H179852   1.757   1.183  11.895 -0.4585  0.0504 -0.0975
19479TIP3    H279853   1.787   1.065  11.806 -0.1241  0.4464 -0.5109
19480TIP3   OH279854   1.666   5.623  13.218  0.4559  0.5274 -0.3248
19480TIP3    H179855   1.602   5.620  13.147 -1.4640 -1.1589  1.3193
19480TIP3    H279856   1.673   5.532  13.247 -0.9270  1.3762  3.2962
19481TIP3   OH279857   4.711   4.376   5.310  0.1301 -0.0037 -0.8040
19481TIP3    H179858   4.749   4.305   5.362 -0.8743  0.6116  0.8826
19481TIP3    H279859   4.619   4.352   5.301 -0.1243  0.8410 -0.5918
19482TIP3   OH279860   2.099   4.032  16.971  0.2207 -0.2397  0.4387
19482TIP3    H179861   2.129   3.945  16.996  0.5688 -0.1527  0.3337
19482TIP3    H279862   2.070   4.022  16.880  1.2203 -0.0321  0.0763
19483TIP3   OH279863   1.188   5.632  16.496  0.0223 -0.1017 -0.2544
19483TIP3    H179864   1.218   5.563  16.437  0.8516  0.2444 -0.2413
19483TIP3    H279865   1.134   5.689  16.441  1.2483  0.5331 -0.8329
19484TIP3   OH279866   3.357   1.357   4.410 -0.1000 -0.3111 -0.5485
19484TIP3    H179867   3.307   1.421   4.460 -0.7107 -0.3880 -1.0528
19484TIP3    H279868   3.329   1.272   4.446  0.8788 -0.3050  0.2783
19485TIP3   OH279869   3.770   1.835  13.399  0.8593  0.0686  0.3427
19485TIP3    H179870   3.680   1.807  13.383  1.4535 -0.8297 -1.8365
19485TIP3    H279871   3.762   1.924  13.434 -0.8888 -0.5533  1.6722
19486TIP3   OH279872   4.918   4.846  14.057  0.5608 -0.4110  0.0256
19486TIP3    H179873   4.875   4.861  13.973 -0.9990  0.3479  0.9278
19486TIP3    H279874   5.011   4.863  14.039  0.4403 -1.3505 -1.7797
19487TIP3   OH279875   0.983   0.811   2.089  0.4228 -0.3517  0.2673
19487TIP3    H179876   1.066   0.763   2.096  0.3593 -0.3500  1.1661
19487TIP3    H279877   0.980   0.865   2.168  0.4733  1.1238 -0.7084
19488TIP3   OH279878   0.748   5.923  15.228  0.3009  0.3139  0.3865
19488TIP3    H179879   0.840   5.925  15.254  1.1456 -4.1283 -1.3916
19488TIP3    H279880   0.702   5.884  15.303  0.3038  0.1913  0.3239
19489TIP3   OH279881   0.463   2.163  14.754 -0.5213 -0.9205  0.1386
19489TIP3    H179882   0.397   2.123  14.698  0.6779 -0.2152 -1.8916
19489TIP3    H279883   0.431   2.253  14.766 -0.2419 -0.7496 -0.3595
19490TIP3   OH279884   0.887   2.181  15.890 -0.4617  0.6096  0.3971
19490TIP3    H179885   0.934   2.181  15.807 -1.5422 -1.1216 -0.2825
19490TIP3    H279886   0.927   2.252  15.941 -0.2857  2.2503 -1.8620
19491TIP3   OH279887   6.674   3.425   3.118 -0.5333  0.0974  0.8675
19491TIP3    H179888   6.685   3.519   3.106  1.8244 -0.0336  1.4307
19491TIP3    H279889   6.650   3.416   3.211  0.8459  0.1001  1.2484
19492TIP3   OH279890   1.999   3.781  12.297  0.5264 -0.3701  0.5054
19492TIP3    H179891   2.031   3.862  12.339 -0.3705  0.3864 -0.2171
19492TIP3    H279892   1.909   3.801  12.273  0.5920 -1.2585 -0.5646
19493TIP3   OH279893   4.858   0.880   1.358 -0.4769 -0.1116  0.4219
19493TIP3    H179894   4.935   0.830   1.384 -0.0577 -0.1612 -0.8664
19493TIP3    H279895   4.870   0.897   1.265 -2.4259 -0.8471 -0.0213
19494TIP3   OH279896   5.787   6.358  11.901 -0.3776  0.0751 -0.4574
19494TIP3    H179897   5.702   6.400  11.891 -0.6336 -0.1228  0.6940
19494TIP3    H279898   5.842   6.425  11.941 -0.3602 -0.1954 -0.0211
19495TIP3   OH279899   1.520   6.105  15.653  0.2185 -0.0175  0.5930
19495TIP3    H179900   1.477   6.177  15.609  1.7538  1.5284  1.5024
19495TIP3    H279901   1.488   6.110  15.743  0.5407 -0.2985  0.7243
19496TIP3   OH279902   0.486   6.253  12.326 -0.5349  0.1388  0.0156
19496TIP3    H179903   0.532   6.266  12.243  0.1526 -0.6596  0.2576
19496TIP3    H279904   0.468   6.341  12.358  3.1612  0.6243  1.1807
19497TIP3   OH279905   2.744   0.523   0.459 -0.1965 -0.1389  0.4585
19497TIP3    H179906   2.785   0.587   0.401 -0.6463 -0.3455 -0.0908
19497TIP3    H279907   2.804   0.449   0.461  0.6081  0.5123  1.5460
19498TIP3   OH279908   5.993   2.712   5.784  0.3076 -0.0389  0.1361
19498TIP3    H179909   6.035   2.728   5.869 -1.0487  0.7190  0.6941
19498TIP3    H279910   6.003   2.794   5.736  1.9303 -0.7712 -0.8657
19499TIP3   OH279911   5.894   3.441  17.194  0.7474 -0.2424  0.4188
19499TIP3    H179912   5.842   3.425  17.115 -1.0351  0.3784  1.4149
19499TIP3    H279913   5.870   3.371  17.254  2.4962 -1.0231  0.2787
19500TIP3   OH279914   2.635   2.369  13.086 -0.1016 -0.2656 -0.2133
19500TIP3    H179915   2.600   2.380  12.998  0.9188 -1.7188 -0.8606
19500TIP3    H279916   2.582   2.426  13.141 -0.9714  0.4341 -1.7151
19501TIP3   OH279917   6.577   4.770  12.269 -0.5474  0.5358 -0.1527
19501TIP3    H179918   6.645   4.703  12.263 -0.8073  0.3429 -1.2074
19501TIP3    H279919   6.508   4.729  12.321  0.1722  0.7718  1.0129
19502TIP3   OH279920   5.812   2.781   2.119  0.3728  0.0164  0.5625
19502TIP3    H179921   5.903   2.759   2.100  0.0946 -1.8130  1.1768
19502TIP3    H279922   5.783   2.713   2.179 -0.9687  1.4415  1.5901
19503TIP3   OH279923   6.696   1.980  16.676 -0.1063 -0.3996  0.4424
19503TIP3    H179924   6.779   2.026  16.663  0.2253 -0.7371  1.2919
19503TIP3    H279925   6.629   2.047  16.667  0.4040  0.4288  2.4163
19504TIP3   OH279926   3.712   4.543  12.218  0.4469  0.1382 -0.3470
19504TIP3    H179927   3.619   4.546  12.243  0.6022  1.1027  0.1449
19504TIP3    H279928   3.753   4.491  12.287  0.7159  2.0270  1.0087
19505TIP3   OH279929   3.604   3.229  10.534 -0.3575 -0.3119  0.6315
19505TIP3    H179930   3.525   3.175  10.543 -1.0008  0.1546 -1.6402
19505TIP3    H279931   3.671   3.168  10.503 -0.7237 -0.0994 -0.6176
19506TIP3   OH279932   2.185   5.749   5.025  0.1181 -0.4361 -0.1571
19506TIP3    H179933   2.097   5.748   4.989  1.0072  2.1496 -2.7424
19506TIP3    H279934   2.173   5.772   5.117 -1.9272 -2.0418  0.0638
19507TIP3   OH279935   3.199   4.311   2.669 -0.5055  0.8286  0.3811
19507TIP3    H179936   3.190   4.305   2.764 -0.3111 -1.6678  0.3143
19507TIP3    H279937   3.139   4.245   2.635  1.0591  0.0823 -1.0939
19508TIP3   OH279938   3.335   5.433  12.951 -0.2513 -0.3586  0.6787
19508TIP3    H179939   3.424   5.470  12.954 -0.3152 -0.2052  0.6954
19508TIP3    H279940   3.279   5.508  12.930 -0.2365 -0.6891 -0.6544
19509TIP3   OH279941   2.529   3.733   1.894  0.2694 -0.1409  0.5099
19509TIP3    H179942   2.456   3.790   1.921 -0.0355 -1.0475  1.6685
19509TIP3    H279943   2.490   3.646   1.887  0.9832 -0.4143 -0.1288
19510TIP3   OH279944   3.571   1.836  15.600 -0.1206 -0.1651  0.1072
19510TIP3    H179945   3.625   1.784  15.660 -0.3670 -0.7868 -0.2048
19510TIP3    H279946   3.536   1.906  15.655  0.1958 -0.3424  0.5426
19511TIP3   OH279947   2.897   0.573  10.927 -0.1252 -0.4454  0.0878
19511TIP3    H179948   2.831   0.521  10.880 -1.6733  0.7421  0.8329
19511TIP3    H279949   2.899   0.534  11.015  0.3257 -0.6089  0.0052
19512TIP3   OH279950   3.071   0.920   2.345 -0.3052 -0.1906  0.4348
19512TIP3    H179951   3.111   0.833   2.339 -0.6716 -0.4483  1.5813
19512TIP3    H279952   2.980   0.903   2.370 -0.8395  0.4516 -0.9428
19513TIP3   OH279953   4.505   6.512  14.507  0.8991  0.1177 -0.1279
19513TIP3    H179954   4.505   6.583  14.571  0.1085  0.8357 -0.9022
19513TIP3    H279955   4.445   6.447  14.543  0.6034  0.4325 -0.0516
19514TIP3   OH279956   6.366   1.158   1.736  0.1159  0.0294 -0.5599
19514TIP3    H179957   6.458   1.162   1.707  0.1620 -1.0033 -0.6208
19514TIP3    H279958   6.353   1.066   1.759 -0.1275  0.6717  2.1224
19515TIP3   OH279959   6.626   6.317  15.047  0.6721  0.4276  0.3772
19515TIP3    H179960   6.621   6.405  15.009 -1.6435 -0.7395 -2.4879
19515TIP3    H279961   6.535   6.294  15.066  0.8070 -2.3375 -1.6881
19516TIP3   OH279962   3.302   2.698   2.736 -0.3188 -0.7105 -0.0150
19516TIP3    H179963   3.327   2.670   2.824 -0.1692 -1.1743 -0.2038
19516TIP3    H279964   3.214   2.736   2.747  0.3189  0.6619  0.6005
19517TIP3   OH279965   5.066   3.898  17.012 -0.1645 -0.3014  0.4617
19517TIP3    H179966   5.088   3.841  16.938 -1.1262  1.1723 -1.0259
19517TIP3    H279967   5.132   3.968  17.008 -0.3990 -0.0575  0.8000
19518TIP3   OH279968   5.139   3.062   3.712  0.1007  0.1785 -0.3557
19518TIP3    H179969   5.077   3.020   3.653  0.6625 -0.1395 -0.7263
19518TIP3    H279970   5.126   3.156   3.699 -1.3337  0.1496  0.6561
19519TIP3   OH279971   0.102   3.311  13.577  0.3741  0.2310 -0.1711
19519TIP3    H179972   0.082   3.249  13.507 -0.0636 -0.1392  0.2778
19519TIP3    H279973   0.086   3.397  13.538  0.1191  0.0272 -0.5250
19520TIP3   OH279974   1.537   4.782  12.253  0.5785  0.1152  0.0705
19520TIP3    H179975   1.569   4.699  12.287  2.4153  1.4025  1.8005
19520TIP3    H279976   1.583   4.795  12.170  1.3969  0.0310  0.5028
19521TIP3   OH279977   4.421   1.729  14.741 -1.0408  0.3298  0.1643
19521TIP3    H179978   4.424   1.813  14.787 -0.2367  0.1948  0.3698
19521TIP3    H279979   4.424   1.753  14.648 -0.2585  0.5203  0.2298
19522TIP3   OH279980   2.170   0.007   3.034  0.1960 -0.1442  0.4914
19522TIP3    H179981   2.191  -0.045   3.111 -1.8625 -4.1828 -1.3393
19522TIP3    H279982   2.246  -0.003   2.977  0.3633  0.0241  0.6837
19523TIP3   OH279983   2.006   6.447   1.695 -0.3200 -0.3202 -0.1854
19523TIP3    H179984   1.980   6.355   1.692  1.1028 -0.8332  1.5327
19523TIP3    H279985   1.928   6.493   1.727 -0.1833 -1.3958  1.9061
19524TIP3   OH279986   4.220   3.286   4.641 -0.3622  0.7108  0.2670
19524TIP3    H179987   4.313   3.296   4.663  0.0810  0.1441 -1.2494
19524TIP3    H279988   4.209   3.335   4.559 -1.4853  1.0061  0.5651
19525TIP3   OH279989   0.137   4.254   0.408  0.0236  0.3296  0.1763
19525TIP3    H179990   0.180   4.182   0.361  0.1206  0.2961  0.3147
19525TIP3    H279991   0.183   4.258   0.492  1.8574  2.2740 -0.7983
19526TIP3   OH279992   5.249   3.850  16.548  0.5345  0.5146  0.4828
19526TIP3    H179993   5.288   3.895  16.473 -0.0785  0.1759 -0.0464
19526TIP3    H279994   5.169   3.811  16.514 -0.6254  1.7300  1.7041
19527TIP3   OH279995   0.302   1.271  10.433 -0.1807 -0.3569 -0.2229
19527TIP3    H179996   0.348   1.187  10.442 -0.6512 -0.6594 -0.5734
19527TIP3    H279997   0.214   1.254  10.467 -0.4265 -0.1396 -0.7377
19528TIP3   OH279998   5.834   1.480  13.934  0.0157 -0.3723  0.3791
19528TIP3    H179999   5.879   1.404  13.971 -0.5023  0.7874  3.7338
19528TIP3    H280000   5.753   1.487  13.984 -0.2655  1.9768 -0.2728
19529TIP3   OH280001   4.563   0.956   1.158  0.0788 -0.2190 -0.1356
19529TIP3    H180002   4.495   0.929   1.096  0.6320 -0.8955 -0.4618
19529TIP3    H280003   4.583   0.877   1.207  2.1659 -0.6115 -1.5205
19530TIP3   OH280004   1.310   3.506  13.838  0.2852 -0.3768 -0.4232
19530TIP3    H180005   1.282   3.566  13.769  0.1217 -3.3458 -3.2167
19530TIP3    H280006   1.405   3.519  13.845 -0.0153  1.6762  0.7246
19531TIP3   OH280007   0.886   6.763   0.541 -0.7081 -0.1114 -0.0332
19531TIP3    H180008   0.846   6.790   0.458  0.0699  0.3638 -0.2702
19531TIP3    H280009   0.907   6.670   0.528  0.6371  0.2850 -0.8997
19532TIP3   OH280010   6.052   3.925  13.015  0.3891  0.6323 -0.5290
19532TIP3    H180011   6.105   3.953  12.940  1.0613 -0.7860 -0.5998
19532TIP3    H280012   6.074   3.988  13.084  1.9739  0.2471 -0.6392
19533TIP3   OH280013   5.515   4.530   3.133  0.3701 -0.3262  0.2453
19533TIP3    H180014   5.539   4.553   3.222 -2.5225  0.1889  0.9726
19533TIP3    H280015   5.532   4.436   3.127 -0.3074 -0.5501  1.6477
19534TIP3   OH280016   5.718   1.164  13.211 -0.2948  0.8194  0.6903
19534TIP3    H180017   5.761   1.090  13.254 -0.2237  1.2442  1.3670
19534TIP3    H280018   5.774   1.183  13.135 -0.7939 -0.3701 -0.0076
19535TIP3   OH280019   1.415   5.642  14.410 -0.7761  0.0765  0.3218
19535TIP3    H180020   1.439   5.697  14.335  1.7778  0.1146  1.0697
19535TIP3    H280021   1.411   5.702  14.484 -1.3426 -0.2537  0.5643
19536TIP3   OH280022   4.069   6.548   2.682 -0.3408  0.2754 -0.0001
19536TIP3    H180023   4.015   6.470   2.695 -2.7741  1.6042 -1.4879
19536TIP3    H280024   4.153   6.525   2.721 -1.0250 -2.9801 -0.1668
19537TIP3   OH280025   5.598   1.158   1.026  0.5802  0.1038  1.0786
19537TIP3    H180026   5.653   1.184   1.100  0.4540  1.1678  0.8092
19537TIP3    H280027   5.517   1.207   1.038  0.3095 -0.2178  0.5904
19538TIP3   OH280028   2.689   4.495  13.112  0.3244  0.2571 -0.5923
19538TIP3    H180029   2.608   4.533  13.146  0.5264 -0.8412  1.2477
19538TIP3    H280030   2.757   4.528  13.170  1.3611  1.7454 -2.5570
19539TIP3   OH280031   1.959   1.424  12.947 -0.7299  0.1543 -0.1579
19539TIP3    H180032   2.052   1.406  12.931 -0.2839  1.9873  0.1573
19539TIP3    H280033   1.947   1.406  13.040 -0.5127  0.6258 -0.0386
19540TIP3   OH280034   3.893   3.113   3.489 -0.1778 -0.1903 -0.2558
19540TIP3    H180035   3.856   3.201   3.484 -1.1535 -0.5977 -0.3708
19540TIP3    H280036   3.924   3.094   3.401 -0.1344 -0.0316 -0.2741
19541TIP3   OH280037   6.408   5.107   1.506 -0.1586  0.1544 -0.9504
19541TIP3    H180038   6.314   5.105   1.487 -0.0635  0.5187 -1.4963
19541TIP3    H280039   6.436   5.016   1.493 -0.6801 -0.2657  0.6109
19542TIP3   OH280040   2.203   0.730   5.557 -0.3363 -0.0347 -0.0300
19542TIP3    H180041   2.234   0.807   5.509  0.7150 -1.4721 -1.7491
19542TIP3    H280042   2.281   0.676   5.569 -0.9713 -0.6654  1.5715
19543TIP3   OH280043   0.900   2.745  12.805 -0.0017 -0.0583  0.4656
19543TIP3    H180044   0.832   2.682  12.783  0.3248 -0.7583  1.3953
19543TIP3    H280045   0.854   2.816  12.849 -0.3560  0.3112 -0.4835
19544TIP3   OH280046   0.048   4.562  15.261  0.1229 -0.0546  0.0416
19544TIP3    H180047   0.073   4.611  15.340  0.8564  0.3032 -0.4004
19544TIP3    H280048   0.107   4.486  15.261  0.0641 -0.1000 -0.1069
19545TIP3   OH280049   5.082   4.473   3.871  0.3963 -0.0477 -0.2126
19545TIP3    H180050   5.159   4.418   3.859 -0.1938 -1.2045  1.0507
19545TIP3    H280051   5.104   4.555   3.826  1.7877 -0.8481 -1.0716
19546TIP3   OH280052   4.496   3.643   5.839  0.1757 -0.5432 -0.3302
19546TIP3    H180053   4.467   3.614   5.925  1.4727 -1.7376 -0.2537
19546TIP3    H280054   4.425   3.698   5.806  0.2503  1.1468  2.0905
19547TIP3   OH280055   6.348   1.003   3.983 -0.3330 -0.2223  0.1187
19547TIP3    H180056   6.356   1.065   4.055 -1.2148  0.6577 -0.5022
19547TIP3    H280057   6.328   1.058   3.907  2.5507 -0.8992 -1.2412
19548TIP3   OH280058   5.722   3.616  11.193  0.2011 -0.1498 -0.2512
19548TIP3    H180059   5.763   3.554  11.132 -2.3977 -1.5751 -0.6614
19548TIP3    H280060   5.705   3.565  11.272 -0.6662  0.4195 -0.0550
19549TIP3   OH280061   0.369   0.407  13.650  0.0707  0.1974  0.5936
19549TIP3    H180062   0.276   0.420  13.633 -0.0305 -0.7979  0.3373
19549TIP3    H280063   0.372   0.350  13.727  0.5044  1.8576  1.8824
19550TIP3   OH280064   2.993   4.382   5.139  0.5879 -0.4215 -0.4288
19550TIP3    H180065   2.956   4.448   5.198 -0.3404  0.2980 -1.7542
19550TIP3    H280066   3.003   4.304   5.193 -1.5092 -0.2013  0.3687
19551TIP3   OH280067   0.450   0.072  10.985  1.2508 -0.7070 -0.1289
19551TIP3    H180068   0.503   0.123  10.924 -0.4999  0.4420 -0.7680
19551TIP3    H280069   0.448  -0.016  10.947  0.9730 -0.2417 -1.2212
19552TIP3   OH280070   0.026   2.543   4.181  0.2312 -0.3687 -0.5778
19552TIP3    H180071   0.014   2.635   4.201  0.1000 -0.3019 -0.9587
19552TIP3    H280072  -0.038   2.497   4.236  0.3955 -0.2444 -0.2837
19553TIP3   OH280073   2.349   6.618  12.544  0.5347  0.1838  0.2182
19553TIP3    H180074   2.325   6.621  12.451 -0.9038  0.8321  0.5892
19553TIP3    H280075   2.325   6.530  12.572  1.0914 -0.0584 -0.0345
19554TIP3   OH280076   3.641   3.167  15.327 -0.3700  0.0120 -0.4048
19554TIP3    H180077   3.713   3.106  15.340  0.6164  1.0924 -0.6846
19554TIP3    H280078   3.647   3.229  15.399 -0.8581  0.2677 -0.5758
19555TIP3   OH280079   3.936   2.125  11.556  0.2261  0.0604 -0.3517
19555TIP3    H180080   3.898   2.208  11.586 -0.6517 -0.2692 -0.5389
19555TIP3    H280081   3.979   2.148  11.473  0.2392  0.3879 -0.2580
19556TIP3   OH280082   2.696   5.852  15.776  0.0533  0.4590  0.0629
19556TIP3    H180083   2.706   5.943  15.750  0.6158  1.0423  2.1159
19556TIP3    H280084   2.717   5.802  15.697  1.1872  2.0703 -0.7236
19557TIP3   OH280085   5.805   0.100  11.288 -0.2693  0.1118  0.2827
19557TIP3    H180086   5.768   0.072  11.371  0.3224 -0.9950  0.1954
19557TIP3    H280087   5.784   0.029  11.227  1.2848 -0.1840  0.0474
19558TIP3   OH280088   1.059   3.115   2.082 -0.1350 -0.4799 -0.3399
19558TIP3    H180089   1.110   3.194   2.103  1.1422 -0.9436 -1.5082
19558TIP3    H280090   1.025   3.085   2.166  0.8322  0.3404  0.3678
19559TIP3   OH280091   3.642   5.669   2.517  0.6344  0.3282 -0.1210
19559TIP3    H180092   3.711   5.628   2.569  0.6292  0.3549 -0.0934
19559TIP3    H280093   3.685   5.695   2.436  0.8839  1.2598  0.3026
19560TIP3   OH280094   4.736   3.264   4.877  0.1281 -0.4765 -0.1155
19560TIP3    H180095   4.677   3.229   4.943  0.2788 -0.7309 -0.1142
19560TIP3    H280096   4.816   3.286   4.925 -0.3849  1.0247  0.1075
19561TIP3   OH280097   3.475   0.227  15.966 -0.4512  0.3535  0.7345
19561TIP3    H180098   3.447   0.136  15.958 -0.1616 -0.0876  3.6710
19561TIP3    H280099   3.429   0.273  15.896 -1.2031 -1.9042 -0.3313
19562TIP3   OH280100   1.407   0.205  14.416 -0.3718  0.5949  0.4812
19562TIP3    H180101   1.417   0.297  14.438 -0.0034  0.7281 -0.2102
19562TIP3    H280102   1.317   0.184  14.441 -0.3830  1.0745  0.8567
19563TIP3   OH280103   3.448   2.531  16.033  0.2269  0.2226 -0.0963
19563TIP3    H180104   3.392   2.512  15.957 -1.4599  2.9814  0.3297
19563TIP3    H280105   3.439   2.454  16.089 -1.2981 -0.4021 -1.1362
19564TIP3   OH280106   5.233   3.606  14.256  0.8060 -0.1293 -0.0339
19564TIP3    H180107   5.199   3.693  14.236  2.3376  0.6924  0.7471
19564TIP3    H280108   5.219   3.556  14.175  0.3454  0.9779 -0.6657
19565TIP3   OH280109   5.793   4.535  14.604  0.4580  0.0188 -0.6548
19565TIP3    H180110   5.826   4.592  14.673 -0.9371  0.2837 -0.1800
19565TIP3    H280111   5.793   4.589  14.526 -1.4872  0.9284 -0.0720
19566TIP3   OH280112   4.892   0.674  11.888  0.1750 -0.0738 -0.0588
19566TIP3    H180113   4.857   0.763  11.885  0.4603  0.0484  0.1904
19566TIP3    H280114   4.977   0.683  11.932  0.0852 -0.5089  0.2070
19567TIP3   OH280115   6.712   6.267  12.748  0.0813  0.9584 -0.0910
19567TIP3    H180116   6.699   6.349  12.797  1.6825  0.0749  2.0198
19567TIP3    H280117   6.626   6.226  12.746 -0.1038  1.1588  1.8538
19568TIP3   OH280118   4.163   0.616   2.957  0.0205 -0.3798  0.3798
19568TIP3    H180119   4.251   0.586   2.936  0.2923  2.5805 -3.8574
19568TIP3    H280120   4.176   0.694   3.011  0.2126  0.9102 -1.4377
19569TIP3   OH280121   4.636   6.060  16.317 -0.2418  0.1104 -0.4456
19569TIP3    H180122   4.718   6.012  16.329  1.3066  2.3021 -1.5067
19569TIP3    H280123   4.595   6.019  16.240  0.2025 -0.5770 -0.3211
19570TIP3   OH280124   2.155   5.794   5.302  0.0848 -0.1157  0.1613
19570TIP3    H180125   2.183   5.886   5.300  0.2116 -0.1346  0.9274
19570TIP3    H280126   2.169   5.767   5.392 -0.9617 -0.5819  0.1887
19571TIP3   OH280127   3.580   4.908   0.812 -0.0016  0.3092 -0.0804
19571TIP3    H180128   3.518   4.888   0.883 -0.2544 -1.2368 -0.6903
19571TIP3    H280129   3.539   4.979   0.763 -1.6114 -1.0456 -0.7995
19572TIP3   OH280130   1.130   0.962   5.575 -0.0378  0.2104  0.2289
19572TIP3    H180131   1.122   1.006   5.660  0.1654  1.1988 -0.2437
19572TIP3    H280132   1.205   1.005   5.533  0.0031 -0.4213 -0.3543
19573TIP3   OH280133   2.253   2.706   1.057 -0.7773  0.2396  0.1863
19573TIP3    H180134   2.291   2.686   0.972 -0.6441  2.4411 -0.3300
19573TIP3    H280135   2.328   2.721   1.114 -0.8719 -0.7991  0.6061
19574TIP3   OH280136   3.367   5.065  13.906  0.0063  0.0414  0.0329
19574TIP3    H180137   3.359   5.122  13.983  0.8064 -0.4485  0.4829
19574TIP3    H280138   3.348   5.123  13.832 -1.8135  0.2897  0.6294
19575TIP3   OH280139   4.927   6.428   6.633  0.3070  0.0049  0.3471
19575TIP3    H180140   5.022   6.427   6.624  0.1718  1.8825 -3.2797
19575TIP3    H280141   4.902   6.518   6.612 -2.3181 -0.5676  0.6680
19576TIP3   OH280142   2.022   4.142   0.611 -0.2199 -0.9543  0.2881
19576TIP3    H180143   2.109   4.180   0.623 -0.1631 -0.5097 -1.3171
19576TIP3    H280144   2.018   4.121   0.518 -2.2414  0.0131  0.1163
19577TIP3   OH280145   1.142   1.016   3.890  0.1628 -0.7688  0.0785
19577TIP3    H180146   1.048   1.033   3.893  0.1319 -0.8298 -0.4005
19577TIP3    H280147   1.171   1.026   3.980 -0.2183 -0.2543  0.1502
19578TIP3   OH280148   4.965   3.180   0.968  0.3586 -0.0414 -0.5783
19578TIP3    H180149   4.896   3.165   1.032  1.0921  1.2098  0.5783
19578TIP3    H280150   4.939   3.130   0.891 -1.1688 -0.6120  0.2762
19579TIP3   OH280151   3.902   4.758   4.156  0.0408 -0.5722  0.1434
19579TIP3    H180152   3.963   4.832   4.144 -0.1650 -0.2759  0.8843
19579TIP3    H280153   3.959   4.681   4.160  0.1376 -0.7628 -2.8655
19580TIP3   OH280154   6.178   0.173   3.002  0.2432 -0.1888 -0.0072
19580TIP3    H180155   6.216   0.233   2.937  0.4332  0.3891  0.6312
19580TIP3    H280156   6.134   0.106   2.949  2.5659 -1.1760 -0.7776
19581TIP3   OH280157   2.073   0.370  12.023  0.1057  0.6300  0.2830
19581TIP3    H180158   2.128   0.307  11.976 -1.1917  0.3881 -0.9641
19581TIP3    H280159   2.083   0.452  11.974  0.3193  0.9265  0.8068
19582TIP3   OH280160   5.700   4.701  15.082 -0.1004 -0.2754 -0.0945
19582TIP3    H180161   5.616   4.701  15.036 -0.8465 -1.1925  1.1846
19582TIP3    H280162   5.682   4.655  15.164  2.0237 -1.9965 -0.4853
19583TIP3   OH280163   2.833   2.857   3.434  0.0422 -0.3989 -0.5164
19583TIP3    H180164   2.866   2.853   3.524  0.1398 -0.9263 -0.5703
19583TIP3    H280165   2.787   2.773   3.422  1.4555 -1.0685 -1.5107
19584TIP3   OH280166   3.175   6.118   2.169  0.1545  0.1084 -0.1148
19584TIP3    H180167   3.263   6.086   2.189  0.3357  0.6152 -0.0879
19584TIP3    H280168   3.146   6.160   2.250 -0.6863 -1.2990  0.3505
19585TIP3   OH280169   0.664   4.211  12.751 -0.1470 -0.0341  0.3803
19585TIP3    H180170   0.626   4.170  12.829 -1.6142  1.9326  0.7792
19585TIP3    H280171   0.723   4.279  12.786  1.6135 -1.1593 -0.2641
19586TIP3   OH280172   2.216   0.558   3.682  0.4187 -0.2202  0.5024
19586TIP3    H180173   2.191   0.593   3.596  0.8051  0.3233  0.6024
19586TIP3    H280174   2.143   0.502   3.707  0.6149 -0.9531 -0.4996
19587TIP3   OH280175   2.292   4.786   5.409 -0.1682  0.5166 -0.1341
19587TIP3    H180176   2.326   4.866   5.450  0.2665  0.6134 -0.6656
19587TIP3    H280177   2.210   4.814   5.369 -0.6742  0.3848  0.7832
19588TIP3   OH280178   4.997   1.940   4.833 -0.7225  0.2452  0.3811
19588TIP3    H180179   4.908   1.910   4.815 -1.0921  0.9069  1.0159
19588TIP3    H280180   4.988   1.991   4.914  0.2493  0.2498  0.4927
19589TIP3   OH280181   3.091   4.829   4.039 -0.2697 -0.0878  0.3607
19589TIP3    H180182   3.027   4.780   4.090  1.0089 -0.6400  1.4908
19589TIP3    H280183   3.116   4.770   3.968 -0.3552 -0.2111  0.4331
19590TIP3   OH280184   2.555   5.170  13.665  0.7417  0.0468  0.3076
19590TIP3    H180185   2.461   5.149  13.667  1.0583 -1.4256  1.6488
19590TIP3    H280186   2.587   5.128  13.585  0.0079  2.0087 -1.1101
19591TIP3   OH280187   3.985   3.059  13.002  0.5059  0.6460  0.0433
19591TIP3    H180188   3.947   3.120  13.066 -0.0723  0.2748  0.0632
19591TIP3    H280189   3.956   2.973  13.030  2.7879  0.1326  1.0588
19592TIP3   OH280190   3.142   6.302  13.784 -0.8354  0.1468  0.3492
19592TIP3    H180191   3.202   6.339  13.719 -0.9615  0.9770  0.6906
19592TIP3    H280192   3.178   6.215  13.803  0.3620  0.6811  0.6564
19593TIP3   OH280193   4.147   4.611   0.511  0.8362 -0.0916  0.5879
19593TIP3    H180194   4.171   4.686   0.456  0.2131 -0.3744 -0.0987
19593TIP3    H280195   4.100   4.649   0.585 -0.4791  0.1402 -0.3305
19594TIP3   OH280196   3.634   5.290   0.975 -0.3293  0.1241  0.2960
19594TIP3    H180197   3.706   5.322   1.030  0.2158 -0.0431 -0.3121
19594TIP3    H280198   3.573   5.250   1.037  0.1577  0.1629  0.8109
19595TIP3   OH280199   3.933   3.126  13.828 -1.1666 -0.3338 -0.0619
19595TIP3    H180200   3.947   3.180  13.905  2.9247 -1.4781  0.2578
19595TIP3    H280201   3.894   3.046  13.861  0.3282 -0.7161  0.8605
19596TIP3   OH280202   3.647   3.695   1.163  0.4914 -0.0513  0.2449
19596TIP3    H180203   3.552   3.701   1.158  0.5995  1.4819 -0.7112
19596TIP3    H280204   3.669   3.619   1.109 -0.1689 -0.3430  0.3731
19597TIP3   OH280205   4.362   0.959  16.347  0.0702 -0.0670  0.2369
19597TIP3    H180206   4.456   0.947  16.336  0.2069 -1.3244  2.2191
19597TIP3    H280207   4.326   0.949  16.259  1.6722 -0.9132 -0.3666
19598TIP3   OH280208   0.539   0.454   6.040  0.1320 -0.2454  0.1057
19598TIP3    H180209   0.484   0.377   6.025 -2.7923  2.2534 -4.1329
19598TIP3    H280210   0.497   0.500   6.113  1.6142 -2.1921  2.3361
19599TIP3   OH280211   0.732   1.915  16.490  0.4151  0.6830 -0.3741
19599TIP3    H180212   0.760   1.850  16.555  0.8617  0.9830 -0.2557
19599TIP3    H280213   0.665   1.871  16.439  0.7541  0.1085 -0.3324
19600TIP3   OH280214   4.384   6.440  12.777  0.4555 -0.4248  0.3047
19600TIP3    H180215   4.345   6.494  12.845 -0.9671  0.1879 -0.9374
19600TIP3    H280216   4.393   6.353  12.817  1.2230  0.2920  1.7778
19601TIP3   OH280217   5.365   4.101  15.267 -1.0792 -0.0261 -0.6852
19601TIP3    H180218   5.291   4.159  15.282 -0.6627 -0.3367  3.7187
19601TIP3    H280219   5.442   4.151  15.294 -0.2494 -1.3255 -0.5131
19602TIP3   OH280220   0.292   0.708   3.605  0.1257  0.2617  0.2794
19602TIP3    H180221   0.238   0.770   3.652  0.1807 -0.4598  1.3459
19602TIP3    H280222   0.380   0.719   3.643  0.3935  0.3803 -0.3704
19603TIP3   OH280223   6.332   3.789  12.595  0.3891 -0.0106  0.1302
19603TIP3    H180224   6.245   3.818  12.567 -0.0561 -0.2447  1.2058
19603TIP3    H280225   6.387   3.866  12.588 -0.4424  0.7670  1.5832
19604TIP3   OH280226   6.261   1.317   5.389  0.1943  0.1569 -0.3614
19604TIP3    H180227   6.336   1.374   5.405  1.9503 -1.6459 -1.6053
19604TIP3    H280228   6.205   1.328   5.466  1.9026  1.3401  0.7853
19605TIP3   OH280229   2.010   6.696   2.408 -0.0280 -0.3574  0.0404
19605TIP3    H180230   2.036   6.662   2.494  0.0082 -1.3471 -0.3580
19605TIP3    H280231   1.915   6.697   2.410 -0.0290  1.0715  0.6397
19606TIP3   OH280232   2.233   3.591  13.139 -0.2355 -0.2301 -0.5608
19606TIP3    H180233   2.272   3.661  13.192  0.2307 -1.7739  1.2278
19606TIP3    H280234   2.158   3.561  13.191 -0.4802 -1.0142 -1.3484
19607TIP3   OH280235   0.004   6.302   0.148 -0.2475 -0.0461 -0.0301
19607TIP3    H180236  -0.031   6.366   0.086  2.2389  0.2446 -1.2451
19607TIP3    H280237  -0.070   6.281   0.204 -1.9124  1.6890 -1.4258
19608TIP3   OH280238   4.473   1.308  15.654  0.1549 -1.0387  0.0546
19608TIP3    H180239   4.389   1.291  15.696  0.0032 -0.4680 -0.0175
19608TIP3    H280240   4.502   1.391  15.691  0.6720 -1.2114  0.0490
19609TIP3   OH280241   1.270   1.885  12.935  0.0660  0.2078 -0.8327
19609TIP3    H180242   1.322   1.848  12.863  1.6207 -0.8831  0.7630
19609TIP3    H280243   1.283   1.824  13.008 -1.8832  0.9855  0.2606
19610TIP3   OH280244   0.091   6.156  13.171 -0.1335  0.3609 -0.0329
19610TIP3    H180245   0.049   6.070  13.167  0.2363  0.2210 -1.1532
19610TIP3    H280246   0.113   6.167  13.264  0.8061 -1.2462 -0.0132
19611TIP3   OH280247   3.486   3.749  16.308  0.5009  0.6606 -0.6110
19611TIP3    H180248   3.534   3.747  16.226  1.3302  1.7798 -0.1750
19611TIP3    H280249   3.553   3.752  16.376 -0.1631 -0.7029  0.1412
19612TIP3   OH280250   5.208   0.205  16.913 -0.3746 -0.1948  0.1918
19612TIP3    H180251   5.248   0.152  16.982 -2.3367  0.0550  1.6138
19612TIP3    H280252   5.116   0.180  16.914 -0.1842 -1.6912 -3.8152
19613TIP3   OH280253   4.144   3.481   1.097  0.5604 -0.4580  0.9412
19613TIP3    H180254   4.137   3.482   1.193 -0.7816  0.1276  0.8632
19613TIP3    H280255   4.224   3.529   1.078  2.2968 -2.8273  1.8358
19614TIP3   OH280256   2.949   4.247  10.760  0.3845  0.1599 -0.1709
19614TIP3    H180257   2.920   4.218  10.673  1.3728 -1.7357  0.0688
19614TIP3    H280258   2.898   4.326  10.777 -3.0360 -1.7115 -0.6824
19615TIP3   OH280259   1.712   0.509  16.498  0.3508  0.1043 -0.1255
19615TIP3    H180260   1.620   0.537  16.503 -0.5012 -2.1546 -1.4742
19615TIP3    H280261   1.730   0.472  16.584  0.0323  0.6260  0.1750
19616TIP3   OH280262   0.332   4.565   1.862  0.9034 -0.3159  0.4715
19616TIP3    H180263   0.335   4.654   1.827  0.3341 -0.7389 -0.7260
19616TIP3    H280264   0.408   4.522   1.825 -0.8383 -1.3955 -2.2098
19617TIP3   OH280265   4.465   4.954  14.115  0.1225  0.4467 -0.0669
19617TIP3    H180266   4.538   4.901  14.144  0.3012  0.3097 -0.7402
19617TIP3    H280267   4.445   5.011  14.189  1.0673  0.6565  0.0396
19618TIP3   OH280268   1.541   0.073   5.513 -0.6935 -0.7845  0.0215
19618TIP3    H180269   1.618   0.093   5.567 -1.6849  0.6668  0.9668
19618TIP3    H280270   1.501   0.158   5.495 -1.2280 -1.3668 -1.7967
19619TIP3   OH280271   0.309   0.878  15.489 -0.5886  0.2683 -0.3386
19619TIP3    H180272   0.226   0.898  15.445 -0.8204 -0.7575 -0.3808
19619TIP3    H280273   0.358   0.960  15.484 -1.2328  0.6271 -1.1239
19620TIP3   OH280274   4.713   2.137   0.444 -0.0246 -0.2477 -0.3255
19620TIP3    H180275   4.804   2.165   0.433 -0.0906  0.2811  0.3992
19620TIP3    H280276   4.688   2.169   0.531 -0.0260 -2.8281  0.6853
19621TIP3   OH280277   3.093   3.104   1.299  0.2046 -0.1589  0.3165
19621TIP3    H180278   3.036   3.113   1.223  1.5122  0.8776 -0.5884
19621TIP3    H280279   3.043   3.141   1.371  0.1026  1.7460 -0.6713
19622TIP3   OH280280   3.132   1.811   4.102 -0.6576 -0.4304  0.3081
19622TIP3    H180281   3.113   1.717   4.094  1.6722 -0.9860  0.5170
19622TIP3    H280282   3.220   1.814   4.140 -1.3460  1.8784  1.8911
19623TIP3   OH280283   0.909   0.767  16.126  0.1135  0.1304  0.1480
19623TIP3    H180284   0.997   0.782  16.092  0.3571  0.2558  0.8143
19623TIP3    H280285   0.857   0.741  16.049  0.4560  1.1680 -0.4504
19624TIP3   OH280286   3.143   1.292  15.866  0.4106 -0.6181  0.3126
19624TIP3    H180287   3.104   1.365  15.914 -0.4780 -0.3151 -0.8479
19624TIP3    H280288   3.199   1.248  15.931  1.9406  1.7688  0.7374
19625TIP3   OH280289   3.365   1.064   3.514 -0.7690  0.5668 -0.3836
19625TIP3    H180290   3.314   1.143   3.534  0.3340  1.4426 -0.9247
19625TIP3    H280291   3.455   1.088   3.536 -0.4319 -0.5831 -0.4640
19626TIP3   OH280292   1.299   5.494   0.783  0.1137 -0.1514  0.2040
19626TIP3    H180293   1.364   5.473   0.716  1.6215  0.4790  1.4003
19626TIP3    H280294   1.350   5.507   0.863 -1.4430  0.9301  1.0810
19627TIP3   OH280295   5.170   5.657   5.359 -0.4154  0.0423 -0.3474
19627TIP3    H180296   5.077   5.664   5.338 -0.2455  0.8944 -0.8691
19627TIP3    H280297   5.189   5.563   5.352 -0.4401  0.1609 -3.8555
19628TIP3   OH280298   3.202   4.044   0.462 -0.1425  0.0609  0.4331
19628TIP3    H180299   3.193   4.115   0.399 -0.1296  0.1896  0.5758
19628TIP3    H280300   3.185   3.964   0.411 -0.6178  0.1976  0.3747
19629TIP3   OH280301   2.244   3.487   5.449 -0.4403 -0.3386  0.2915
19629TIP3    H180302   2.222   3.474   5.357 -2.0880  0.9642  0.4519
19629TIP3    H280303   2.301   3.414   5.471 -0.1919 -0.7890 -1.7012
19630TIP3   OH280304   5.087   3.550  11.852 -0.1856 -0.5505  0.2792
19630TIP3    H180305   5.024   3.621  11.866  1.9661  2.5031 -3.5903
19630TIP3    H280306   5.049   3.497  11.782  0.0899 -0.7295  0.2616
19631TIP3   OH280307   6.351   0.271  10.811 -0.1514 -0.0813 -0.5157
19631TIP3    H180308   6.439   0.283  10.775  0.7356 -3.0815  0.3191
19631TIP3    H280309   6.299   0.237  10.738  0.2457 -1.1605 -0.3244
19632TIP3   OH280310   0.747   3.379  15.913  0.2209  0.1584 -0.3396
19632TIP3    H180311   0.679   3.331  15.865  0.4958 -0.1914 -0.3840
19632TIP3    H280312   0.705   3.406  15.995  0.9155 -2.7791  1.0841
19633TIP3   OH280313   5.959   6.032   4.267 -0.0998 -0.0462 -0.2617
19633TIP3    H180314   6.023   6.084   4.316 -0.7650 -0.0628  0.6301
19633TIP3    H280315   5.947   5.953   4.318 -1.5282  0.3605  0.0753
19634TIP3   OH280316   0.903   2.059  13.128 -0.0569 -0.4644  0.0712
19634TIP3    H180317   0.845   2.061  13.204 -0.4824  1.2954 -0.2498
19634TIP3    H280318   0.988   2.087  13.162  0.7839 -3.3072  0.5980
19635TIP3   OH280319   0.473   5.499   2.830 -0.1357  0.4722  0.7592
19635TIP3    H180320   0.565   5.499   2.855  0.7800 -1.7544 -2.0825
19635TIP3    H280321   0.452   5.591   2.813  1.7247  0.9562  0.9459
19636TIP3   OH280322   5.430   1.485  13.304 -0.0173  0.0006  1.0653
19636TIP3    H180323   5.400   1.401  13.339 -0.3173  0.5438  2.1655
19636TIP3    H280324   5.376   1.550  13.349  0.5629  0.8098  0.6086
19637TIP3   OH280325   4.764   1.266   5.454 -0.2666  0.2770  0.0084
19637TIP3    H180326   4.838   1.206   5.450  0.1761  0.8481 -0.8256
19637TIP3    H280327   4.704   1.236   5.386 -1.1704 -0.6144  1.1493
19638TIP3   OH280328   2.463   4.433  10.783 -0.3000  0.0176  0.1141
19638TIP3    H180329   2.408   4.483  10.844 -0.7047  0.1660 -0.3658
19638TIP3    H280330   2.427   4.345  10.785 -1.0442  0.2801 -0.7508
19639TIP3   OH280331   0.779   2.998   3.238  0.3370  0.1603 -0.4668
19639TIP3    H180332   0.796   2.906   3.217  1.3339  0.8211 -2.8853
19639TIP3    H280333   0.864   3.033   3.263  0.7112  1.1304 -2.8035
19640TIP3   OH280334   4.133   6.682  11.754  0.5259  0.4403 -0.1880
19640TIP3    H180335   4.053   6.697  11.704  0.3956  1.8402  0.3998
19640TIP3    H280336   4.178   6.766  11.753  0.8098  0.3508  1.5245
19641TIP3   OH280337   5.788   1.198  12.131 -0.3153  0.2746  0.1060
19641TIP3    H180338   5.880   1.193  12.105 -0.5335 -0.3904 -0.5609
19641TIP3    H280339   5.767   1.292  12.129  0.1423  0.3674 -0.4729
19642TIP3   OH280340   1.169   0.659  16.420  0.6730 -0.2254  0.1112
19642TIP3    H180341   1.213   0.710  16.352  0.9782  0.2684  0.6635
19642TIP3    H280342   1.114   0.723  16.466 -1.2122 -0.9528 -1.0088
19643TIP3   OH280343   1.748   2.177  14.682  0.1580 -0.2806  0.5147
19643TIP3    H180344   1.799   2.098  14.699 -2.2071 -1.7109  1.4161
19643TIP3    H280345   1.671   2.146  14.633  0.0259  1.7513 -0.7008
19644TIP3   OH280346   2.082   5.888   2.682 -0.1280 -0.1423  0.0727
19644TIP3    H180347   2.011   5.893   2.746  1.4924  2.7131  1.8788
19644TIP3    H280348   2.115   5.799   2.689 -0.4060 -0.0949  2.8111
19645TIP3   OH280349   4.975   3.530  16.263  0.2477  0.4577 -1.0119
19645TIP3    H180350   4.899   3.517  16.319  0.6345  1.1716 -0.3104
19645TIP3    H280351   4.954   3.483  16.182  1.0078 -3.3994  0.8226
19646TIP3   OH280352   5.885   3.865  14.996 -0.1215  0.3497  0.8355
19646TIP3    H180353   5.810   3.865  15.055 -0.0899  2.4944  0.9459
19646TIP3    H280354   5.859   3.808  14.923 -2.6454  2.3954 -0.0043
19647TIP3   OH280355   5.610   3.503   0.493 -0.2028 -0.4544 -0.4572
19647TIP3    H180356   5.560   3.575   0.456  1.3200  0.8315 -0.1693
19647TIP3    H280357   5.673   3.546   0.552 -0.0430 -2.1193  0.6644
19648TIP3   OH280358   0.965   2.032   2.665  0.0630 -0.0042 -0.6061
19648TIP3    H180359   1.036   2.082   2.626  0.7736 -2.0039 -2.0645
19648TIP3    H280360   1.008   1.973   2.727 -0.3890 -0.7597 -0.9972
19649TIP3   OH280361   2.771   3.582  15.527  0.7193 -0.4204  0.5271
19649TIP3    H180362   2.843   3.606  15.468  0.6938  0.0391  0.6828
19649TIP3    H280363   2.696   3.571  15.470  0.6278  0.3078  0.5085
19650TIP3   OH280364   1.588   0.693  13.486 -0.5848 -0.0768 -0.2825
19650TIP3    H180365   1.634   0.664  13.565  0.7654  0.4492 -0.8547
19650TIP3    H280366   1.645   0.667  13.414  0.1015  2.7635 -0.8908
19651TIP3   OH280367   2.837   6.331   2.842 -0.5859  0.2697 -0.1007
19651TIP3    H180368   2.832   6.236   2.827 -2.4123  0.4888 -1.1425
19651TIP3    H280369   2.866   6.339   2.933  0.2343 -1.2671 -0.1834
19652TIP3   OH280370   3.836   6.613   1.296  0.2265  0.6658 -0.3540
19652TIP3    H180371   3.866   6.614   1.205 -1.0812 -0.2608 -0.8294
19652TIP3    H280372   3.907   6.569   1.344  0.5218  0.3143 -1.0916
19653TIP3   OH280373   4.177   3.021   2.344 -0.7442 -0.3281  0.3138
19653TIP3    H180374   4.109   2.954   2.354 -1.1734 -0.5055 -2.8412
19653TIP3    H280375   4.259   2.972   2.351 -1.0508 -1.3270 -2.1051
19654TIP3   OH280376   1.075   4.475  11.339 -0.0616 -0.5135 -0.3344
19654TIP3    H180377   1.074   4.446  11.430 -1.4156 -1.2165 -0.5450
19654TIP3    H280378   1.154   4.529  11.332 -1.0493  1.3631  1.8051
19655TIP3   OH280379   2.161   2.831   1.322 -0.1845  0.4061  0.8175
19655TIP3    H180380   2.069   2.857   1.310 -0.1151  0.2210 -0.2143
19655TIP3    H280381   2.156   2.752   1.376 -0.7649 -0.4904 -0.4688
19656TIP3   OH280382   6.354   1.047   4.599  0.4954 -0.0237 -0.3212
19656TIP3    H180383   6.318   0.960   4.615  1.5909 -0.3903  0.2832
19656TIP3    H280384   6.351   1.091   4.685  1.0110  0.1075 -0.3641
19657TIP3   OH280385   6.109   3.794   4.882  0.0237 -0.1281 -0.1750
19657TIP3    H180386   6.068   3.781   4.797 -2.5487 -0.5368  1.0441
19657TIP3    H280387   6.203   3.783   4.865 -0.4840 -1.2131 -2.7427
19658TIP3   OH280388   5.849   0.281  12.569  0.3096 -0.3655  0.3239
19658TIP3    H180389   5.889   0.324  12.493 -2.5863  0.5665 -0.7895
19658TIP3    H280390   5.895   0.319  12.644  0.7497  1.5109 -0.8308
19659TIP3   OH280391   1.780   2.011  13.262 -0.4476  0.6935 -0.2949
19659TIP3    H180392   1.768   1.975  13.174 -2.6989  0.1184  0.1947
19659TIP3    H280393   1.691   2.028  13.294  0.3003  0.8317  1.8941
19660TIP3   OH280394   0.358   3.976   1.405 -0.3037  0.7421 -0.0202
19660TIP3    H180395   0.331   4.068   1.400 -0.7709  0.8988  3.1260
19660TIP3    H280396   0.328   3.947   1.491  1.6507 -1.7847 -0.0638
19661TIP3   OH280397   3.480   6.141  13.871 -0.2382 -0.1598 -0.5593
19661TIP3    H180398   3.560   6.165  13.825  0.3385 -1.2733 -0.1840
19661TIP3    H280399   3.507   6.131  13.963 -1.3363  1.8983  0.0367
19662TIP3   OH280400   3.799   5.016  11.806 -0.3357 -0.5956  0.3507
19662TIP3    H180401   3.847   4.933  11.804  1.7954  0.5603  0.4905
19662TIP3    H280402   3.711   4.992  11.835  0.5474 -2.6513  1.5538
19663TIP3   OH280403   1.867   5.332   5.552 -0.0695 -0.2332 -0.1971
19663TIP3    H180404   1.865   5.427   5.558 -1.2239 -0.2188 -0.6056
19663TIP3    H280405   1.938   5.314   5.490 -0.5061  0.4158 -0.9062
19664TIP3   OH280406   2.667   2.636  15.045 -0.2867  0.4828 -0.3895
19664TIP3    H180407   2.756   2.663  15.024 -0.6051  0.9176 -1.2239
19664TIP3    H280408   2.644   2.574  14.976 -0.2504 -0.4782  0.4345
19665TIP3   OH280409   6.509   3.347  11.664 -0.2190 -0.6606 -0.0196
19665TIP3    H180410   6.478   3.279  11.604 -1.9776  1.2381 -1.3903
19665TIP3    H280411   6.432   3.369  11.717  0.2039  0.5297  0.1270
19666TIP3   OH280412   2.673   5.558  13.658  0.2181 -0.0151  0.1880
19666TIP3    H180413   2.725   5.528  13.732 -1.2615 -1.4480  0.7106
19666TIP3    H280414   2.718   5.523  13.581 -0.1043 -1.4923  0.6474
19667TIP3   OH280415   4.737   2.931   3.444 -0.2947 -0.2033  0.1225
19667TIP3    H180416   4.699   2.986   3.376  0.9233 -0.9443 -1.2268
19667TIP3    H280417   4.665   2.876   3.474 -1.5854  2.1323  1.6308
19668TIP3   OH280418   2.685   5.517  17.166 -0.2514 -0.1159 -0.4427
19668TIP3    H180419   2.602   5.483  17.199  1.2565 -0.7779  3.1214
19668TIP3    H280420   2.734   5.440  17.138 -0.4298  0.1911 -1.6778
19669TIP3   OH280421   3.246   6.003   4.060  0.0552 -0.6668  0.7051
19669TIP3    H180422   3.261   6.094   4.034 -2.5988  0.0570  1.3688
19669TIP3    H280423   3.271   6.001   4.153 -0.9900 -0.2583  1.0119
19670TIP3   OH280424   5.823   4.615  13.155  0.0441  0.2647  0.2020
19670TIP3    H180425   5.738   4.592  13.193 -1.7580 -1.2385 -4.1212
19670TIP3    H280426   5.856   4.685  13.211 -3.1993 -0.2746  3.1099
19671TIP3   OH280427   2.226   5.915  14.853  0.3516 -0.2520  0.0034
19671TIP3    H180428   2.148   5.954  14.893 -0.1895 -1.4011  0.1142
19671TIP3    H280429   2.201   5.903  14.761  1.1108  1.1546 -0.4098
19672TIP3   OH280430   5.839   1.493   1.744  0.0533 -0.1028  0.5457
19672TIP3    H180431   5.901   1.551   1.787 -0.6527  0.7365  0.4794
19672TIP3    H280432   5.892   1.427   1.701  0.8847  0.5487  0.5614
19673TIP3   OH280433   4.014   2.254   1.810 -0.2299  0.0598  0.1573
19673TIP3    H180434   3.941   2.316   1.802  0.1444  0.2750 -2.2753
19673TIP3    H280435   3.990   2.181   1.753  1.2645 -0.0498 -0.3683
19674TIP3   OH280436   5.765   4.006  15.571 -0.6594 -0.2714 -0.8361
19674TIP3    H180437   5.753   3.922  15.615  1.1218 -0.7729 -1.2370
19674TIP3    H280438   5.692   4.060  15.603 -1.9405 -1.9925 -0.7182
19675TIP3   OH280439   5.621   2.961   0.616  0.2191 -0.0341 -0.0677
19675TIP3    H180440   5.590   2.942   0.528 -0.8869 -1.1619  0.5324
19675TIP3    H280441   5.598   3.053   0.630 -2.9328 -0.7794  0.3087
19676TIP3   OH280442   6.631   5.777   3.492  0.1721  0.2890  0.7996
19676TIP3    H180443   6.691   5.822   3.433 -0.0111  0.3216  0.6356
19676TIP3    H280444   6.664   5.688   3.498 -0.6792 -0.1525 -0.5863
19677TIP3   OH280445   2.322   5.096   4.623 -0.2325 -0.0719  0.4428
19677TIP3    H180446   2.336   5.108   4.529  0.9269  0.9225  0.7097
19677TIP3    H280447   2.233   5.062   4.630  0.5382 -2.7506 -1.1780
19678TIP3   OH280448   5.156   5.901  12.767 -0.0474  0.0386 -0.2290
19678TIP3    H180449   5.170   5.878  12.859  1.1041  1.7044  0.0475
19678TIP3    H280450   5.093   5.972  12.769 -0.5614 -0.3955 -0.7894
19679TIP3   OH280451   5.106   5.135   4.285 -0.1973  0.2536 -0.4178
19679TIP3    H180452   5.053   5.062   4.254 -0.3889  0.1852  0.0593
19679TIP3    H280453   5.107   5.125   4.381  2.3747 -0.9399 -0.4950
19680TIP3   OH280454   1.842   1.182   4.562 -0.4324 -0.3933  0.1342
19680TIP3    H180455   1.799   1.192   4.647  3.9476 -0.9023  2.7068
19680TIP3    H280456   1.873   1.091   4.562  1.7301  0.2829 -0.8214
19681TIP3   OH280457   4.304   4.650   2.441 -0.2023  0.0824 -0.1483
19681TIP3    H180458   4.353   4.647   2.524 -1.0544 -0.4309  0.3561
19681TIP3    H280459   4.295   4.743   2.422 -1.7918  0.3163  1.4564
19682TIP3   OH280460   1.552   5.465  14.755 -0.2777  0.2170  0.7396
19682TIP3    H180461   1.559   5.440  14.847  2.4713 -2.1665  0.0748
19682TIP3    H280462   1.466   5.434  14.727 -0.1053 -1.4482  1.9338
19683TIP3   OH280463   3.288   1.495  16.314 -0.2891 -0.0783 -0.2067
19683TIP3    H180464   3.204   1.517  16.354 -0.9004 -1.5116 -0.6259
19683TIP3    H280465   3.280   1.525  16.223  0.6955  2.1956  0.3791
19684TIP3   OH280466   5.399   2.536  12.540  0.1095  0.1555  0.1183
19684TIP3    H180467   5.404   2.443  12.521  2.6798  0.1073  0.5921
19684TIP3    H280468   5.463   2.549  12.610 -0.0550  2.2824 -0.0647
19685TIP3   OH280469   1.658   3.754   1.671  0.2803  0.0780 -0.2665
19685TIP3    H180470   1.680   3.733   1.762  2.7659  0.7279 -0.6481
19685TIP3    H280471   1.661   3.850   1.667  0.7783  0.0303 -1.1692
19686TIP3   OH280472   6.684   2.813  17.064 -0.0134  0.4745 -0.6134
19686TIP3    H180473   6.774   2.795  17.092 -0.4531  1.1842  1.4830
19686TIP3    H280474   6.662   2.740  17.006  1.9030  0.3093 -1.2040
19687TIP3   OH280475   6.270   0.286   1.720  0.0000 -0.9046 -0.0891
19687TIP3    H180476   6.177   0.295   1.742  0.1102  1.6534 -0.3856
19687TIP3    H280477   6.272   0.220   1.651 -1.7098 -0.4805 -0.6075
19688TIP3   OH280478   0.392   1.090   4.579 -0.9263 -0.4818 -0.6602
19688TIP3    H180479   0.338   1.075   4.656  0.6419  0.1303  0.6161
19688TIP3    H280480   0.462   1.148   4.610 -0.6033  0.2983 -2.7026
19689TIP3   OH280481   1.554   0.845  17.168 -0.3662 -1.1918 -0.5036
19689TIP3    H180482   1.510   0.774  17.215  0.7008 -3.4348 -2.6405
19689TIP3    H280483   1.646   0.837  17.195 -0.5529  1.1508  1.1854
19690TIP3   OH280484   2.280   4.051  15.334 -0.6864 -0.1580  0.0027
19690TIP3    H180485   2.202   4.107  15.337  0.2070  1.1300  0.5394
19690TIP3    H280486   2.320   4.072  15.250 -0.0331  0.4926  0.4613
19691TIP3   OH280487   3.578   4.260   2.040 -0.4960  0.2784  0.0755
19691TIP3    H180488   3.557   4.167   2.053  1.3254 -0.2268 -0.3507
19691TIP3    H280489   3.495   4.305   2.056 -1.1876 -1.3173  1.2991
19692TIP3   OH280490   2.464   4.648  11.672  0.8545 -0.2003 -0.2008
19692TIP3    H180491   2.536   4.668  11.611  0.2579  1.5096 -0.4022
19692TIP3    H280492   2.508   4.623  11.753  1.7245  1.3659 -0.1388
19693TIP3   OH280493   1.974   6.237   4.806  0.0727 -0.2727  0.0088
19693TIP3    H180494   2.057   6.220   4.760  1.1528  1.0740  1.3273
19693TIP3    H280495   2.001   6.283   4.885 -2.0608  1.3473 -0.1391
19694TIP3   OH280496   3.785   3.024  16.945 -0.2313  0.8544  0.4116
19694TIP3    H180497   3.793   3.107  16.991 -1.5375  1.5995 -0.6476
19694TIP3    H280498   3.872   3.009  16.907 -0.2348  2.2456 -0.2057
19695TIP3   OH280499   4.940   4.395   2.968 -0.3293 -0.4526 -0.2251
19695TIP3    H180500   5.035   4.397   2.980 -0.2223 -0.5556 -0.9907
19695TIP3    H280501   4.922   4.470   2.911 -0.5798 -1.0148 -0.8954
19696TIP3   OH280502   1.386   1.505   2.992 -0.3262 -0.5834  0.0789
19696TIP3    H180503   1.387   1.501   2.896 -0.7544  1.2684 -0.0524
19696TIP3    H280504   1.347   1.422   3.020 -0.1031 -1.1929 -1.3416
19697TIP3   OH280505   5.562   4.902  13.202 -0.4911  0.2123  0.1223
19697TIP3    H180506   5.513   4.858  13.272  0.3923 -2.3499 -0.7191
19697TIP3    H280507   5.591   4.830  13.145  3.5521  1.5279  0.1458
19698TIP3   OH280508   3.509   5.422   4.430 -0.1602 -0.2582  0.5564
19698TIP3    H180509   3.597   5.454   4.448  0.0273 -0.7355  0.4938
19698TIP3    H280510   3.507   5.335   4.469 -0.5440 -0.3249  0.3904
19699TIP3   OH280511   5.376   1.138   1.325  0.1519 -0.2178  0.4613
19699TIP3    H180512   5.293   1.142   1.277 -1.1374  0.3506  2.5872
19699TIP3    H280513   5.350   1.121   1.416  2.4244 -0.6371  1.0870
19700TIP3   OH280514   1.370   6.278  14.562  1.1085 -0.4990  0.3087
19700TIP3    H180515   1.417   6.333  14.499 -2.1205 -1.0421 -2.8950
19700TIP3    H280516   1.407   6.190  14.549 -0.3250 -0.8424 -1.8616
19701TIP3   OH280517   4.386   6.650   1.094  0.5938  0.3089  0.5865
19701TIP3    H180518   4.445   6.691   1.030  1.1491 -1.7252 -0.2572
19701TIP3    H280519   4.393   6.556   1.077 -1.3232 -0.1151  1.8727
19702TIP3   OH280520   4.917   4.605   5.165  0.4908  0.2142  0.3926
19702TIP3    H180521   4.882   4.576   5.249 -1.2182  0.9722 -0.0011
19702TIP3    H280522   4.959   4.527   5.128 -2.4181 -1.3987  0.1480
19703TIP3   OH280523   0.084   3.575   4.396  0.2836 -0.4996  0.0334
19703TIP3    H180524   0.066   3.657   4.351  1.8927 -0.2135 -0.1256
19703TIP3    H280525  -0.003   3.538   4.414 -0.4423  0.9355 -0.4144
19704TIP3   OH280526   3.914   4.687  15.207  0.6965 -0.0436  0.0625
19704TIP3    H180527   3.825   4.722  15.195  0.7542 -0.7810 -3.9173
19704TIP3    H280528   3.957   4.752  15.263 -2.1333  0.5848  1.7533
19705TIP3   OH280529   3.133   4.041  12.981 -0.4249  0.6644 -0.0654
19705TIP3    H180530   3.095   4.120  12.944  2.1107  1.7928 -0.5022
19705TIP3    H280531   3.136   4.057  13.075 -0.0825  1.0527 -0.1357
19706TIP3   OH280532   5.099   2.966   5.261  0.2478  0.4997 -0.1645
19706TIP3    H180533   5.156   2.930   5.193  0.3943  1.7982 -0.7713
19706TIP3    H280534   5.148   3.041   5.295  0.1304 -0.0598  1.3188
19707TIP3   OH280535   5.550   1.669  15.103 -0.1127 -0.2567  0.0482
19707TIP3    H180536   5.626   1.681  15.160 -0.1092  0.5194 -0.1030
19707TIP3    H280537   5.526   1.577  15.113 -0.2842 -0.0730  1.5099
19708TIP3   OH280538   4.646   4.763  16.913  0.0207 -0.0688  0.4727
19708TIP3    H180539   4.558   4.727  16.918  0.0905 -0.1986  0.7812
19708TIP3    H280540   4.671   4.779  17.004 -0.0381  0.8372  0.3363
19709TIP3   OH280541   4.493   5.824  14.370  0.4508 -0.0783  0.0359
19709TIP3    H180542   4.490   5.832  14.275  0.9702 -0.6891 -0.0424
19709TIP3    H280543   4.531   5.906  14.401  0.2068  0.1527 -0.2709
19710TIP3   OH280544   0.874   6.195  14.577 -0.1514  0.5037  0.5708
19710TIP3    H180545   0.792   6.177  14.532  0.0309  0.0886  0.3938
19710TIP3    H280546   0.910   6.271  14.532 -0.0763  0.2238  0.1487
19711TIP3   OH280547   3.029   1.265  14.899 -0.4275 -0.5502 -0.0409
19711TIP3    H180548   3.112   1.230  14.864  0.5467  1.9323 -0.4445
19711TIP3    H280549   3.009   1.209  14.974  0.2491 -2.7689 -1.4094
19712TIP3   OH280550   4.541   3.778   2.900  0.1729  0.0085  0.6091
19712TIP3    H180551   4.587   3.776   2.985  1.6618 -1.2435 -0.1680
19712TIP3    H280552   4.609   3.757   2.836 -0.6667  2.0179 -1.0545
19713TIP3   OH280553   6.375   4.889   3.608 -0.3119  0.0502 -0.1863
19713TIP3    H180554   6.419   4.860   3.688 -1.8337 -1.2442  0.2123
19713TIP3    H280555   6.389   4.818   3.546 -1.8022 -0.3879 -0.0552
19714TIP3   OH280556   6.362   1.139   1.379  0.3808 -0.3851 -0.1345
19714TIP3    H180557   6.299   1.099   1.320 -0.4075 -1.8826  1.6035
19714TIP3    H280558   6.444   1.142   1.330 -0.7128  0.4156 -1.9952
19715TIP3   OH280559   6.576   0.969  12.496  0.5021 -0.2490 -0.5600
19715TIP3    H180560   6.620   1.018  12.566 -0.2858  0.3878 -0.4865
19715TIP3    H280561   6.492   0.944  12.535  1.4392 -3.0008 -0.0735
19716TIP3   OH280562   6.134   1.359   3.371 -0.6095  0.1296 -0.4899
19716TIP3    H180563   6.048   1.337   3.335 -0.1330  1.0847 -2.3305
19716TIP3    H280564   6.119   1.366   3.465 -2.4127 -0.2951 -0.7047
19717TIP3   OH280565   0.912   0.953   0.324  0.5645 -0.1339  0.4707
19717TIP3    H180566   0.982   0.959   0.259 -0.1218  2.6353 -0.1303
19717TIP3    H280567   0.835   0.927   0.274  0.4373  0.1364  0.5280
19718TIP3   OH280568   2.507   3.024  11.698  0.2386  0.3574  0.2557
19718TIP3    H180569   2.443   2.959  11.727 -0.2309  0.8888  0.4400
19718TIP3    H280570   2.582   2.973  11.668 -0.4251 -0.2908 -0.3303
19719TIP3   OH280571   5.689   6.244   4.126  0.4927 -0.1179  0.2540
19719TIP3    H180572   5.680   6.319   4.067  1.2942 -0.2994 -0.1196
19719TIP3    H280573   5.748   6.274   4.195 -0.8621  0.2678  1.2970
19720TIP3   OH280574   1.525   0.971  15.311 -0.0255 -0.0413 -0.0476
19720TIP3    H180575   1.477   0.986  15.393  0.7105  1.1289  0.1970
19720TIP3    H280576   1.592   0.907  15.333 -1.7071 -2.0679 -0.5085
19721TIP3   OH280577   3.653   4.243  14.501  0.6163 -0.6225 -0.6541
19721TIP3    H180578   3.730   4.187  14.504  0.2639 -1.0833  1.5088
19721TIP3    H280579   3.584   4.191  14.544  0.2811  1.3866  1.4556
19722TIP3   OH280580   2.299   0.405  16.612  0.0246 -0.6267 -0.0670
19722TIP3    H180581   2.306   0.412  16.707  0.4153 -2.3233  0.0466
19722TIP3    H280582   2.287   0.312  16.594  0.1835 -0.3758 -1.7043
19723TIP3   OH280583   1.880   2.446   1.484 -0.7261  0.1117 -0.0841
19723TIP3    H180584   1.862   2.451   1.390 -0.4551 -0.4798 -0.1760
19723TIP3    H280585   1.947   2.513   1.499  0.6969 -1.0955 -0.7085
19724TIP3   OH280586   6.373   5.282  16.685 -0.3451  0.2220 -0.2593
19724TIP3    H180587   6.383   5.187  16.676 -3.0327 -0.3577  1.4266
19724TIP3    H280588   6.303   5.304  16.623 -0.0043  1.0610 -0.3588
19725TIP3   OH280589   2.921   2.352  15.519 -0.2701 -0.2514  0.5420
19725TIP3    H180590   2.924   2.406  15.440  0.1679 -1.9937 -0.7015
19725TIP3    H280591   2.833   2.366  15.555 -0.6877  0.1352 -0.5921
19726TIP3   OH280592   5.569   4.996   2.643  0.2189 -0.0568  0.2707
19726TIP3    H180593   5.491   4.951   2.611  0.7784 -1.9100  1.3555
19726TIP3    H280594   5.642   4.939   2.618  1.1105  0.9910  0.4062
19727TIP3   OH280595   0.850   0.037  11.678 -0.3796 -0.1918  0.0950
19727TIP3    H180596   0.864   0.127  11.649  1.8097 -0.0296  1.4260
19727TIP3    H280597   0.820  -0.010  11.600 -1.0491  1.5643 -0.7356
19728TIP3   OH280598   2.372   4.153  12.386  0.3447  0.1193  0.1404
19728TIP3    H180599   2.351   4.239  12.421  2.9188  2.3299 -3.0798
19728TIP3    H280600   2.468   4.147  12.393  0.3318 -2.0787 -0.6303
19729TIP3   OH280601   4.104   2.472   1.931 -0.0190  0.0554  0.1232
19729TIP3    H180602   4.146   2.427   2.005  0.4026 -2.0956 -1.3335
19729TIP3    H280603   4.089   2.403   1.866 -0.7439  1.7943 -1.6624
19730TIP3   OH280604   5.525   5.169  12.354  0.4076 -0.3001  0.1069
19730TIP3    H180605   5.485   5.137  12.435 -0.9529  1.6216  0.2622
19730TIP3    H280606   5.463   5.144  12.285  0.5096 -0.0922 -0.0614
19731TIP3   OH280607   5.013   1.833   4.214 -0.6805 -0.3623 -0.5587
19731TIP3    H180608   5.074   1.797   4.150  0.0109  1.1474 -0.7769
19731TIP3    H280609   5.018   1.773   4.288 -0.2176 -1.1859 -1.2322
19732TIP3   OH280610   1.934   3.802  13.501  0.4455 -0.4382  0.1152
19732TIP3    H180611   1.934   3.889  13.461  3.1783 -0.5293 -0.2723
19732TIP3    H280612   2.016   3.762  13.472  0.3820 -2.2671  2.1813
19733TIP3   OH280613   6.659   1.522   3.094 -0.3460 -0.0483  0.6603
19733TIP3    H180614   6.677   1.614   3.113 -1.0002  0.0890  0.6626
19733TIP3    H280615   6.712   1.473   3.156 -1.0881  0.3634  1.6472
19734TIP3   OH280616   6.192   4.351   3.178 -0.4106 -0.3963  0.3870
19734TIP3    H180617   6.267   4.383   3.127 -0.7648  0.1708  0.2163
19734TIP3    H280618   6.124   4.336   3.112 -0.4266 -0.9940  0.5310
19735TIP3   OH280619   6.297   6.568   4.312 -0.5012 -0.2442  0.0596
19735TIP3    H180620   6.370   6.616   4.351  0.4150  0.3610 -2.2162
19735TIP3    H280621   6.229   6.568   4.379  1.8671 -1.6498  2.6479
19736TIP3   OH280622   1.559   4.333   4.935  0.2266 -0.1496 -0.2423
19736TIP3    H180623   1.572   4.394   5.008 -0.4495 -1.3334  0.9083
19736TIP3    H280624   1.497   4.268   4.969 -0.8079 -0.2490 -2.1740
19737TIP3   OH280625   0.951   5.260  16.116  0.0094 -0.4618  0.1940
19737TIP3    H180626   0.904   5.233  16.037  1.6430 -1.7282 -0.4210
19737TIP3    H280627   1.023   5.313  16.083 -1.7361  2.7894  1.2227
19738TIP3   OH280628   6.134   5.000   0.115 -0.3667  0.2059  0.1835
19738TIP3    H180629   6.138   4.975   0.207 -0.0900  0.5077  0.2558
19738TIP3    H280630   6.054   4.959   0.082 -0.8221  0.6375  0.7238
19739TIP3   OH280631   2.996   5.483   0.080 -0.2960 -0.0216  0.0397
19739TIP3    H180632   2.927   5.418   0.066 -0.2066 -0.4338  1.3282
19739TIP3    H280633   3.010   5.522  -0.006 -0.7788 -1.2834 -0.6479
19740TIP3   OH280634   3.363   2.674  12.541 -0.8404 -0.7442  0.2058
19740TIP3    H180635   3.328   2.656  12.628 -0.2391  0.2454  0.6689
19740TIP3    H280636   3.299   2.731  12.499 -1.8777 -2.4127 -0.6037
19741TIP3   OH280637   5.004   4.130   3.060 -0.3507 -0.0303 -0.6120
19741TIP3    H180638   4.979   4.210   3.014 -0.4987  0.4431  0.2625
19741TIP3    H280639   4.936   4.119   3.127  0.5353 -0.0067  0.3040
19742TIP3   OH280640   0.654   0.862  15.542 -0.1386  0.4350  0.5186
19742TIP3    H180641   0.742   0.896  15.529 -0.2943  0.6059 -0.1068
19742TIP3    H280642   0.626   0.899  15.626  0.9461 -0.8283  1.4736
19743TIP3   OH280643   6.482   4.333  16.795  0.4984 -0.1417  0.4950
19743TIP3    H180644   6.516   4.324  16.884  0.3363  1.2553  0.7210
19743TIP3    H280645   6.430   4.254  16.781 -1.5149  0.6886  2.5827
19744TIP3   OH280646   0.273   6.126  16.438 -0.5005  0.0594 -0.4964
19744TIP3    H180647   0.348   6.071  16.458  0.3794  1.3713 -0.0521
19744TIP3    H280648   0.310   6.214  16.426 -1.7024  0.3546 -2.4045
19745TIP3   OH280649   2.359   4.421   1.320 -0.1440 -0.0991  0.3218
19745TIP3    H180650   2.407   4.420   1.237  0.3444 -1.9720  0.5953
19745TIP3    H280651   2.288   4.359   1.308  1.0079 -1.8249  1.8658
19746TIP3   OH280652   5.860   0.827  11.298  0.2531 -0.0180 -0.4250
19746TIP3    H180653   5.893   0.751  11.251  0.0375 -1.4114  1.5247
19746TIP3    H280654   5.765   0.815  11.299  0.2054  0.3727 -0.2864
19747TIP3   OH280655   0.282   1.843  16.308  0.0182  0.5028  0.1911
19747TIP3    H180656   0.214   1.910  16.308 -1.2289 -0.6467  2.2507
19747TIP3    H280657   0.259   1.785  16.236  1.0966  2.1810 -1.5966
19748TIP3   OH280658   1.667   6.118  10.884  0.0334 -0.4740 -0.5156
19748TIP3    H180659   1.619   6.035  10.884  0.8275 -1.0878 -3.6372
19748TIP3    H280660   1.750   6.097  10.841  0.0851  1.9776 -1.8110
19749TIP3   OH280661   3.503   3.698  11.978 -0.4459  0.5224 -0.6715
19749TIP3    H180662   3.412   3.721  11.962 -0.1951 -0.0330 -3.4739
19749TIP3    H280663   3.542   3.696  11.890  1.8220 -1.0379  0.2996
19750TIP3   OH280664   2.647   0.822   0.029  0.2858 -0.2773 -0.0064
19750TIP3    H180665   2.692   0.820  -0.056 -0.6547  1.2564 -0.5942
19750TIP3    H280666   2.580   0.755   0.023 -1.2299  1.2722 -1.3900
19751TIP3   OH280667   6.207   5.224   0.790  0.1379 -0.6311 -0.2425
19751TIP3    H180668   6.208   5.240   0.885  0.9844 -0.9803 -0.1866
19751TIP3    H280669   6.198   5.129   0.783  0.9621 -0.6933 -0.4992
19752TIP3   OH280670   5.453   5.392  10.818  0.3095  0.3000  0.3108
19752TIP3    H180671   5.462   5.418  10.910  0.1087  0.7195  0.2141
19752TIP3    H280672   5.466   5.297  10.819 -0.4125  0.1976  0.8758
19753TIP3   OH280673   2.140   2.468   3.054  0.1137 -0.5937  0.0423
19753TIP3    H180674   2.203   2.527   3.014 -0.4630  0.1593  0.2217
19753TIP3    H280675   2.174   2.454   3.143 -0.9046  1.3450  0.8159
19754TIP3   OH280676   5.183   3.171  15.175 -0.0320  0.7909  0.5120
19754TIP3    H180677   5.189   3.257  15.217 -1.7820  2.1252 -1.7484
19754TIP3    H280678   5.089   3.158  15.161  0.3719  0.0640 -2.0789
19755TIP3   OH280679   0.335   1.939   5.371  0.1558 -0.3097  0.1842
19755TIP3    H180680   0.332   2.032   5.395 -0.1456 -0.1166 -0.5560
19755TIP3    H280681   0.360   1.940   5.278 -3.2051 -0.7679 -0.8547
19756TIP3   OH280682   5.902   1.947  13.604 -0.4039 -1.0721 -0.0582
19756TIP3    H180683   5.911   1.966  13.697  0.9612 -0.4431 -0.2913
19756TIP3    H280684   5.808   1.935  13.591 -0.6043 -1.2923  1.4131
19757TIP3   OH280685   5.094   2.968  12.105 -0.6095  0.6463  0.0236
19757TIP3    H180686   5.129   3.057  12.107  1.8888 -0.2014 -1.5643
19757TIP3    H280687   5.003   2.978  12.076 -0.0098  2.5794 -1.3613
19758TIP3   OH280688   2.728   0.929   5.849  0.0649 -0.7862 -0.5843
19758TIP3    H180689   2.678   0.999   5.807  1.5435  1.6284  1.3989
19758TIP3    H280690   2.819   0.961   5.848  1.2711 -3.8720 -1.8103
19759TIP3   OH280691   4.037   3.565  15.627 -0.5431 -0.1353  0.4977
19759TIP3    H180692   4.105   3.526  15.572  0.1914  3.7528 -1.7036
19759TIP3    H280693   3.977   3.608  15.566 -2.1843  0.7568  2.5886
19760TIP3   OH280694   2.073   2.492   5.822  0.5195 -0.4405 -0.5269
19760TIP3    H180695   2.159   2.475   5.785  0.7437  1.3448 -0.9388
19760TIP3    H280696   2.087   2.566   5.882 -0.1769 -2.0810  1.8244
19761TIP3   OH280697   5.774   1.790   0.194 -0.3942  0.1064 -0.3058
19761TIP3    H180698   5.855   1.840   0.196  0.2194 -0.8966  0.9048
19761TIP3    H280699   5.707   1.852   0.223  0.3414  0.2709  1.1123
19762TIP3   OH280700   4.410   5.158   0.229 -0.2808 -0.4790  0.1190
19762TIP3    H180701   4.397   5.208   0.309  0.0004 -2.6028  1.5585
19762TIP3    H280702   4.322   5.146   0.193 -0.4331  0.2234  0.2408
19763TIP3   OH280703   2.980   6.611  11.499 -0.9546  0.5203 -0.2071
19763TIP3    H180704   2.906   6.647  11.547 -0.2586  2.2187 -0.3540
19763TIP3    H280705   3.041   6.684  11.489  1.5929 -1.2241  1.4434
19764TIP3   OH280706   2.779   4.379   3.421  0.7352 -0.0732 -0.2266
19764TIP3    H180707   2.788   4.454   3.480 -0.0223 -0.0529 -0.1224
19764TIP3    H280708   2.826   4.308   3.465 -0.2964 -0.2131  0.6872
19765TIP3   OH280709   3.955   5.645   0.639  0.1151 -0.5391 -0.3625
19765TIP3    H180710   3.937   5.600   0.556  0.3683 -2.0247  0.3595
19765TIP3    H280711   3.978   5.575   0.699 -0.4833  0.4740  1.0922
19766TIP3   OH280712   2.224   4.096   0.386 -0.0380  0.5063  0.0543
19766TIP3    H180713   2.136   4.095   0.348 -0.5258  1.3537  1.0949
19766TIP3    H280714   2.261   4.011   0.363 -0.7939  0.4702 -1.1414
19767TIP3   OH280715   3.088   0.555  11.503  0.5567 -0.0645 -0.0444
19767TIP3    H180716   3.039   0.610  11.441  0.0929  0.3096  0.6438
19767TIP3    H280717   3.154   0.511  11.449 -0.0838 -0.0374 -0.8730
19768TIP3   OH280718   6.301   3.218  12.292 -0.2052 -0.4630 -0.1438
19768TIP3    H180719   6.390   3.233  12.261  0.1712  0.1001  1.1343
19768TIP3    H280720   6.301   3.127  12.322  0.3038 -0.1252  0.9336
19769TIP3   OH280721   3.908   4.789   0.287 -0.2540  0.4059 -0.1697
19769TIP3    H180722   3.859   4.722   0.334 -0.3802  0.3777 -0.3396
19769TIP3    H280723   3.948   4.742   0.214  0.4481  0.3241  0.2551
19770TIP3   OH280724   0.673   0.145   2.696  0.5980 -0.7433 -0.2319
19770TIP3    H180725   0.584   0.159   2.663  0.6076  0.4502  0.2137
19770TIP3    H280726   0.712   0.084   2.633 -0.2772 -0.6613 -0.8763
19771TIP3   OH280727   4.072   3.777  11.519  0.4738  0.3702  0.1010
19771TIP3    H180728   4.065   3.869  11.545  1.0565  1.1160 -2.1453
19771TIP3    H280729   3.986   3.741  11.538 -0.5498  2.0183 -1.0979
19772TIP3   OH280730   1.630   3.003  12.354  0.0695  0.3968 -0.2153
19772TIP3    H180731   1.608   3.096  12.363  1.8367  0.6826  2.2104
19772TIP3    H280732   1.618   2.967  12.442  0.0266 -1.5767 -0.9634
19773TIP3   OH280733   2.844   1.309   4.668 -0.4842 -0.3331  0.4709
19773TIP3    H180734   2.801   1.388   4.636  0.8189  0.4627  0.5910
19773TIP3    H280735   2.844   1.250   4.593  0.8399  0.7883 -0.4711
19774TIP3   OH280736   1.236   5.691   1.900  0.8204  0.4169  0.3057
19774TIP3    H180737   1.200   5.764   1.950  0.5764 -0.9323  2.1862
19774TIP3    H280738   1.304   5.731   1.846  1.3419  1.8987  1.9619
19775TIP3   OH280739   0.743   2.676   2.680 -0.2318  0.7243  0.0406
19775TIP3    H180740   0.694   2.759   2.687  2.0360  2.4428 -2.3540
19775TIP3    H280741   0.772   2.674   2.589  0.5908 -2.3308  0.2665
19776TIP3   OH280742   5.739   4.310   1.934 -0.7871 -0.4841 -0.0597
19776TIP3    H180743   5.771   4.395   1.963 -1.4488 -0.5266  0.8120
19776TIP3    H280744   5.779   4.298   1.847 -0.1586  0.4052  0.0951
19777TIP3   OH280745   4.253   3.792   5.747  0.5040 -0.0998 -0.2848
19777TIP3    H180746   4.239   3.847   5.670 -0.9208 -0.6884 -0.4801
19777TIP3    H280747   4.267   3.854   5.819  0.3961  0.4774 -0.7529
19778TIP3   OH280748   6.571   0.253  16.161 -0.0589 -0.0876  0.0733
19778TIP3    H180749   6.626   0.249  16.082 -0.0274  0.9086  0.0378
19778TIP3    H280750   6.498   0.310  16.136  0.6116  1.2969  1.1480
19779TIP3   OH280751   4.015   4.189  16.931  0.2139 -0.3376  0.4994
19779TIP3    H180752   3.941   4.182  16.870  2.3350 -0.6650 -2.1920
19779TIP3    H280753   4.040   4.099  16.950  1.9731 -0.2984 -1.3534
19780TIP3   OH280754   5.911   4.611   5.337  0.1809  0.5087  0.3763
19780TIP3    H180755   5.888   4.577   5.251  0.9728 -1.5998  0.9535
19780TIP3    H280756   5.836   4.665   5.363  0.5271  2.4310 -2.1993
19781TIP3   OH280757   6.300   5.768  14.214 -0.6371  0.1942 -0.2201
19781TIP3    H180758   6.302   5.693  14.273 -0.9871  2.4179  2.8648
19781TIP3    H280759   6.392   5.789  14.199 -0.4967  0.9411  1.4763
19782TIP3   OH280760   4.855   3.620  15.344 -0.1046  0.1055 -0.1660
19782TIP3    H180761   4.928   3.619  15.283 -0.9391 -2.4832 -1.2849
19782TIP3    H280762   4.794   3.685  15.309  0.3209  0.0929 -0.9477
19783TIP3   OH280763   0.389   2.529   0.401  0.3023  0.0846 -0.3114
19783TIP3    H180764   0.373   2.471   0.326  1.2109 -3.1359  1.7692
19783TIP3    H280765   0.361   2.615   0.371 -1.2499 -1.3894 -3.6437
19784TIP3   OH280766   2.438   3.256   0.889  0.1019  0.8462  0.2231
19784TIP3    H180767   2.470   3.267   0.800 -0.0349  1.5667  0.2517
19784TIP3    H280768   2.498   3.193   0.929  0.0982  0.4294 -0.4052
19785TIP3   OH280769   1.376   2.740  11.139  0.9271  0.4047  0.3186
19785TIP3    H180770   1.388   2.698  11.224  2.0817  0.8690  0.3909
19785TIP3    H280771   1.453   2.795  11.127 -0.4815  2.4581  0.1708
19786TIP3   OH280772   0.028   6.623   4.124 -0.4583 -0.8198 -0.4950
19786TIP3    H180773   0.062   6.556   4.183 -1.1025 -1.6573 -1.0447
19786TIP3    H280774  -0.036   6.671   4.177  0.6430 -0.0500  0.1637
19787TIP3   OH280775   3.830   4.292  11.887 -0.0335 -0.0914 -0.4503
19787TIP3    H180776   3.757   4.320  11.942 -1.1953  0.0227 -1.9718
19787TIP3    H280777   3.882   4.371  11.874  2.0370 -0.6894  2.8699
19788TIP3   OH280778   2.960   6.203   0.798  0.3853  0.3621  0.0856
19788TIP3    H180779   3.013   6.164   0.868  0.7382 -0.5343 -0.6496
19788TIP3    H280780   2.891   6.251   0.843  2.8730  3.2700  1.1678
19789TIP3   OH280781   4.974   1.259  16.855  0.2394 -0.0732 -0.4678
19789TIP3    H180782   4.952   1.303  16.773 -0.3348  0.4623 -0.0331
19789TIP3    H280783   5.046   1.200  16.832  0.3097  0.3180 -1.2825
19790TIP3   OH280784   6.481   0.391  11.576 -0.4538 -0.0775 -0.1249
19790TIP3    H180785   6.412   0.456  11.561  0.2834  0.7640  0.0256
19790TIP3    H280786   6.444   0.332  11.642 -1.9405 -1.0782 -1.7626
19791TIP3   OH280787   3.277   6.595  16.427  0.3541  0.2104  0.7063
19791TIP3    H180788   3.230   6.627  16.349  0.2558 -0.0578  0.6531
19791TIP3    H280789   3.358   6.646  16.429  0.1596  0.5240  0.6739
19792TIP3   OH280790   1.239   0.483  15.485  0.4952 -0.0640  0.5309
19792TIP3    H180791   1.234   0.411  15.422  1.3667  0.4340 -0.1390
19792TIP3    H280792   1.165   0.539  15.463 -0.9474 -1.3427  1.8686
19793TIP3   OH280793   4.440   4.730  10.952  0.2111 -0.0754 -0.0776
19793TIP3    H180794   4.469   4.708  10.863 -0.1012 -1.0888  0.0540
19793TIP3    H280795   4.454   4.824  10.960  0.4889 -0.0213 -1.1097
19794TIP3   OH280796   6.590   2.422   1.183  0.1957 -0.3748  0.0430
19794TIP3    H180797   6.679   2.396   1.158  0.1453 -0.4746 -0.0383
19794TIP3    H280798   6.576   2.381   1.268  0.4729  0.2044  0.3695
19795TIP3   OH280799   3.262   6.339  13.513  0.3393 -0.6909 -0.3078
19795TIP3    H180800   3.192   6.353  13.449 -0.9282 -1.6164  0.8103
19795TIP3    H280801   3.320   6.414  13.502 -0.4875 -0.2181 -1.7093
19796TIP3   OH280802   0.204   5.102   4.632 -0.3098 -0.6771  0.0260
19796TIP3    H180803   0.278   5.041   4.626 -0.0241 -0.5230  1.5800
19796TIP3    H280804   0.227   5.161   4.704 -0.1257  1.9396 -2.0226
19797TIP3   OH280805   3.287   4.640   6.170  0.0699 -0.6673 -0.0569
19797TIP3    H180806   3.307   4.588   6.248 -1.4202  0.3032  1.0344
19797TIP3    H280807   3.219   4.701   6.199 -0.6277 -0.3587 -2.1611
19798TIP3   OH280808   4.504   3.403  11.488 -0.8252 -0.5985  0.0136
19798TIP3    H180809   4.580   3.432  11.538 -1.3927  1.0747 -0.0212
19798TIP3    H280810   4.498   3.309  11.505  0.6762 -0.5835  0.7694
19799TIP3   OH280811   4.133   1.995  15.726  0.2806 -0.3175  0.3834
19799TIP3    H180812   4.046   1.960  15.707 -1.1619  2.2481  1.7209
19799TIP3    H280813   4.168   2.019  15.641 -0.5268 -0.9672 -0.1458
19800TIP3   OH280814   3.498   2.600  13.117 -0.0595  0.4775  0.2287
19800TIP3    H180815   3.413   2.560  13.098  0.7765 -0.6845 -1.2622
19800TIP3    H280816   3.496   2.683  13.071  0.1217 -0.1947 -1.0441
19801TIP3   OH280817   3.101   6.000  13.580  0.3231  0.3579 -0.9847
19801TIP3    H180818   3.092   5.910  13.611  0.8431  0.4882 -0.4390
19801TIP3    H280819   3.144   6.046  13.652 -1.8428  1.5469 -0.3789
19802TIP3   OH280820   4.058   6.079  13.460 -0.6719  0.7073 -0.3737
19802TIP3    H180821   4.141   6.034  13.448 -0.9158  0.3606 -0.8321
19802TIP3    H280822   4.035   6.111  13.372 -2.4112 -1.7003 -0.9221
19803TIP3   OH280823   4.860   2.130  13.221  0.0910 -0.0652  0.7635
19803TIP3    H180824   4.801   2.056  13.238 -1.8875  1.2721  0.1732
19803TIP3    H280825   4.874   2.169  13.308 -2.1499  1.1318  0.6845
19804TIP3   OH280826   5.351   0.192  15.996  0.9319  0.3042 -0.0477
19804TIP3    H180827   5.340   0.284  15.972 -1.0110  0.0362 -0.4066
19804TIP3    H280828   5.337   0.190  16.091 -3.4750 -0.0352 -0.4789
19805TIP3   OH280829   4.404   0.657  17.013  0.0592  0.3573  0.1287
19805TIP3    H180830   4.424   0.647  17.106  0.4644 -0.7449 -0.0618
19805TIP3    H280831   4.421   0.571  16.976  0.9016  1.0583 -1.1607
19806TIP3   OH280832   6.144   1.467   2.076  0.8054  0.7419  0.0851
19806TIP3    H180833   6.202   1.394   2.097 -0.3598  0.0227  0.9294
19806TIP3    H280834   6.127   1.509   2.161 -2.2303 -0.8589  0.3867
19807TIP3   OH280835   3.761   0.716   3.566 -0.1241  0.7282 -0.2259
19807TIP3    H180836   3.826   0.769   3.611  0.3686  1.5111 -1.7853
19807TIP3    H280837   3.736   0.768   3.490 -3.6592  1.1181  1.0210
19808TIP3   OH280838   6.056   3.523   0.710 -0.3475  0.6380  0.3510
19808TIP3    H180839   6.017   3.452   0.659 -0.7907  0.3663  1.0426
19808TIP3    H280840   5.999   3.531   0.786  0.3012  1.0203  0.8069
19809TIP3   OH280841   3.854   0.982   4.800 -0.1155  0.5275 -0.3256
19809TIP3    H180842   3.898   1.008   4.719 -1.5307  1.8041 -0.7409
19809TIP3    H280843   3.794   0.912   4.774 -0.6487  1.0115 -0.4210
19810TIP3   OH280844   2.685   0.847  13.723  0.5863 -0.0355 -0.2194
19810TIP3    H180845   2.758   0.796  13.756  2.5650  1.8619 -1.3909
19810TIP3    H280846   2.700   0.852  13.629 -1.5019 -0.2044 -0.6042
19811TIP3   OH280847   6.244   3.585  13.306 -0.1279 -0.1447  0.5224
19811TIP3    H180848   6.225   3.608  13.215  0.1477  1.0297  0.7503
19811TIP3    H280849   6.301   3.508  13.300 -0.8664 -0.6495 -0.2653
19812TIP3   OH280850   3.064   3.113  13.093 -0.3353  0.2874 -0.8521
19812TIP3    H180851   3.158   3.127  13.102 -0.1432 -0.6637 -1.2354
19812TIP3    H280852   3.024   3.173  13.156  0.5779  0.0091  0.0108
19813TIP3   OH280853   4.656   0.913   4.921  0.1113  0.3355 -0.4491
19813TIP3    H180854   4.612   0.944   4.842  0.5403  3.0523  0.2879
19813TIP3    H280855   4.586   0.887   4.980 -0.3617  1.2971 -0.5783
19814TIP3   OH280856   1.632   3.395  15.230 -0.3897 -0.0851  0.5254
19814TIP3    H180857   1.621   3.326  15.294 -2.6110 -1.8843 -1.6106
19814TIP3    H280858   1.726   3.412  15.229  0.0937 -2.3323  1.8567
19815TIP3   OH280859   1.335   1.874  14.036  0.1961  0.0483  0.3216
19815TIP3    H180860   1.372   1.961  14.020 -0.2809 -0.1322 -2.1918
19815TIP3    H280861   1.259   1.889  14.092  0.4919  1.1686  0.4317
19816TIP3   OH280862   4.651   3.393  15.550 -0.1783  0.4196  0.7845
19816TIP3    H180863   4.639   3.299  15.537  0.0788  0.5505 -0.4668
19816TIP3    H280864   4.717   3.400  15.619  0.5813 -0.3177  0.1395
19817TIP3   OH280865   4.790   2.677   1.478  0.3455 -0.0111 -0.5801
19817TIP3    H180866   4.736   2.627   1.418 -0.7931  0.4637  0.0088
19817TIP3    H280867   4.749   2.664   1.564  0.8656  0.7698 -0.1967
19818TIP3   OH280868   5.578   3.868  13.408 -0.1185 -0.2041 -0.0397
19818TIP3    H180869   5.602   3.815  13.332 -1.1785  1.9031 -1.9357
19818TIP3    H280870   5.659   3.876  13.459  0.7739 -1.0997 -1.2723
19819TIP3   OH280871   2.473   2.430   4.117  0.4635 -0.1006 -0.1863
19819TIP3    H180872   2.492   2.447   4.025  2.0235  0.4181  0.1950
19819TIP3    H280873   2.478   2.517   4.158 -1.5203 -0.1343  0.1922
19820TIP3   OH280874   1.559   1.460  16.314  0.5917 -0.3804  0.0606
19820TIP3    H180875   1.471   1.446  16.277  0.4351 -0.0928  0.3165
19820TIP3    H280876   1.561   1.405  16.392 -0.8527  2.5684  2.3715
19821TIP3   OH280877   2.971   2.205   1.194  0.5285 -0.9147  0.3616
19821TIP3    H180878   3.046   2.216   1.136  1.0214 -1.7335  0.8098
19821TIP3    H280879   2.966   2.110   1.207 -0.8155 -0.8991  0.0480
19822TIP3   OH280880   4.119   6.579  16.248  0.0123  0.2578 -0.2450
19822TIP3    H180881   4.025   6.594  16.252  0.2412  1.7178  0.7141
19822TIP3    H280882   4.140   6.581  16.155 -0.9877 -0.7348 -0.5006
19823TIP3   OH280883   6.605   5.760   0.896 -0.1793  0.7963 -0.0416
19823TIP3    H180884   6.562   5.794   0.974 -0.5179  0.5036 -0.0953
19823TIP3    H280885   6.696   5.789   0.903 -0.2966  1.0855  0.2731
19824TIP3   OH280886   6.087   1.080   4.072  0.7508  0.5683 -0.2410
19824TIP3    H180887   6.143   1.018   4.119 -2.4911 -2.2148  0.2979
19824TIP3    H280888   6.023   1.110   4.137 -1.3906 -0.2740 -1.8442
19825TIP3   OH280889   2.938   0.303  15.530 -0.1822  0.7279 -0.3858
19825TIP3    H180890   2.931   0.328  15.438  0.2774 -1.8103 -1.1822
19825TIP3    H280891   2.864   0.245  15.545 -0.4171  1.3455  0.9492
19826TIP3   OH280892   1.269   1.672   0.597  0.3200 -0.0779 -0.4051
19826TIP3    H180893   1.292   1.760   0.628  1.6484 -1.0547  1.6203
19826TIP3    H280894   1.177   1.661   0.624  0.5710  0.1874  0.6074
19827TIP3   OH280895   3.018   4.052  17.164  0.4500  0.2379 -0.5041
19827TIP3    H180896   2.938   4.099  17.138  0.0856 -0.6242 -0.9739
19827TIP3    H280897   3.057   4.108  17.231 -1.3828 -0.0766  0.9096
19828TIP3   OH280898   1.944   2.019   0.865 -0.4720  0.2136  0.2541
19828TIP3    H180899   1.913   2.035   0.775 -2.0514 -0.7993  0.5805
19828TIP3    H280900   1.967   1.926   0.866  2.0499  0.7495  0.2417
19829TIP3   OH280901   0.904   6.489   0.577 -0.1583  0.7393  0.3474
19829TIP3    H180902   0.859   6.512   0.658 -0.0759 -0.4480  0.7449
19829TIP3    H280903   0.942   6.403   0.594  0.9426  1.0280 -0.5185
19830TIP3   OH280904   4.843   0.832  13.002 -0.0733  0.0812 -0.0316
19830TIP3    H180905   4.791   0.789  12.934  2.5513 -1.6845 -1.1249
19830TIP3    H280906   4.856   0.921  12.971 -2.4264  0.6256  0.3566
19831TIP3   OH280907   5.447   6.381  16.175  0.0799  0.0643  0.0911
19831TIP3    H180908   5.354   6.404  16.181  0.2729  1.5636 -1.8843
19831TIP3    H280909   5.453   6.297  16.221 -2.0793  0.3421  1.0144
19832TIP3   OH280910   3.634   0.371   4.919 -0.1073 -0.0054  0.3735
19832TIP3    H180911   3.679   0.288   4.934  2.3985  1.2288  0.3178
19832TIP3    H280912   3.654   0.393   4.828 -0.3936  0.8525  0.5070
19833TIP3   OH280913   2.220   6.461  13.898 -0.3740  0.3002  0.3136
19833TIP3    H180914   2.144   6.421  13.940 -1.1293  1.8473  0.5080
19833TIP3    H280915   2.229   6.546  13.941  1.4739  0.1718  0.2804
19834TIP3   OH280916   0.870   0.083  15.671 -0.3799 -0.1476  0.0252
19834TIP3    H180917   0.789   0.132  15.655  0.8527  2.0745  0.1522
19834TIP3    H280918   0.938   0.133  15.626  1.0829 -1.4150  0.7194
19835TIP3   OH280919   3.417   3.421   1.468  0.4023  0.0242  0.2399
19835TIP3    H180920   3.329   3.458   1.465  0.8497  1.2645  1.3013
19835TIP3    H280921   3.407   3.332   1.433 -1.7165 -0.7308  2.4335
19836TIP3   OH280922   1.679   2.026  16.086  0.9173  0.1237  0.3602
19836TIP3    H180923   1.693   2.016  16.180  2.8815  0.6004  0.1667
19836TIP3    H280924   1.666   1.936  16.054  0.3422 -0.0492  1.0460
19837TIP3   OH280925   4.241   2.515  13.696 -0.3408 -0.1978  0.3970
19837TIP3    H180926   4.241   2.446  13.762 -1.6327  0.6069  1.2713
19837TIP3    H280927   4.169   2.491  13.637 -1.9586  1.2706  1.6943
19838TIP3   OH280928   6.112   1.566   2.339 -0.6689 -0.4638 -0.0651
19838TIP3    H180929   6.071   1.587   2.423 -0.1510 -0.7111  0.2605
19838TIP3    H280930   6.174   1.637   2.325 -0.7592 -0.4201 -0.2412
19839TIP3   OH280931   1.970   6.053  12.540  0.6089 -0.5516 -0.0701
19839TIP3    H180932   1.924   6.039  12.457 -0.0264 -0.4038  0.2470
19839TIP3    H280933   2.005   5.966  12.563 -0.9184 -1.0569  0.4911
19840TIP3   OH280934   0.038   0.974   6.041 -0.1473  0.2535 -0.1197
19840TIP3    H180935  -0.032   0.959   6.105 -0.1551 -0.2559 -0.2422
19840TIP3    H280936   0.099   1.032   6.086 -0.7248  0.8308 -0.0646
19841TIP3   OH280937   2.110   3.146  10.377 -0.6014 -0.0473 -0.6478
19841TIP3    H180938   2.064   3.086  10.436  0.6746 -1.1307 -0.7183
19841TIP3    H280939   2.094   3.233  10.414 -2.5310 -0.3989 -0.5716
19842TIP3   OH280940   1.021   3.807  11.190  0.2635 -0.1352 -0.4271
19842TIP3    H180941   1.010   3.778  11.099 -1.4659  2.2679 -1.0880
19842TIP3    H280942   1.042   3.900  11.183  0.2145  0.0830  1.6677
19843TIP3   OH280943   4.749   5.655  12.265 -0.0842  0.1254 -0.3701
19843TIP3    H180944   4.821   5.663  12.328 -1.4044 -1.5433  1.4905
19843TIP3    H280945   4.790   5.666  12.180  1.9699  1.4688  0.7055
19844TIP3   OH280946   2.192   6.087   2.557 -0.2167 -0.3027 -0.0086
19844TIP3    H180947   2.160   6.023   2.620  0.5880 -0.5689  0.1476
19844TIP3    H280948   2.216   6.035   2.480  2.9488 -0.6225  1.0529
19845TIP3   OH280949   4.934   6.524   5.297 -0.0415 -0.2887  0.1005
19845TIP3    H180950   4.959   6.472   5.373 -0.5021 -0.1566  0.3439
19845TIP3    H280951   5.000   6.593   5.293  1.4208 -1.6752 -1.0669
19846TIP3   OH280952   1.189   0.710  12.281  0.1469  0.5359 -0.6292
19846TIP3    H180953   1.100   0.675  12.274  0.5287 -0.5097 -0.5813
19846TIP3    H280954   1.193   0.779  12.215 -0.9653  1.2214 -0.0097
19847TIP3   OH280955   5.913   5.540  11.285 -0.2452  0.1809  0.0063
19847TIP3    H180956   5.817   5.536  11.285 -0.2506 -1.8621  2.1137
19847TIP3    H280957   5.939   5.463  11.234  0.1651 -1.1836  2.1320
19848TIP3   OH280958   0.224   4.010   2.287  0.3694  0.0184 -0.4817
19848TIP3    H180959   0.177   3.928   2.271 -1.2990  0.6121  1.0489
19848TIP3    H280960   0.160   4.079   2.270  0.7860  0.8886  1.2171
19849TIP3   OH280961   3.246   2.496  10.910  0.2174  0.2938  0.1056
19849TIP3    H180962   3.289   2.536  10.835  1.6562  2.1864  1.8169
19849TIP3    H280963   3.298   2.418  10.930 -0.9829 -1.0154 -1.6010
19850TIP3   OH280964   3.861   2.539   2.962  0.4363 -0.1366  0.0536
19850TIP3    H180965   3.835   2.620   2.920 -1.8193 -0.8446 -0.0616
19850TIP3    H280966   3.789   2.519   3.023  2.5820 -0.2352  2.7699
19851TIP3   OH280967   1.563   5.606  12.409 -0.6083 -0.1147  0.5867
19851TIP3    H180968   1.620   5.676  12.377 -3.4781  1.5431 -1.3278
19851TIP3    H280969   1.615   5.527  12.398  1.6442  1.3675 -0.1933
19852TIP3   OH280970   1.855   6.686  13.406 -0.8041  0.6065 -0.2253
19852TIP3    H180971   1.928   6.720  13.458 -1.7286 -0.6467  2.0965
19852TIP3    H280972   1.817   6.763  13.364  0.6317  1.5523  0.1241
19853TIP3   OH280973   0.346   2.784  16.684 -0.7085 -0.0099 -0.3865
19853TIP3    H180974   0.318   2.738  16.763  0.2166  0.6381  0.3321
19853TIP3    H280975   0.310   2.731  16.612 -1.4477 -0.6787  0.4495
19854TIP3   OH280976   0.387   2.675  17.194 -0.2083  0.0493 -0.4751
19854TIP3    H180977   0.432   2.746  17.148 -0.6879 -0.4871 -1.8218
19854TIP3    H280978   0.420   2.681  17.284 -1.1072  2.7044 -0.2216
19855TIP3   OH280979   1.295   3.565   4.259  0.2300  0.4417  0.2056
19855TIP3    H180980   1.260   3.477   4.250  0.5093  0.4677 -1.2685
19855TIP3    H280981   1.306   3.577   4.354  2.5045 -2.0058  0.3493
19856TIP3   OH280982   0.606   6.471  13.974 -0.3057  0.2751  0.1530
19856TIP3    H180983   0.682   6.505  13.928 -0.7057  0.5373 -0.3239
19856TIP3    H280984   0.634   6.463  14.065  0.5948 -0.5502 -0.1880
19857TIP3   OH280985   3.663   5.745  14.124 -0.0498  0.0348  0.9012
19857TIP3    H180986   3.708   5.815  14.077 -1.4831  1.2166  1.2418
19857TIP3    H280987   3.574   5.746  14.090 -0.1052 -1.6659  0.9026
19858TIP3   OH280988   5.915   5.919   0.526 -0.4681 -0.4850 -0.6155
19858TIP3    H180989   6.003   5.948   0.501 -0.4839  0.5357  0.4619
19858TIP3    H280990   5.864   5.999   0.531 -1.0135 -0.8803  0.4664
19859TIP3   OH280991   1.383   0.109   4.218 -0.0723 -0.2254 -0.0845
19859TIP3    H180992   1.384   0.080   4.127  2.2572  1.6150 -0.7248
19859TIP3    H280993   1.357   0.201   4.214 -2.1350 -0.6694  1.3898
19860TIP3   OH280994   0.753   0.753  12.960  0.1951 -0.4265 -0.1254
19860TIP3    H180995   0.682   0.721  12.904 -1.0586 -1.4724  1.9782
19860TIP3    H280996   0.802   0.675  12.984 -0.2273 -0.2447  1.4485
19861TIP3   OH280997   5.060   2.342  13.369  0.6917  0.0725  0.6544
19861TIP3    H180998   5.070   2.310  13.459 -0.9468  0.0148  0.8623
19861TIP3    H280999   5.051   2.437  13.379  3.1240  0.3976  0.2682
19862TIP3   OH281000   5.306   2.592   6.151  0.1596 -0.3459 -0.3242
19862TIP3    H181001   5.211   2.588   6.158  0.2334 -0.9326  0.5753
19862TIP3    H281002   5.323   2.666   6.093 -0.8382 -0.1882 -0.4324
19863TIP3   OH281003   0.581   6.142   1.092  0.1314 -0.1281  0.5576
19863TIP3    H181004   0.611   6.175   1.176 -0.2896  1.0053  0.2844
19863TIP3    H281005   0.639   6.182   1.027 -0.9707  0.8578  0.1495
19864TIP3   OH281006   4.560   3.317   2.458  0.4259 -0.0889 -0.2211
19864TIP3    H181007   4.560   3.243   2.397 -1.9720  0.7732 -1.3950
19864TIP3    H281008   4.519   3.389   2.409  0.1054  1.1806  1.8031
19865TIP3   OH281009   5.355   3.245   5.629 -0.3868  1.0056 -0.0465
19865TIP3    H181010   5.395   3.160   5.611  0.0637  0.8494  1.5179
19865TIP3    H281011   5.273   3.225   5.672 -0.8326  1.3641 -0.7140
19866TIP3   OH281012   1.044   5.576   4.744 -0.1526 -0.0549 -0.2834
19866TIP3    H181013   1.043   5.488   4.707 -0.3375 -1.9437  3.6693
19866TIP3    H281014   1.135   5.604   4.738 -0.2923  0.0921 -2.6394
19867TIP3   OH281015   3.794   5.487   5.353 -0.3366 -0.3281 -0.1553
19867TIP3    H181016   3.821   5.529   5.434 -0.0893  1.5129 -1.1421
19867TIP3    H281017   3.724   5.428   5.379  0.7639 -0.9464  1.6081
19868TIP3   OH281018   4.529   0.174   3.164  0.0528  0.3083 -0.2090
19868TIP3    H181019   4.515   0.109   3.232 -0.4745  1.1929  0.5590
19868TIP3    H281020   4.445   0.179   3.118  0.1921  0.2091 -0.4725
19869TIP3   OH281021   4.886   3.044   5.449 -0.2965 -0.1812  0.4099
19869TIP3    H181022   4.965   3.010   5.408 -0.5455  0.2586 -0.4610
19869TIP3    H281023   4.894   3.139   5.441  0.3831  0.0108  2.7975
19870TIP3   OH281024   5.708   5.746   3.408 -0.1978 -0.1663  0.1105
19870TIP3    H181025   5.699   5.687   3.333  0.9964 -1.3916  0.8894
19870TIP3    H281026   5.680   5.831   3.374  0.5489 -0.6245 -1.8234
19871TIP3   OH281027   1.321   1.758  12.681 -0.0445  0.3641  0.2196
19871TIP3    H181028   1.319   1.662  12.683  0.1033  0.3723  0.8662
19871TIP3    H281029   1.234   1.783  12.650 -0.5378  0.0509  1.2987
19872TIP3   OH281030   6.348   0.364   2.833  0.1394  0.5044 -0.1333
19872TIP3    H181031   6.281   0.367   2.765 -0.5005 -2.7159  0.1772
19872TIP3    H281032   6.431   0.364   2.784 -0.3047 -1.5291 -0.9823
19873TIP3   OH281033   0.116   3.272   0.080 -0.1155  0.3236 -0.1809
19873TIP3    H181034   0.135   3.193   0.028 -0.5944 -0.0955  0.2689
19873TIP3    H281035   0.025   3.261   0.106  0.5217 -0.2461  2.0565
19874TIP3   OH281036   5.142   0.400   0.253  0.3254 -0.1835  0.5312
19874TIP3    H181037   5.083   0.446   0.313 -1.3334 -1.3728 -0.1377
19874TIP3    H281038   5.085   0.365   0.185  1.7926 -1.5514 -0.0456
19875TIP3   OH281039   6.044   2.146   5.534 -0.1695 -0.4437 -0.7547
19875TIP3    H181040   6.091   2.066   5.511  2.7614  1.1160 -0.7845
19875TIP3    H281041   6.094   2.216   5.491 -0.8551  1.6212  1.5543
19876TIP3   OH281042   0.276   1.769  13.796 -0.1121 -0.0703  0.3297
19876TIP3    H181043   0.187   1.804  13.797  0.0263  0.4136 -1.4317
19876TIP3    H281044   0.266   1.676  13.775 -0.2442 -0.2482  1.1433
19877TIP3   OH281045   5.931   6.166  14.667 -0.0598 -0.9123 -0.3576
19877TIP3    H181046   5.840   6.193  14.656  0.3850  1.4886  1.1971
19877TIP3    H281047   5.970   6.177  14.580 -0.4928  1.4028 -0.3221
19878TIP3   OH281048   0.550   4.139   4.253  0.0656  0.3547 -0.2864
19878TIP3    H181049   0.616   4.198   4.215  2.1396 -1.3892  0.4283
19878TIP3    H281050   0.578   4.128   4.344  1.1613 -3.4391 -0.9228
19879TIP3   OH281051   3.661   2.061  11.559 -0.0201 -0.1401  0.3980
19879TIP3    H181052   3.623   2.146  11.537 -0.6555 -0.3921  0.4873
19879TIP3    H281053   3.755   2.077  11.564 -0.0083  0.2822 -0.8259
19880TIP3   OH281054   3.777   5.711  16.515  0.3071  0.2320 -0.1732
19880TIP3    H181055   3.699   5.661  16.540  0.5649  0.8997  2.2037
19880TIP3    H281056   3.850   5.661  16.552  0.6753  1.4943  0.8968
19881TIP3   OH281057   5.027   4.549   2.463  0.5990 -0.6187  0.2894
19881TIP3    H181058   4.961   4.596   2.411  0.2707 -1.0653  0.2890
19881TIP3    H281059   5.067   4.488   2.400  0.0628 -1.3027  0.5956
19882TIP3   OH281060   5.056   0.178  15.955 -0.5127 -0.4400 -0.3434
19882TIP3    H181061   5.051   0.118  16.030 -1.0036  2.0744  1.7766
19882TIP3    H281062   5.150   0.194  15.944 -0.3099 -2.1008 -1.4554
19883TIP3   OH281063   3.603   5.488  13.831  0.0766  0.1702 -0.0042
19883TIP3    H181064   3.545   5.563  13.823  1.2523  0.9210 -2.2362
19883TIP3    H281065   3.686   5.517  13.795  0.7288 -2.0357 -0.4752
19884TIP3   OH281066   1.945   4.402   2.309  0.2403  0.3052  0.3617
19884TIP3    H181067   2.040   4.390   2.312  0.0543 -1.3991  0.5360
19884TIP3    H281068   1.919   4.407   2.401  0.0629 -0.1886  0.3401
19885TIP3   OH281069   3.664   3.272   0.769  0.4736  0.1429  0.6155
19885TIP3    H181070   3.586   3.303   0.723  1.3504  1.8492  0.1788
19885TIP3    H281071   3.734   3.275   0.703  0.8864 -1.6495  0.9139
19886TIP3   OH281072   1.256   4.216   4.184 -0.4418  0.1071  0.2445
19886TIP3    H181073   1.262   4.312   4.181 -2.8539  0.3148  0.4754
19886TIP3    H281074   1.224   4.191   4.097 -1.2482 -0.3328  0.6559
19887TIP3   OH281075   3.306   1.205  10.681  0.4507  0.3672  0.3266
19887TIP3    H181076   3.360   1.157  10.618 -0.0605  1.9609 -1.4068
19887TIP3    H281077   3.231   1.236  10.631  0.8463  3.1564  1.2475
19888TIP3   OH281078   4.679   1.357  13.898 -0.4577  0.1223  0.3939
19888TIP3    H181079   4.689   1.370  13.993 -0.7062 -0.1351  0.4555
19888TIP3    H281080   4.715   1.270  13.883  2.8372  1.4467 -0.2719
19889TIP3   OH281081   5.035   3.624   6.630 -0.5627 -0.6471 -1.1530
19889TIP3    H181082   5.079   3.670   6.701  0.3718 -2.8312 -0.2306
19889TIP3    H281083   5.067   3.667   6.550 -0.2183  0.6660 -0.3312
19890TIP3   OH281084   3.846   3.772  13.271  0.9123 -0.0785  0.3233
19890TIP3    H181085   3.780   3.738  13.332 -0.0512  0.9962 -0.0926
19890TIP3    H281086   3.885   3.847  13.317  0.5216  0.4384 -0.1763
19891TIP3   OH281087   2.850   6.423  15.891  0.3015 -0.2414  0.4566
19891TIP3    H181088   2.804   6.353  15.937 -0.9927  0.2397 -0.0796
19891TIP3    H281089   2.786   6.458  15.829  1.2421  0.7537  0.0119
19892TIP3   OH281090   6.768   2.613   0.796 -0.8138 -0.0982  0.0736
19892TIP3    H181091   6.712   2.639   0.723 -0.7657 -0.7717 -0.2111
19892TIP3    H281092   6.764   2.687   0.856 -0.4622  0.6815 -0.8324
19893TIP3   OH281093   2.033   3.979   2.439 -0.0383 -0.0665 -0.3741
19893TIP3    H181094   2.106   4.035   2.466 -0.8944  0.8856  0.0193
19893TIP3    H281095   2.069   3.890   2.444  1.3734  0.4300 -1.1072
19894TIP3   OH281096   4.742   2.561  14.690 -0.6118  0.4091 -0.4521
19894TIP3    H181097   4.794   2.508  14.631 -3.0212 -1.3918 -1.1487
19894TIP3    H281098   4.801   2.582  14.762  0.9721 -1.7764 -0.9997
19895TIP3   OH281099   4.463   0.720  16.549  0.2346 -0.1693  0.1924
19895TIP3    H181100   4.392   0.659  16.533 -0.3266  0.3654  0.5925
19895TIP3    H281101   4.524   0.672  16.605  0.7464 -1.0102 -1.0499
19896TIP3   OH281102   2.169   3.410   3.034 -0.0344  0.0478  0.3710
19896TIP3    H181103   2.237   3.468   3.070  1.2032 -0.8128 -0.5241
19896TIP3    H281104   2.182   3.327   3.079 -0.6645 -0.0622  0.3621
19897TIP3   OH281105   5.748   6.138   2.992  0.4235 -0.2737  0.1912
19897TIP3    H181106   5.838   6.144   2.961  0.5655  0.3726  0.6839
19897TIP3    H281107   5.753   6.077   3.066  0.3093 -0.8645 -0.2898
19898TIP3   OH281108   6.764   5.359   5.860  0.2964  0.1850 -0.2768
19898TIP3    H181109   6.798   5.436   5.906 -1.9049  2.3275 -1.9666
19898TIP3    H281110   6.723   5.306   5.928  0.5764  1.2745  0.7642
19899TIP3   OH281111   3.338   6.284   4.080  0.2404  0.0209  0.3740
19899TIP3    H181112   3.315   6.376   4.066 -1.9296 -0.4629  0.3745
19899TIP3    H281113   3.424   6.287   4.121  1.0097  1.9696 -1.2214
19900TIP3   OH281114   0.208   1.801   3.184  0.1216 -0.7171  0.1583
19900TIP3    H181115   0.236   1.888   3.212  1.9087 -1.3060  0.3517
19900TIP3    H281116   0.113   1.802   3.193 -0.2837  2.1930 -2.6893
19901TIP3   OH281117   5.538   3.165  12.703  0.1057 -0.2998  0.3365
19901TIP3    H181118   5.616   3.137  12.655 -0.1384 -0.6107  0.1177
19901TIP3    H281119   5.564   3.247  12.746  0.8068 -0.8086  0.9165
19902TIP3   OH281120   6.470   4.067   0.089 -0.5914 -0.3346 -0.4364
19902TIP3    H181121   6.520   3.987   0.105 -0.8703 -0.2162  1.2695
19902TIP3    H281122   6.379   4.040   0.095 -0.7619 -0.3187 -2.3283
19903TIP3   OH281123   2.887   5.093   3.331  0.5924  0.0473  0.2054
19903TIP3    H181124   2.933   5.171   3.359  0.4586 -0.0926  0.8386
19903TIP3    H281125   2.795   5.111   3.350  0.1941  0.7663 -2.0464
19904TIP3   OH281126   2.008   5.151   2.378  0.8968 -0.4523  0.4440
19904TIP3    H181127   2.012   5.067   2.423  1.4894 -0.9461 -0.4966
19904TIP3    H281128   2.099   5.175   2.364  0.7941 -1.2508 -2.1395
19905TIP3   OH281129   4.488   2.440  12.792 -0.7627 -0.0739  0.0328
19905TIP3    H181130   4.563   2.424  12.848 -0.4407  0.3006 -0.2793
19905TIP3    H281131   4.524   2.491  12.719 -1.1504 -0.6185 -0.5517
19906TIP3   OH281132   3.625   0.480  16.397  0.8570 -0.0031  0.1199
19906TIP3    H181133   3.706   0.429  16.389  2.1420  1.7061  1.4744
19906TIP3    H281134   3.643   0.562  16.352  0.5277  1.0500  1.7926
19907TIP3   OH281135   3.525   5.686   3.336  0.8614 -0.1838  0.1184
19907TIP3    H181136   3.577   5.630   3.395 -1.7703 -0.5161  2.3576
19907TIP3    H281137   3.492   5.625   3.269  0.3045 -0.7688  0.9038
19908TIP3   OH281138   1.062   1.525   0.753  0.1396 -0.4939 -0.2110
19908TIP3    H181139   1.004   1.451   0.770  0.4529 -0.3815  1.5477
19908TIP3    H281140   1.140   1.506   0.805  0.6725  0.5431 -0.6092
19909TIP3   OH281141   5.117   2.807  13.756 -0.5428 -0.8418 -0.2135
19909TIP3    H181142   5.077   2.884  13.715 -0.3578 -0.0153  1.0797
19909TIP3    H281143   5.194   2.789  13.703  1.1993  1.8308  1.1457
19910TIP3   OH281144   1.166   6.124  12.069 -0.2784  0.0900 -0.1387
19910TIP3    H181145   1.158   6.195  12.005 -0.2484  0.7479  0.5824
19910TIP3    H281146   1.243   6.075  12.041 -1.2649 -0.7104 -1.6526
19911TIP3   OH281147   3.608   0.910   5.390 -0.3279  0.0695 -0.1674
19911TIP3    H181148   3.566   0.853   5.326 -0.6433 -1.3306  1.2198
19911TIP3    H281149   3.567   0.887   5.474  3.0649 -1.3672  1.2893
19912TIP3   OH281150   6.231   3.975  14.949  0.0717  0.0367 -0.6977
19912TIP3    H181151   6.175   3.898  14.961 -0.1801  0.1544 -1.1155
19912TIP3    H281152   6.232   3.990  14.854 -1.4949  1.7552 -0.4850
19913TIP3   OH281153   4.508   3.420  16.971 -0.3840 -0.1102  0.0257
19913TIP3    H181154   4.601   3.405  16.954 -0.3124 -1.4550  1.3921
19913TIP3    H281155   4.483   3.349  17.030 -1.9007  1.1681  0.9721
19914TIP3   OH281156   4.791   3.726   4.981  0.4223  0.9806 -0.1837
19914TIP3    H181157   4.806   3.775   5.062  2.0373  0.2898 -0.0238
19914TIP3    H281158   4.800   3.634   5.006  1.0697  0.7585 -1.1435
19915TIP3   OH281159   0.788   1.548  15.182  0.4060  0.7072 -0.1844
19915TIP3    H181160   0.709   1.498  15.161  1.0131 -1.3827  2.0215
19915TIP3    H281161   0.845   1.536  15.106 -0.5405  0.4069 -0.8684
19916TIP3   OH281162   1.515   2.799   1.554  0.4033  0.0286 -0.4383
19916TIP3    H181163   1.560   2.859   1.613 -0.2940  0.1122  0.0238
19916TIP3    H281164   1.540   2.712   1.583 -0.6071  0.0475  0.5447
19917TIP3   OH281165   3.156   2.336  16.813  0.3303  0.1613  0.4909
19917TIP3    H181166   3.236   2.384  16.835 -0.5453  2.7130 -1.3462
19917TIP3    H281167   3.179   2.285  16.735  0.5319 -0.1708  0.7706
19918TIP3   OH281168   4.405   0.602   0.080 -0.0082  0.5801  0.4461
19918TIP3    H181169   4.488   0.555   0.079  0.0640  0.7235 -0.2607
19918TIP3    H281170   4.338   0.533   0.089  0.0849  0.3163 -0.7604
19919TIP3   OH281171   0.706   4.331   0.697 -0.4966  0.1541  0.0862
19919TIP3    H181172   0.634   4.326   0.759 -1.1079  1.2097 -0.5163
19919TIP3    H281173   0.664   4.334   0.611  0.2823  0.1621 -0.3064
19920TIP3   OH281174   4.490   2.206   2.440  0.3176 -0.1336 -0.3541
19920TIP3    H181175   4.462   2.247   2.522  1.5198 -0.6229  0.3243
19920TIP3    H281176   4.450   2.260   2.372 -0.7556  0.2470  0.5432
19921TIP3   OH281177   4.491   3.363  12.589 -0.3722 -0.5355 -0.1491
19921TIP3    H181178   4.535   3.355  12.674 -0.7998 -1.4973 -0.0052
19921TIP3    H281179   4.540   3.304  12.532  0.1397  0.3775 -0.6811
19922TIP3   OH281180   2.242   0.673   4.855  0.4459  0.5958 -0.2677
19922TIP3    H181181   2.324   0.628   4.874 -0.6509 -1.1573  0.5408
19922TIP3    H281182   2.213   0.708   4.939  0.5777  1.6363 -0.6374
19923TIP3   OH281183   2.512   3.713  11.162 -0.1714  0.4080  0.2924
19923TIP3    H181184   2.558   3.790  11.128 -2.0889  0.3128 -2.7826
19923TIP3    H281185   2.457   3.747  11.232 -0.2417  1.6545 -0.3495
19924TIP3   OH281186   4.619   4.662  13.263 -0.0268  0.9278 -0.1858
19924TIP3    H181187   4.679   4.590  13.283 -0.4346 -0.0292 -2.1701
19924TIP3    H281188   4.541   4.643  13.315  0.3300  0.6431  0.2570
19925TIP3   OH281189   0.868   6.595   3.373  0.6390 -0.3088  0.3705
19925TIP3    H181190   0.834   6.635   3.293 -0.5638  0.9906  1.4669
19925TIP3    H281191   0.947   6.646   3.393 -0.8759  1.7057  1.7508
19926TIP3   OH281192   2.216   4.033   4.483  0.0600 -0.4137  0.5268
19926TIP3    H181193   2.279   3.978   4.438  1.4325  0.8372  0.8508
19926TIP3    H281194   2.269   4.095   4.533 -1.4223  0.7616  0.7216
19927TIP3   OH281195   3.133   2.670  11.105 -0.7033 -0.2431  0.1512
19927TIP3    H181196   3.049   2.685  11.061 -1.1909 -2.7456  0.0696
19927TIP3    H281197   3.190   2.633  11.038  0.2513  0.7352  0.3941
19928TIP3   OH281198   4.038   0.375   2.914  0.4891 -0.1443  0.4067
19928TIP3    H181199   4.123   0.339   2.889 -0.1333  0.3057 -2.7507
19928TIP3    H281200   4.057   0.464   2.944  1.1698 -0.1067 -0.1216
19929TIP3   OH281201   5.789   4.854  14.119 -0.0063  0.0027  0.4361
19929TIP3    H181202   5.744   4.919  14.173 -3.4317 -1.9126  0.1779
19929TIP3    H281203   5.784   4.773  14.171 -1.5296 -1.4153 -1.7541
19930TIP3   OH281204   5.875   4.736  16.919 -0.0197 -0.1793 -0.0292
19930TIP3    H181205   5.923   4.703  16.843 -2.0811 -0.1662 -1.4144
19930TIP3    H281206   5.783   4.724  16.896 -0.7174 -0.0537  2.4428
19931TIP3   OH281207   3.184   6.420  15.687 -0.0113  0.1065  0.0565
19931TIP3    H181208   3.125   6.385  15.621 -1.9972  1.8978  0.7322
19931TIP3    H281209   3.219   6.500  15.648  0.8020 -0.1407  0.2500
19932TIP3   OH281210   2.213   3.601   1.364  0.2910 -0.0845 -0.3893
19932TIP3    H181211   2.201   3.646   1.280 -3.0519  0.0218  0.0017
19932TIP3    H281212   2.195   3.509   1.344 -1.0400  0.0157  0.2511
19933TIP3   OH281213   3.865   4.122   2.644 -0.3747 -0.2682  0.7876
19933TIP3    H181214   3.940   4.071   2.675 -1.3825 -1.4973  1.2832
19933TIP3    H281215   3.851   4.188   2.712 -0.6064 -0.9415  1.4105
19934TIP3   OH281216   5.680   2.842  12.159 -0.0762  0.1714 -0.2072
19934TIP3    H181217   5.704   2.851  12.067  2.6496 -0.0903  0.4002
19934TIP3    H281218   5.718   2.919  12.201 -1.3571  0.3298  0.7227
19935TIP3   OH281219   6.535   2.586  14.189  0.1525 -0.6006 -0.4640
19935TIP3    H181220   6.541   2.521  14.120 -1.8378 -1.2609 -0.0981
19935TIP3    H281221   6.535   2.670  14.143  0.7323 -0.9435 -1.1024
19936TIP3   OH281222   6.605   2.486   3.955 -0.1561  0.4995 -0.1325
19936TIP3    H181223   6.659   2.505   4.032 -0.3314  0.2510  0.0501
19936TIP3    H281224   6.628   2.397   3.931 -0.0413  0.6050 -0.4203
19937TIP3   OH281225   6.065   2.143  12.660  0.3916 -0.0169  1.0176
19937TIP3    H181226   6.010   2.208  12.705  0.5372  0.8667 -0.0223
19937TIP3    H281227   6.003   2.094  12.605  0.6921  1.6684 -0.9600
19938TIP3   OH281228   1.288   0.778   4.586 -0.5977  0.0631  0.2992
19938TIP3    H181229   1.334   0.845   4.637  0.5159 -0.4458 -0.0167
19938TIP3    H281230   1.295   0.698   4.638  0.4011 -0.4196 -0.5570
19939TIP3   OH281231   3.389   5.997   2.881 -0.6980 -0.3159  0.2337
19939TIP3    H181232   3.460   5.937   2.859  0.2689  1.1862 -0.9391
19939TIP3    H281233   3.410   6.028   2.969  0.4443  0.5286 -0.3098
19940TIP3   OH281234   4.600   6.258   3.570  0.2573 -0.6092 -0.0401
19940TIP3    H181235   4.522   6.284   3.521  0.7880 -1.1689 -1.2208
19940TIP3    H281236   4.636   6.184   3.520  2.0045  0.1572  0.0218
19941TIP3   OH281237   5.696   2.740  12.411  0.2666 -0.5655 -0.0538
19941TIP3    H181238   5.685   2.721  12.318  2.4689  1.0190 -0.7351
19941TIP3    H281239   5.615   2.785  12.437 -1.5381 -3.3448 -0.4043
19942TIP3   OH281240   0.370   0.027  15.130  0.1595  0.0271 -0.1259
19942TIP3    H181241   0.295   0.012  15.187  1.1290  0.1153  1.2228
19942TIP3    H281242   0.354   0.113  15.091 -0.9979 -0.4749 -0.8026
19943TIP3   OH281243   3.240   1.525  13.131  0.0390  0.1742 -0.6547
19943TIP3    H181244   3.193   1.469  13.069 -1.4288  1.9058 -1.2025
19943TIP3    H281245   3.273   1.465  13.197 -0.3808 -1.4672 -1.8637
19944TIP3   OH281246   5.108   3.863  14.183  0.1524 -0.2769  0.6531
19944TIP3    H181247   5.048   3.931  14.152 -0.1281 -0.8077  0.0157
19944TIP3    H281248   5.195   3.892  14.154  0.0035 -0.3041  0.1634
19945TIP3   OH281249   0.708   3.611   5.434 -0.2769  0.0436  0.1749
19945TIP3    H181250   0.660   3.694   5.439  1.0176  0.7618  3.4993
19945TIP3    H281251   0.653   3.549   5.481  0.6128  0.1308  1.3796
19946TIP3   OH281252   5.577   3.774  14.257  0.0406 -0.9540  0.1143
19946TIP3    H181253   5.626   3.708  14.209  1.0945 -1.4180  1.7562
19946TIP3    H281254   5.637   3.848  14.264  0.0206 -1.0095  0.9603
19947TIP3   OH281255   5.718   2.110  15.168 -0.0915  0.1224 -0.5483
19947TIP3    H181256   5.724   2.022  15.203  0.0411  0.1289 -0.5509
19947TIP3    H281257   5.809   2.133  15.145 -0.2537 -0.1156 -1.4566
19948TIP3   OH281258   3.632   3.684  16.079  0.7342  0.0549 -0.5543
19948TIP3    H181259   3.643   3.593  16.053  0.7657  0.0792 -0.6243
19948TIP3    H281260   3.569   3.720  16.017  2.7379  0.8297 -2.2690
19949TIP3   OH281261   2.467   6.735   0.892 -0.5202 -0.3408  0.0445
19949TIP3    H181262   2.445   6.824   0.919 -1.5255  0.4281 -2.9428
19949TIP3    H281263   2.562   6.730   0.903 -0.4088  1.1977 -0.0056
19950TIP3   OH281264   4.845   1.090   3.156  0.0670 -0.1240  0.0538
19950TIP3    H181265   4.749   1.091   3.156  0.0338 -1.3301 -0.8358
19950TIP3    H281266   4.869   1.043   3.236 -0.0868 -0.0643  0.1351
19951TIP3   OH281267   2.227   1.396   1.940  0.4724  0.2774 -0.0717
19951TIP3    H181268   2.168   1.381   1.866  0.3610 -0.0197  0.0747
19951TIP3    H281269   2.315   1.391   1.901  0.3924  1.6244 -0.4509
19952TIP3   OH281270   3.962   1.791  13.111  0.4567  0.7042 -0.0546
19952TIP3    H181271   3.991   1.762  13.198  2.2471  0.1892 -0.8022
19952TIP3    H281272   3.875   1.828  13.127  0.2623 -0.4199  1.7714
19953TIP3   OH281273   5.279   5.270   1.628 -0.4126  0.3696 -0.0001
19953TIP3    H181274   5.317   5.293   1.713 -0.9104 -1.0812  0.6456
19953TIP3    H281275   5.201   5.219   1.649 -1.4995  1.3943 -1.3285
19954TIP3   OH281276   3.883   2.074  14.063 -0.2142 -0.2250  0.0472
19954TIP3    H181277   3.924   2.135  14.001  0.1490 -1.4486 -0.9399
19954TIP3    H281278   3.931   2.088  14.145  0.7682 -0.1287 -0.5270
19955TIP3   OH281279   4.234   3.860  15.290 -0.0506 -0.1261 -0.4328
19955TIP3    H181280   4.140   3.839  15.284 -0.4195  1.1659  0.3277
19955TIP3    H281281   4.277   3.790  15.240 -1.4556 -0.3847 -1.3684
19956TIP3   OH281282   0.303   2.061  14.537  0.0990 -0.3787  0.2239
19956TIP3    H181283   0.231   2.062  14.600 -0.1611 -0.4544 -0.0688
19956TIP3    H281284   0.324   1.969  14.524  0.0357 -0.3701  0.0651
19957TIP3   OH281285   4.569   3.899   2.544  0.0737 -0.5598 -0.0545
19957TIP3    H181286   4.481   3.867   2.565 -0.9266  3.0751  2.0856
19957TIP3    H281287   4.557   3.955   2.468  0.4916  0.0083  0.2858
19958TIP3   OH281288   2.327   1.330  10.741  0.5397  0.2191 -0.4760
19958TIP3    H181289   2.355   1.400  10.683 -0.6953  0.6459 -0.5792
19958TIP3    H281290   2.323   1.371  10.827  0.9834 -0.0524 -0.3186
19959TIP3   OH281291   4.014   3.314  11.907  0.5168  0.2340 -0.1029
19959TIP3    H181292   4.092   3.259  11.918  1.3924  1.3950 -0.1974
19959TIP3    H281293   3.964   3.300  11.987  0.1483 -1.5080 -0.5923
19960TIP3   OH281294   0.210   0.475   5.536  0.1533  0.3670 -0.4471
19960TIP3    H181295   0.239   0.549   5.483  2.6096 -0.5133 -0.4508
19960TIP3    H281296   0.216   0.400   5.477  2.2390 -0.5142  0.7909
19961TIP3   OH281297   6.624   5.077  11.809  0.0673 -0.8308 -0.7718
19961TIP3    H181298   6.544   5.025  11.801  0.0730 -0.7273 -1.6544
19961TIP3    H281299   6.645   5.102  11.719  0.2074  0.4802 -0.3970
19962LIG      O81300   1.405   1.867   7.071 -0.2565  0.0261  0.6211
19962LIG      N81301   1.468   1.805   6.804  0.5016  0.0289  0.1293
19962LIG     C181302   1.386   1.711   7.246  0.7304  0.4837 -0.0866
19962LIG     C281303   1.469   1.756   7.117 -0.3215  0.7489  0.0780
19962LIG     C381304   1.402   1.815   7.362 -0.6279  0.0913 -0.3920
19962LIG     C481305   1.232   1.694   7.219 -0.4229 -0.1528 -0.2778
19962LIG     C581306   1.474   1.650   7.006 -0.4432  0.0465 -0.9416
19962LIG     C681307   1.318   1.762   7.483  0.5511  0.5305 -0.1884
19962LIG     C781308   1.139   1.663   7.333 -0.7033  0.0696  0.0270
19962LIG     C881309   1.167   1.762   7.448  0.4817 -0.1701  0.2057
19962LIG     C981310   1.536   1.693   6.872  0.4343 -0.3269  0.5984
19962LIG    C1081311   1.618   1.783   7.168  0.3599  0.2728  0.1254
19962LIG    C1181312   1.547   1.849   6.683  0.1361 -0.3167 -0.0753
19962LIG    C1281313   1.322   1.791   6.776  0.2870  1.0275 -0.0370
19962LIG    C1381314   1.531   1.739   6.578  0.9628  0.2687 -0.2052
19962LIG    C1481315   1.311   1.669   6.679 -0.3594  0.0124 -0.0848
19962LIG    C1581316   1.384   1.694   6.548 -0.3603  0.2745 -0.0934
19962LIG    C1681317   1.706   1.891   7.136  0.3642  0.5295  0.4382
19962LIG    C1781318   1.674   1.676   7.238 -0.8769 -0.1927 -0.3633
19962LIG    C1881319   1.836   1.895   7.186  0.0954  0.1410 -0.1332
19962LIG    C1981320   1.796   1.690   7.303 -0.1305 -0.6796  0.7444
19962LIG    C2081321   1.882   1.798   7.270  0.2436  0.9420  0.0294
19962LIG     H181322   1.415   1.609   7.278 -1.3877 -0.0502  0.3060
19962LIG     H281323   1.357   1.913   7.332 -2.3579 -0.4508  0.2942
19962LIG     H381324   1.509   1.833   7.385 -0.0447  0.7142 -3.1561
19962LIG     H481325   1.216   1.611   7.148  3.7157  0.7053 -2.5189
19962LIG     H581326   1.195   1.784   7.165 -2.3307 -0.4295  0.4974
19962LIG     H681327   1.367   1.626   6.988 -0.3013 -1.5860  0.1672
19962LIG     H781328   1.526   1.558   7.042 -0.3917  0.1470 -0.7583
19962LIG     H881329   1.334   1.820   7.576 -0.8365 -0.7714  0.9265
19962LIG     H981330   1.356   1.662   7.514 -1.4740  0.5767  2.9461
19962LIG    H1081331   1.148   1.558   7.370  0.5661  0.4938  0.9668
19962LIG    H1181332   1.033   1.675   7.300 -0.3894  0.8491 -0.7464
19962LIG    H1281333   1.147   1.870   7.430 -1.0861 -0.3414  0.8060
19962LIG    H1381334   1.100   1.736   7.533  0.9851 -0.6530  0.4608
19962LIG    H1481335   1.643   1.720   6.890  0.6532 -0.1377 -0.8934
19962LIG    H1581336   1.551   1.605   6.807  1.7612  0.2488  0.0906
19962LIG    H1681337   1.653   1.855   6.715 -0.2207 -0.3828  1.1735
19962LIG    H1781338   1.528   1.954   6.653 -0.3207 -0.6773 -1.1089
19962LIG    H1881339   1.292   1.882   6.720  0.3897  1.4830  0.6431
19962LIG    H1981340   1.257   1.778   6.865  0.8824  1.5377  0.4857
19962LIG    H2081341   1.452   1.891   6.990  1.3832 -1.6003  1.0174
19962LIG    H2181342   1.586   1.646   6.599 -2.2107 -2.1582 -1.7451
19962LIG    H2281343   1.584   1.768   6.484 -1.0595  2.9018 -0.6752
19962LIG    H2381344   1.202   1.656   6.664 -0.4500 -1.6085  1.6262
19962LIG    H2481345   1.346   1.575   6.727 -0.9677  0.5197  1.4140
19962LIG    H2581346   1.385   1.602   6.486 -0.4072  0.9485 -1.1113
19962LIG    H2681347   1.331   1.776   6.496 -1.3224 -0.0942  0.2861
19962LIG    H2781348   1.666   1.976   7.083 -0.8674  0.7750  1.7011
19962LIG    H2881349   1.618   1.587   7.260  0.0429 -0.4164  1.2030
19962LIG    H2981350   1.894   1.985   7.167 -1.8936  1.5962  0.3851
19962LIG    H3081351   1.834   1.610   7.364 -1.5228 -0.1837  2.3415
19962LIG    H3181352   1.986   1.798   7.301  1.3322  0.7762 -3.2601
   6.78449   6.78449  17.22703
